Title
82263
    1SAPS     N    1   4.114   3.605  11.558 -0.0259 -0.3342  0.4232
    1SAPS   HN1    2   4.116   3.708  11.543 -1.3586 -0.1929  1.1398
    1SAPS   HN2    3   4.180   3.575  11.633  0.7607 -0.2142 -0.2198
    1SAPS   HN3    4   4.155   3.562  11.473  0.8934  0.8828  0.2226
    1SAPS   C12    5   3.974   3.551  11.573  0.5524 -0.1548  0.4281
    1SAPS  H12A    6   3.969   3.456  11.523  2.7843 -0.4187  0.6269
    1SAPS   C13    7   3.925   3.545  11.722 -0.5284  0.0444  0.0303
    1SAPS  O13A    8   4.008   3.573  11.813 -0.0925  0.0568  0.2854
    1SAPS  O13B    9   3.818   3.488  11.745 -0.5481  0.1531  0.0952
    1SAPS   C11   10   3.873   3.641  11.491 -0.4985 -0.3449  0.2124
    1SAPS  H11A   11   3.862   3.741  11.539 -0.4744 -1.0180  1.6461
    1SAPS  H11B   12   3.768   3.606  11.503 -0.4467 -0.3254  0.7321
    1SAPS     P   13   3.844   3.744  11.252 -0.1866 -0.1552 -0.4978
    1SAPS   O13   14   3.904   3.877  11.282 -0.3139  0.1373  0.4910
    1SAPS   O14   15   3.861   3.689  11.119  0.2383 -0.0883  0.2326
    1SAPS   O12   16   3.908   3.639  11.354  0.1163  0.3423 -0.0935
    1SAPS   O11   17   3.692   3.734  11.279 -0.0144 -0.7917 -0.8474
    1SAPS    C1   18   3.623   3.862  11.303  0.0318 -0.3165  0.3064
    1SAPS    HA   19   3.655   3.901  11.402  0.5731  1.8526 -0.7072
    1SAPS    HB   20   3.655   3.941  11.232 -1.8448 -0.0597 -0.2828
    1SAPS    C2   21   3.473   3.833  11.294 -0.8517 -0.1450  0.3706
    1SAPS    HS   22   3.463   3.740  11.353  4.3716 -0.1349  1.5222
    1SAPS   O21   23   3.446   3.814  11.152  0.0069 -0.8071  0.0539
    1SAPS   C21   24   3.342   3.737  11.122  0.0527  0.4300  0.2723
    1SAPS   O22   25   3.271   3.683  11.200 -0.3706 -0.0464 -0.7597
    1SAPS   C22   26   3.323   3.723  10.977 -0.1674 -0.2646  0.4085
    1SAPS   H2R   27   3.341   3.823  10.933 -0.1306 -0.1251  0.7392
    1SAPS   H2S   28   3.392   3.646  10.936  2.1693  1.9503  0.0658
    1SAPS    C3   29   3.387   3.948  11.345 -0.0414 -0.0811  0.2812
    1SAPS    HX   30   3.284   3.918  11.316 -0.0566 -3.5984  3.7003
    1SAPS    HY   31   3.426   4.036  11.288 -0.7482 -0.1024 -0.2404
    1SAPS   O31   32   3.407   3.964  11.484  0.4856 -0.6736  0.2621
    1SAPS   C31   33   3.321   4.058  11.535  0.1947  0.0358 -0.3766
    1SAPS   O32   34   3.219   4.099  11.482 -0.0797 -0.5518  0.2503
    1SAPS   C32   35   3.368   4.083  11.679 -0.2599  0.7489 -0.5567
    1SAPS   H2X   36   3.429   3.997  11.713 -0.5180  0.4440 -0.8559
    1SAPS   H2Y   37   3.276   4.085  11.741 -0.7546 -0.4966 -1.2214
    1SAPS   C23   38   3.180   3.688  10.923  0.0235  0.6113 -0.1539
    1SAPS   H3R   39   3.178   3.738  10.824 -3.9348  2.6925  0.8950
    1SAPS   H3S   40   3.089   3.715  10.980 -2.5062 -3.0389 -2.2250
    1SAPS   C24   41   3.168   3.537  10.898 -0.0104 -0.2546 -0.0845
    1SAPS   H4R   42   3.135   3.481  10.988 -1.1622 -1.5715 -1.2975
    1SAPS   H4S   43   3.266   3.494  10.867  0.2643  1.4800 -1.6684
    1SAPS   C25   44   3.060   3.513  10.793  0.7523 -0.2619 -0.1014
    1SAPS   H5R   45   2.960   3.536  10.834  1.6584 -0.1806  2.1306
    1SAPS   C26   46   3.071   3.467  10.674 -0.2467  0.0575  0.3009
    1SAPS   H6R   47   2.983   3.462  10.608 -0.9302  0.3917  1.1793
    1SAPS   C27   48   3.203   3.424  10.617  0.3192  0.6802  0.1599
    1SAPS   H7R   49   3.278   3.503  10.635 -0.0234  1.1367 -0.3704
    1SAPS   H7S   50   3.189   3.424  10.506 -2.3888  1.3932  0.4543
    1SAPS   C28   51   3.253   3.288  10.659 -0.1259 -0.1004 -0.1419
    1SAPS   H8R   52   3.173   3.215  10.673 -2.0309  1.1661 -3.6942
    1SAPS   C29   53   3.381   3.254  10.677 -0.1521  0.0322 -0.5205
    1SAPS   H9R   54   3.393   3.146  10.694  1.0629  0.1054 -0.8957
    1SAPS  C210   55   3.502   3.340  10.664  0.0275  0.1867 -0.4104
    1SAPS  H10R   56   3.497   3.398  10.569 -2.1567  2.1608  0.8683
    1SAPS  H10S   57   3.587   3.270  10.650 -0.0477 -0.0784  0.4448
    1SAPS  C211   58   3.521   3.442  10.778 -0.2004 -0.0476 -0.0376
    1SAPS  H11R   59   3.465   3.537  10.766  2.3154  1.4188 -0.5479
    1SAPS  C212   60   3.601   3.445  10.882  0.3051 -0.1759 -0.4498
    1SAPS  H12R   61   3.597   3.523  10.960  0.0667 -1.3218  0.7006
    1SAPS  C213   62   3.692   3.334  10.920 -0.4062  0.3760  0.4216
    1SAPS  H13R   63   3.733   3.265  10.843 -1.1711  1.3720 -0.8929
    1SAPS  H13S   64   3.635   3.268  10.990 -1.7663  0.9275 -0.1475
    1SAPS  C214   65   3.811   3.380  11.009  0.4501 -0.3053  0.2149
    1SAPS  H14R   66   3.834   3.487  11.016  0.1280 -0.3313  2.0174
    1SAPS  C215   67   3.864   3.300  11.098  0.3417  0.0391  0.5029
    1SAPS  H15R   68   3.933   3.343  11.172  1.1749  1.4212 -1.0385
    1SAPS  C216   69   3.831   3.153  11.109  0.2937 -0.3099 -0.0910
    1SAPS  H16R   70   3.926   3.103  11.079  0.4764  1.0917 -1.9444
    1SAPS  H16S   71   3.753   3.120  11.038  0.4636  0.3789 -0.6057
    1SAPS  C217   72   3.807   3.110  11.258  0.0288 -0.4860  0.1002
    1SAPS  H17R   73   3.802   3.000  11.273 -0.0846 -0.6470 -1.0749
    1SAPS  H17S   74   3.705   3.136  11.293 -0.2666 -1.2057 -0.2170
    1SAPS  C218   75   3.916   3.152  11.366  0.5804 -0.1440 -0.1765
    1SAPS  H18R   76   3.887   3.114  11.466  0.5139 -0.6775 -0.3996
    1SAPS  H18S   77   3.937   3.261  11.371 -0.4602 -0.0367  3.0751
    1SAPS  C219   78   4.056   3.093  11.333 -0.4267  0.1046 -0.0658
    1SAPS  H19R   79   4.089   3.123  11.231 -1.6519  0.3899 -0.3872
    1SAPS  H19S   80   4.054   2.982  11.326  1.2432  0.0098  0.6849
    1SAPS  C220   81   4.164   3.130  11.436 -0.1652 -0.8925 -0.1550
    1SAPS  H20R   82   4.150   3.080  11.534  0.3977  0.4343  0.6181
    1SAPS  H20S   83   4.165   3.241  11.445 -0.2469 -0.6860 -2.3114
    1SAPS  H20T   84   4.267   3.113  11.398 -0.4910 -1.2872 -0.8616
    1SAPS   C33   85   3.437   4.218  11.688 -0.4180 -0.0001  0.3722
    1SAPS   H3X   86   3.371   4.298  11.647 -0.2757  0.1980  0.5279
    1SAPS   H3Y   87   3.531   4.209  11.629 -0.3752 -0.0094  0.4424
    1SAPS   C34   88   3.490   4.269  11.828 -0.5247  0.2223 -0.6902
    1SAPS   H4X   89   3.536   4.370  11.818  0.7237  0.1327  3.1310
    1SAPS   H4Y   90   3.581   4.212  11.855 -0.8822  0.2546  0.6217
    1SAPS   C35   91   3.392   4.268  11.942 -0.1157  0.4176  0.1375
    1SAPS   H5X   92   3.376   4.162  11.973 -1.5361  0.3083 -0.9616
    1SAPS   H5Y   93   3.292   4.311  11.920 -0.6541 -1.3204 -0.8885
    1SAPS   C36   94   3.438   4.339  12.071 -0.6939  0.1523 -0.5609
    1SAPS   H6X   95   3.382   4.305  12.160  1.3621  2.6365  1.7640
    1SAPS   H6Y   96   3.406   4.446  12.070  1.7939  0.9565  0.7720
    1SAPS   C37   97   3.588   4.326  12.126  0.1127 -0.7234  0.3835
    1SAPS   H7X   98   3.589   4.382  12.221  3.0406 -0.8155  0.4310
    1SAPS   H7Y   99   3.649   4.387  12.056 -1.3955 -1.6101 -1.7913
    1SAPS   C38  100   3.638   4.187  12.146 -0.3418  0.4039  0.4825
    1SAPS   H8X  101   3.649   4.133  12.049  0.8576  2.4375 -0.5522
    1SAPS   H8Y  102   3.561   4.121  12.190  0.0343  0.0146  0.5655
    1SAPS   C39  103   3.760   4.193  12.237 -0.3544 -0.1381  0.1687
    1SAPS   H9X  104   3.810   4.095  12.251 -0.4244 -0.2684 -0.4938
    1SAPS   H9Y  105   3.731   4.229  12.338  2.7302  0.2640  0.9566
    1SAPS  C310  106   3.876   4.291  12.179 -0.1075  0.0026  0.0956
    1SAPS  H10X  107   3.970   4.279  12.237 -0.1987  2.9788  0.8942
    1SAPS  H10Y  108   3.840   4.395  12.192  2.0173  0.8597 -0.6425
    1SAPS  C311  109   3.898   4.258  12.028 -0.3753  0.9904 -0.2300
    1SAPS  H11X  110   3.800   4.272  11.977 -1.7570  1.3492  2.4775
    1SAPS  H11Y  111   3.917   4.149  12.019 -0.2270  1.0076 -0.1401
    1SAPS  C312  112   4.011   4.340  11.959 -0.0251  0.3271  0.2410
    1SAPS  H12X  113   4.100   4.297  12.009  0.5852  0.3537 -0.8262
    1SAPS  H12Y  114   4.007   4.449  11.980  0.7200  0.4041 -0.0280
    1SAPS  C313  115   4.011   4.320  11.810  0.0816 -0.5244  0.3359
    1SAPS  H13X  116   4.005   4.211  11.790  1.9518 -0.3509 -1.2782
    1SAPS  H13Y  117   4.105   4.359  11.766  1.7302 -0.5038  3.6934
    1SAPS  C314  118   3.894   4.385  11.738 -0.3995  0.6052  0.1182
    1SAPS  H14X  119   3.884   4.495  11.752 -1.2264  0.3280  1.8075
    1SAPS  H14Y  120   3.798   4.344  11.776 -0.2625 -1.9957 -2.2234
    1SAPS  C315  121   3.896   4.350  11.586  0.4401  0.2874 -0.0675
    1SAPS  H15X  122   3.983   4.381  11.524  1.7196 -0.9663  1.0650
    1SAPS  H15Y  123   3.813   4.414  11.548  0.7228  0.0465 -1.0931
    1SAPS  C316  124   3.852   4.205  11.567  0.8561  0.6792  0.1768
    1SAPS  H16X  125   3.758   4.178  11.620  0.2588 -0.8651 -1.6326
    1SAPS  H16Y  126   3.941   4.150  11.604 -0.7019 -0.9522  1.6159
    1SAPS  C317  127   3.838   4.172  11.418  0.6301  0.1523  0.2514
    1SAPS  H17X  128   3.842   4.062  11.401  0.7292 -0.0461  1.5008
    1SAPS  H17Y  129   3.923   4.218  11.363  1.3428 -0.9366  0.4181
    1SAPS  C318  130   3.716   4.231  11.354  0.2827  0.2061 -0.0088
    1SAPS  H18X  131   3.721   4.341  11.367 -1.1498  0.3858 -0.7935
    1SAPS  H18Y  132   3.623   4.186  11.397  0.2659 -0.4139 -0.6827
    1SAPS  H18Z  133   3.710   4.202  11.246 -0.1597 -0.4549  0.1862
    2SAPS     N  134   2.740   3.733  11.100  0.4132 -0.1809 -0.6840
    2SAPS   HN1  135   2.812   3.710  11.172  0.0692  1.0635  0.0630
    2SAPS   HN2  136   2.774   3.793  11.022  0.8255 -0.9901 -1.1269
    2SAPS   HN3  137   2.663   3.768  11.160  0.6205 -0.3488 -0.3167
    2SAPS   C12  138   2.692   3.604  11.042 -0.0755  0.0966 -0.6182
    2SAPS  H12A  139   2.760   3.557  10.972  0.7943  0.1729  0.1717
    2SAPS   C13  140   2.672   3.486  11.146 -0.2032 -0.2410 -0.4625
    2SAPS  O13A  141   2.703   3.503  11.265 -0.6420  0.2578  0.2015
    2SAPS  O13B  142   2.637   3.375  11.099  0.3154  0.3957 -0.3053
    2SAPS   C11  143   2.561   3.626  10.963 -0.4066  0.2214  0.4588
    2SAPS  H11A  144   2.467   3.651  11.017 -0.7939 -0.2312  0.0015
    2SAPS  H11B  145   2.544   3.533  10.905 -0.6934  0.4500  0.1668
    2SAPS     P  146   2.452   3.760  10.776  0.0153  0.1042  0.0728
    2SAPS   O13  147   2.330   3.684  10.805 -0.7208 -0.2424 -0.1804
    2SAPS   O14  148   2.450   3.909  10.775  0.5658  0.2490  0.0737
    2SAPS   O12  149   2.579   3.723  10.866 -0.3620 -0.3632 -0.0041
    2SAPS   O11  150   2.491   3.716  10.633 -0.6627 -0.0970  0.1565
    2SAPS    C1  151   2.621   3.702  10.585  0.5155 -0.2386  0.3378
    2SAPS    HA  152   2.647   3.792  10.526 -3.5027 -0.0447 -1.3200
    2SAPS    HB  153   2.694   3.688  10.667 -0.0246  0.8156  1.0215
    2SAPS    C2  154   2.622   3.573  10.500 -0.2258  0.0824 -0.0141
    2SAPS    HS  155   2.621   3.490  10.575  0.8538 -2.2440 -2.4929
    2SAPS   O21  156   2.740   3.570  10.420  0.2766  0.4089  0.0426
    2SAPS   C21  157   2.798   3.456  10.406  0.1259 -0.3341  0.1499
    2SAPS   O22  158   2.771   3.352  10.464 -0.3773 -0.1781 -0.0720
    2SAPS   C22  159   2.913   3.483  10.304  0.2072 -0.0011  0.3899
    2SAPS   H2R  160   2.879   3.559  10.231  0.6337  0.8368  1.0542
    2SAPS   H2S  161   2.992   3.535  10.362  0.4645  0.6222 -0.5088
    2SAPS    C3  162   2.494   3.558  10.418 -0.7704 -0.1697 -0.6316
    2SAPS    HX  163   2.502   3.643  10.347 -2.2696 -0.4272 -1.1221
    2SAPS    HY  164   2.400   3.571  10.477 -1.0763  2.5561 -1.6150
    2SAPS   O31  165   2.493   3.442  10.337  0.5419 -0.4621  0.4873
    2SAPS   C31  166   2.420   3.351  10.378 -0.5550  0.4799  0.9386
    2SAPS   O32  167   2.349   3.348  10.474  0.2995 -0.2663  0.4599
    2SAPS   C32  168   2.440   3.234  10.271  0.6478 -0.0523  0.5103
    2SAPS   H2X  169   2.339   3.188  10.267 -0.7434  2.8049  1.2416
    2SAPS   H2Y  170   2.513   3.165  10.318 -0.0075 -0.5000  0.8754
    2SAPS   C23  171   2.980   3.359  10.230 -0.2003 -0.1770 -0.2714
    2SAPS   H3R  172   3.015   3.274  10.294  0.1407 -0.5402 -0.9372
    2SAPS   H3S  173   3.070   3.385  10.171  0.5046 -1.5339  0.1697
    2SAPS   C24  174   2.875   3.298  10.136  0.4535 -0.0986 -0.5076
    2SAPS   H4R  175   2.833   3.391  10.092  0.3826  0.0105 -0.2082
    2SAPS   H4S  176   2.793   3.240  10.183 -0.1388  2.2062  1.3289
    2SAPS   C25  177   2.933   3.217  10.019 -0.2245 -0.8205 -0.3787
    2SAPS   H5R  178   2.946   3.108  10.028 -0.6453 -0.9771 -1.5714
    2SAPS   C26  179   2.982   3.264   9.905 -0.3339  1.1237  0.9097
    2SAPS   H6R  180   3.024   3.188   9.838 -0.9412  0.1038  1.6741
    2SAPS   C27  181   2.984   3.405   9.848  0.4711  0.5708 -0.0520
    2SAPS   H7R  182   2.956   3.474   9.931  1.2463  0.2122  0.5210
    2SAPS   H7S  183   2.897   3.407   9.780  2.1203  1.9236 -2.1729
    2SAPS   C28  184   3.118   3.429   9.782  0.5729  0.4242  0.2970
    2SAPS   H8R  185   3.199   3.436   9.855  0.5948 -0.2718  0.3384
    2SAPS   C29  186   3.138   3.449   9.648 -0.1260  0.4462  0.0997
    2SAPS   H9R  187   3.241   3.466   9.613  0.6945 -1.6512  1.3868
    2SAPS  C210  188   3.030   3.432   9.541 -0.3924 -0.4313 -0.1163
    2SAPS  H10R  189   2.989   3.532   9.514 -0.4564 -0.7266 -1.1403
    2SAPS  H10S  190   2.944   3.374   9.582 -1.3101  1.1521  0.2522
    2SAPS  C211  191   3.063   3.357   9.415 -0.3104 -0.9332  0.1203
    2SAPS  H11R  192   3.122   3.265   9.425  1.7647  0.6136  2.8823
    2SAPS  C212  193   3.049   3.385   9.284  0.3252  0.1627  0.4393
    2SAPS  H12R  194   3.092   3.319   9.207  1.4073 -1.0970  2.0948
    2SAPS  C213  195   2.974   3.507   9.232 -0.0736  0.0413 -0.5478
    2SAPS  H13R  196   2.922   3.562   9.313  2.9622  2.2214  0.0161
    2SAPS  H13S  197   2.902   3.469   9.157  1.2899 -0.1755 -1.7638
    2SAPS  C214  198   3.069   3.600   9.166 -0.5986 -0.2068 -0.3933
    2SAPS  H14R  199   3.159   3.616   9.227 -1.0680  0.2092  0.1984
    2SAPS  C215  200   3.048   3.667   9.051  0.4009 -0.0488  0.6334
    2SAPS  H15R  201   3.130   3.726   9.008 -1.3210  0.9679 -1.2912
    2SAPS  C216  202   2.927   3.654   8.960  0.1152  0.7361  0.7691
    2SAPS  H16R  203   2.833   3.637   9.018 -1.7972 -0.8594 -2.6254
    2SAPS  H16S  204   2.942   3.569   8.890 -1.2727  0.5890  0.6439
    2SAPS  C217  205   2.891   3.776   8.874 -0.3442  0.9214  0.7405
    2SAPS  H17R  206   2.828   3.738   8.790 -0.9265  2.0159  0.6708
    2SAPS  H17S  207   2.985   3.818   8.832  1.6050 -2.3287  1.6828
    2SAPS  C218  208   2.815   3.891   8.949 -0.7076 -0.0605  0.1478
    2SAPS  H18R  209   2.869   3.920   9.042 -1.6076 -1.5001  1.1379
    2SAPS  H18S  210   2.716   3.844   8.965 -0.8322 -0.0706 -0.6223
    2SAPS  C219  211   2.806   4.019   8.874  0.4073 -0.1714 -0.1054
    2SAPS  H19R  212   2.730   4.003   8.794 -0.8510  0.3996  0.9526
    2SAPS  H19S  213   2.906   4.034   8.829 -1.0103  1.1888 -2.8905
    2SAPS  C220  214   2.771   4.142   8.956  0.4337  0.4495 -0.2883
    2SAPS  H20R  215   2.761   4.240   8.904  2.3952 -0.0718 -1.6878
    2SAPS  H20S  216   2.842   4.151   9.041 -0.6012 -0.8366  0.7245
    2SAPS  H20T  217   2.676   4.117   9.009  0.3383 -0.7192 -1.0019
    2SAPS   C33  218   2.469   3.278  10.125  0.1308 -0.1412 -1.1430
    2SAPS   H3X  219   2.572   3.320  10.114 -0.5071  1.9501  0.5591
    2SAPS   H3Y  220   2.403   3.361  10.091 -3.2325 -2.0413  0.5360
    2SAPS   C34  221   2.442   3.160  10.028 -0.0758  0.5676  0.5684
    2SAPS   H4X  222   2.341   3.115  10.026 -0.5254  1.5269  1.2750
    2SAPS   H4Y  223   2.513   3.081  10.060 -0.1861 -0.0755 -0.7228
    2SAPS   C35  224   2.482   3.194   9.882 -0.0907  0.1252  0.2547
    2SAPS   H5X  225   2.586   3.230   9.872  1.5702 -3.5370  3.1588
    2SAPS   H5Y  226   2.420   3.284   9.860  0.1309 -0.3956 -2.7133
    2SAPS   C36  227   2.456   3.083   9.784  0.9914 -0.2584  0.7353
    2SAPS   H6X  228   2.349   3.056   9.792  0.6257  1.0083  0.1962
    2SAPS   H6Y  229   2.518   2.992   9.795 -0.4362 -0.9806  3.0138
    2SAPS   C37  230   2.493   3.135   9.643 -0.4168  0.2392  0.5070
    2SAPS   H7X  231   2.599   3.167   9.635 -0.0438 -0.8631  0.8841
    2SAPS   H7Y  232   2.417   3.210   9.612  0.2274  0.2676 -1.0393
    2SAPS   C38  233   2.474   3.024   9.535 -0.1640  0.0906 -0.7298
    2SAPS   H8X  234   2.369   2.988   9.532  0.2500 -1.8236  3.8485
    2SAPS   H8Y  235   2.532   2.932   9.558  0.0794 -0.5720 -3.7782
    2SAPS   C39  236   2.505   3.065   9.393  0.9095  0.9825  0.2172
    2SAPS   H9X  237   2.615   3.085   9.392  1.2629 -0.9062 -2.4671
    2SAPS   H9Y  238   2.446   3.149   9.352  0.1367  0.8219  0.9809
    2SAPS  C310  239   2.494   2.947   9.293  1.0628  0.1473  0.1690
    2SAPS  H10X  240   2.394   2.899   9.294  0.8290  0.6365  1.0233
    2SAPS  H10Y  241   2.564   2.869   9.330 -0.9124 -1.4392  0.6049
    2SAPS  C311  242   2.523   2.993   9.148  0.0871 -0.3759 -0.1207
    2SAPS  H11X  243   2.628   3.028   9.148 -0.7147  2.1459  1.7701
    2SAPS  H11Y  244   2.459   3.080   9.121  0.5023  0.0585  0.2967
    2SAPS  C312  245   2.504   2.884   9.044  0.6337 -0.2556 -0.6449
    2SAPS  H12X  246   2.399   2.849   9.053  1.0141 -1.7295 -1.8051
    2SAPS  H12Y  247   2.563   2.791   9.059  0.2438  0.0326  2.9342
    2SAPS  C313  248   2.517   2.936   8.892 -0.9622 -0.2947 -0.1631
    2SAPS  H13X  249   2.621   2.968   8.867 -0.0552 -0.4144  3.1889
    2SAPS  H13Y  250   2.444   3.017   8.875  0.1647 -0.0906 -4.7119
    2SAPS  C314  251   2.480   2.816   8.807  0.1969  0.4422 -0.1561
    2SAPS  H14X  252   2.376   2.793   8.840  0.2235  0.2464 -0.2052
    2SAPS  H14Y  253   2.539   2.725   8.831 -0.9822 -0.2218  0.2510
    2SAPS  C315  254   2.490   2.856   8.659  0.0610  0.2720  0.3283
    2SAPS  H15X  255   2.533   2.777   8.593  0.1401 -0.3883  1.1659
    2SAPS  H15Y  256   2.560   2.942   8.647 -1.0524  1.1415 -0.0204
    2SAPS  C316  257   2.351   2.912   8.598  0.7351  0.1974 -1.1191
    2SAPS  H16X  258   2.322   2.982   8.679 -0.2333 -1.3024 -0.1398
    2SAPS  H16Y  259   2.280   2.827   8.597  1.0704 -0.0938 -0.3538
    2SAPS  C317  260   2.357   2.982   8.462  0.8890 -0.0819 -0.2646
    2SAPS  H17X  261   2.410   2.907   8.400 -0.3861 -1.9860  0.8881
    2SAPS  H17Y  262   2.423   3.071   8.467  1.3355 -0.4637  0.6915
    2SAPS  C318  263   2.218   3.013   8.426  0.4500  0.1792  0.6993
    2SAPS  H18X  264   2.159   3.055   8.511  2.0214  0.5591  1.6200
    2SAPS  H18Y  265   2.170   2.917   8.399  0.7845  0.4408 -0.8771
    2SAPS  H18Z  266   2.212   3.077   8.336  0.3343 -0.9654 -0.1203
    3SAPS     N  267   2.905   5.453  11.235 -0.5384  0.1237  0.2917
    3SAPS   HN1  268   2.892   5.406  11.327  1.8902  1.5542  1.4273
    3SAPS   HN2  269   2.970   5.535  11.239  0.3043 -0.5901  1.8787
    3SAPS   HN3  270   2.818   5.496  11.198  0.3357  0.2401 -1.7286
    3SAPS   C12  271   2.966   5.360  11.131  0.1082 -0.1176  0.1130
    3SAPS  H12A  272   3.011   5.421  11.054 -0.5120  1.5082  1.0178
    3SAPS   C13  273   3.073   5.258  11.164  0.3428  0.5189 -0.2693
    3SAPS  O13A  274   3.106   5.256  11.290 -0.1854  1.1075 -0.3686
    3SAPS  O13B  275   3.117   5.173  11.080 -0.2965  0.1865 -0.1884
    3SAPS   C11  276   2.846   5.278  11.071  0.3114 -0.2677  0.1050
    3SAPS  H11A  277   2.803   5.210  11.148 -1.6487  1.3088  0.4341
    3SAPS  H11B  278   2.873   5.206  10.991 -1.1951 -0.0050 -0.6579
    3SAPS     P  279   2.736   5.421  10.886 -0.0063  0.1697 -0.0133
    3SAPS   O13  280   2.606   5.493  10.861  0.4738 -0.8508 -0.0560
    3SAPS   O14  281   2.868   5.492  10.883 -0.0464 -1.2548 -0.3831
    3SAPS   O12  282   2.734   5.359  11.028  0.3677  0.0138 -0.1682
    3SAPS   O11  283   2.727   5.292  10.798 -0.6792 -0.5700 -0.6657
    3SAPS    C1  284   2.833   5.243  10.714 -0.4785 -0.5452 -0.0605
    3SAPS    HA  285   2.932   5.286  10.738 -0.7763 -1.3249  2.6479
    3SAPS    HB  286   2.847   5.133  10.718  1.3064 -0.3176 -0.0264
    3SAPS    C2  287   2.807   5.275  10.557  0.0692 -0.5855 -0.3042
    3SAPS    HS  288   2.869   5.213  10.490  0.6889 -0.2478 -0.0476
    3SAPS   O21  289   2.825   5.414  10.537 -0.5928  0.3567  1.3109
    3SAPS   C21  290   2.948   5.449  10.507 -0.2706  0.0576 -0.1514
    3SAPS   O22  291   3.047   5.382  10.481  0.2011  0.0798 -0.4400
    3SAPS   C22  292   2.957   5.596  10.508 -0.0530 -0.0305  0.0968
    3SAPS   H2R  293   2.928   5.625  10.611 -1.1745  0.3605 -0.3163
    3SAPS   H2S  294   3.065   5.617  10.493 -0.0476 -0.3879 -0.3750
    3SAPS    C3  295   2.661   5.242  10.513 -0.3925  0.1639  0.1508
    3SAPS    HX  296   2.601   5.293  10.591  1.1151 -0.2053  1.5796
    3SAPS    HY  297   2.634   5.134  10.524  1.7110 -0.4174 -0.1770
    3SAPS   O31  298   2.619   5.295  10.379 -0.1427  0.3069 -0.4304
    3SAPS   C31  299   2.580   5.415  10.366  0.0512  0.1746  0.7105
    3SAPS   O32  300   2.566   5.493  10.459 -0.4795  0.6240 -0.0609
    3SAPS   C32  301   2.571   5.455  10.218  0.5368 -0.0143  0.1587
    3SAPS   H2X  302   2.497   5.384  10.176  0.8051  0.2679 -0.8034
    3SAPS   H2Y  303   2.673   5.432  10.181  0.3964 -0.4808  0.0588
    3SAPS   C23  304   2.870   5.678  10.417 -0.3375 -0.0259  0.8942
    3SAPS   H3R  305   2.891   5.787  10.421 -0.8151  0.1071  0.0110
    3SAPS   H3S  306   2.764   5.661  10.447 -0.2861  2.8546  2.8828
    3SAPS   C24  307   2.884   5.643  10.266 -0.2588 -0.2227 -0.2173
    3SAPS   H4R  308   2.837   5.734  10.222  0.9716  0.6701  0.2836
    3SAPS   H4S  309   2.831   5.548  10.243 -1.5311  1.1172 -3.1989
    3SAPS   C25  310   3.031   5.612  10.223  0.2553 -0.7050  0.1844
    3SAPS   H5R  311   3.088   5.542  10.286  1.7030  1.4370  1.3137
    3SAPS   C26  312   3.096   5.666  10.119 -0.0408  0.0803  0.1542
    3SAPS   H6R  313   3.202   5.641  10.104  0.2652  1.1478  0.5218
    3SAPS   C27  314   3.033   5.769  10.024  1.0812 -0.0217  0.4613
    3SAPS   H7R  315   3.121   5.820   9.979 -0.0906  2.0729  0.4481
    3SAPS   H7S  316   2.977   5.850  10.076  2.1140 -0.1415  1.7767
    3SAPS   C28  317   2.954   5.701   9.913  0.2604 -0.3940 -0.1478
    3SAPS   H8R  318   2.861   5.657   9.953 -0.6645  0.0263 -1.7664
    3SAPS   C29  319   2.994   5.689   9.783  0.3882 -0.5007 -0.4924
    3SAPS   H9R  320   2.925   5.636   9.716 -1.6030  0.5727  0.6692
    3SAPS  C210  321   3.119   5.735   9.707  0.5009  0.4596 -0.8748
    3SAPS  H10R  322   3.188   5.649   9.719  0.4412  0.5972  0.4834
    3SAPS  H10S  323   3.175   5.811   9.765  1.3496 -0.8604  0.0581
    3SAPS  C211  324   3.101   5.765   9.556  0.4993  0.8971  0.3834
    3SAPS  H11R  325   3.162   5.701   9.491  1.0948  2.5145 -0.6753
    3SAPS  C212  326   3.026   5.859   9.508 -0.5218  0.1446  0.3926
    3SAPS  H12R  327   3.014   5.862   9.399  1.1597 -2.6012  0.0893
    3SAPS  C213  328   2.950   5.959   9.592  0.1036 -0.1053  0.3768
    3SAPS  H13R  329   3.030   6.014   9.646 -1.5444  0.9810  1.7679
    3SAPS  H13S  330   2.898   5.902   9.671 -0.2699 -1.1240 -0.5937
    3SAPS  C214  331   2.854   6.057   9.533  0.1575 -0.6368  1.0011
    3SAPS  H14R  332   2.753   6.022   9.506  0.2121  0.2560 -0.4093
    3SAPS  C215  333   2.878   6.188   9.511 -0.7539  0.4291  0.3929
    3SAPS  H15R  334   2.787   6.240   9.477  0.8832  0.9899 -3.3884
    3SAPS  C216  335   2.999   6.276   9.541 -0.5214 -1.0045 -0.0698
    3SAPS  H16R  336   3.068   6.218   9.607 -0.5799 -0.0403  0.8441
    3SAPS  H16S  337   2.959   6.353   9.611 -0.2450 -0.5963 -0.3623
    3SAPS  C217  338   3.064   6.349   9.421  0.2868  0.2268 -0.2919
    3SAPS  H17R  339   3.137   6.282   9.370  0.2080 -1.5501  1.8998
    3SAPS  H17S  340   3.134   6.426   9.461  0.7407  1.0404 -2.5546
    3SAPS  C218  341   2.963   6.409   9.316  0.2060  0.3670  0.5240
    3SAPS  H18R  342   2.929   6.505   9.359 -1.9948  0.4220 -1.2365
    3SAPS  H18S  343   2.871   6.347   9.305  1.6227 -1.5487 -0.9732
    3SAPS  C219  344   3.022   6.442   9.179  0.0965 -0.3992 -0.1760
    3SAPS  H19R  345   3.094   6.527   9.182  2.6366 -2.4668 -0.4712
    3SAPS  H19S  346   2.945   6.499   9.123 -0.3107 -2.5531 -1.8889
    3SAPS  C220  347   3.078   6.332   9.091  0.6921 -0.1986 -0.1409
    3SAPS  H20R  348   3.076   6.374   8.988  2.0957  0.0650 -0.0607
    3SAPS  H20S  349   3.016   6.240   9.098  0.1897  0.1107 -0.4731
    3SAPS  H20T  350   3.174   6.296   9.133 -0.4861  0.2376  3.1177
    3SAPS   C33  351   2.523   5.598  10.194  0.4213 -0.2450  0.9565
    3SAPS   H3X  352   2.568   5.662  10.273  1.6718  3.2837 -2.4921
    3SAPS   H3Y  353   2.413   5.590  10.211  0.0311  1.7594 -0.5156
    3SAPS   C34  354   2.557   5.656  10.059  0.2470 -0.4407  0.1339
    3SAPS   H4X  355   2.658   5.701  10.070 -0.2582  0.5582  0.7616
    3SAPS   H4Y  356   2.490   5.743  10.040  0.3430 -0.4628 -0.3042
    3SAPS   C35  357   2.556   5.555   9.940 -0.6763  0.3296 -0.2627
    3SAPS   H5X  358   2.462   5.495   9.936 -0.8255  0.4402  1.2760
    3SAPS   H5Y  359   2.643   5.488   9.955 -0.6969 -0.2812 -2.6796
    3SAPS   C36  360   2.563   5.623   9.805  0.0724  0.4665 -0.6778
    3SAPS   H6X  361   2.658   5.679   9.820 -0.6382  1.7214 -0.7559
    3SAPS   H6Y  362   2.490   5.706   9.792 -0.3069  0.3341  0.4771
    3SAPS   C37  363   2.557   5.526   9.683 -0.5533 -0.2334  0.2011
    3SAPS   H7X  364   2.453   5.489   9.672  0.7138 -3.4229 -1.8788
    3SAPS   H7Y  365   2.632   5.445   9.699  1.8585  2.2807  2.1473
    3SAPS   C38  366   2.572   5.594   9.542  0.0455 -0.0665  0.6789
    3SAPS   H8X  367   2.480   5.655   9.532 -0.1221 -0.5645 -0.9870
    3SAPS   H8Y  368   2.576   5.517   9.462 -0.1274 -1.0996  1.6463
    3SAPS   C39  369   2.700   5.679   9.524  0.2245  0.0005 -0.5587
    3SAPS   H9X  370   2.787   5.623   9.565  1.8164  1.5141 -1.7547
    3SAPS   H9Y  371   2.689   5.779   9.572 -0.1717 -1.0961  1.6737
    3SAPS  C310  372   2.722   5.711   9.373 -0.0612 -0.0102 -0.4535
    3SAPS  H10X  373   2.745   5.622   9.311  0.3544 -0.4474  0.3193
    3SAPS  H10Y  374   2.813   5.775   9.372  0.4122 -0.6476  0.7054
    3SAPS  C311  375   2.617   5.786   9.302  0.8032 -0.1908  1.2894
    3SAPS  H11X  376   2.602   5.883   9.353  2.6903  1.4660 -1.1812
    3SAPS  H11Y  377   2.533   5.713   9.303  1.5843 -1.1244  0.8300
    3SAPS  C312  378   2.657   5.819   9.163 -0.3340  0.2867 -0.1405
    3SAPS  H12X  379   2.656   5.719   9.113 -1.3895  1.7900 -3.3123
    3SAPS  H12Y  380   2.757   5.864   9.147  1.0232 -1.8479  2.0629
    3SAPS  C313  381   2.558   5.905   9.080 -0.5688 -0.3942 -0.0115
    3SAPS  H13X  382   2.516   5.989   9.137  0.8567 -0.4890  1.1957
    3SAPS  H13Y  383   2.471   5.838   9.063 -0.5968 -0.6549  1.1737
    3SAPS  C314  384   2.607   5.934   8.936 -0.5173 -0.4446  0.7956
    3SAPS  H14X  385   2.544   5.891   8.855 -0.9810 -1.2462  1.5802
    3SAPS  H14Y  386   2.707   5.888   8.922  0.1593  1.5228 -1.2737
    3SAPS  C315  387   2.612   6.072   8.898  0.0202  1.1288 -0.1230
    3SAPS  H15X  388   2.519   6.118   8.937  0.2256  1.7175 -0.3097
    3SAPS  H15Y  389   2.613   6.087   8.788  0.1262 -0.2869 -0.3170
    3SAPS  C316  390   2.730   6.151   8.957 -0.4896  0.1760  0.1555
    3SAPS  H16X  391   2.819   6.130   8.895 -1.0940  0.0761 -0.6860
    3SAPS  H16Y  392   2.742   6.112   9.060 -0.3785 -3.2772 -1.0942
    3SAPS  C317  393   2.718   6.310   8.972  0.0568 -0.1385 -0.6292
    3SAPS  H17X  394   2.814   6.343   9.018 -0.3126 -0.9430  0.7394
    3SAPS  H17Y  395   2.635   6.326   9.044 -0.3295  3.4943 -1.7867
    3SAPS  C318  396   2.699   6.379   8.836  0.0555 -0.3051 -0.6165
    3SAPS  H18X  397   2.666   6.300   8.765 -2.3025 -0.2806  0.4133
    3SAPS  H18Y  398   2.796   6.422   8.801 -0.4784  1.8827  0.5523
    3SAPS  H18Z  399   2.619   6.455   8.844  0.8656  0.3746  1.2825
    4SAPS     N  400   4.926   6.733  10.909 -0.1793  0.3681  0.0711
    4SAPS   HN1  401   4.891   6.827  10.883 -1.5507 -0.2410 -0.2680
    4SAPS   HN2  402   4.885   6.660  10.848 -1.9842 -1.6082  3.4536
    4SAPS   HN3  403   4.901   6.697  11.004  0.1783 -3.0985 -1.0840
    4SAPS   C12  404   5.080   6.735  10.918 -0.9398 -0.3085  0.5953
    4SAPS  H12A  405   5.118   6.772  10.824  0.1775  1.8852  1.8580
    4SAPS   C13  406   5.144   6.825  11.032 -0.0953 -0.5985 -0.1387
    4SAPS  O13A  407   5.077   6.886  11.110 -0.0751  0.4925 -0.3976
    4SAPS  O13B  408   5.270   6.830  11.050 -0.2083 -0.4853  0.1313
    4SAPS   C11  409   5.115   6.585  10.939  0.2114 -0.2159 -0.6640
    4SAPS  H11A  410   5.075   6.558  11.039 -0.5717 -2.1173 -1.4477
    4SAPS  H11B  411   5.226   6.579  10.939  0.2384  0.2662  0.0466
    4SAPS     P  412   5.107   6.355  10.803 -0.4536 -0.3182  0.2654
    4SAPS   O13  413   5.148   6.285  10.925  0.0141  0.1675  0.2446
    4SAPS   O14  414   5.009   6.282  10.722  0.6212 -0.8073  0.2239
    4SAPS   O12  415   5.053   6.496  10.844  0.1548 -0.0305  0.1749
    4SAPS   O11  416   5.232   6.398  10.715 -0.0435  0.1094  0.5970
    4SAPS    C1  417   5.235   6.369  10.574  0.4279  0.2747 -0.4229
    4SAPS    HA  418   5.342   6.385  10.552  0.1026  2.7537 -0.4384
    4SAPS    HB  419   5.215   6.263  10.551 -1.3066  0.1554  1.4897
    4SAPS    C2  420   5.151   6.467  10.483  0.1147 -0.0246 -0.9519
    4SAPS    HS  421   5.043   6.442  10.493  0.3358 -0.5725  0.1600
    4SAPS   O21  422   5.203   6.456  10.342  0.2515  0.1934 -0.2924
    4SAPS   C21  423   5.164   6.342  10.273  0.0462  0.3933  0.6354
    4SAPS   O22  424   5.083   6.261  10.309 -0.3996  0.1578 -0.3405
    4SAPS   C22  425   5.246   6.328  10.140 -0.0168  0.1772 -0.3162
    4SAPS   H2R  426   5.234   6.429  10.097  1.1134  0.0308 -0.9932
    4SAPS   H2S  427   5.352   6.304  10.164  0.0828 -0.4241 -1.3243
    4SAPS    C3  428   5.188   6.617  10.521 -0.3112  0.6950 -0.3882
    4SAPS    HX  429   5.299   6.619  10.527 -0.4417  2.8589  2.7936
    4SAPS    HY  430   5.170   6.658  10.623  3.9844  0.6089  0.4744
    4SAPS   O31  431   5.137   6.713  10.423  0.7961 -0.1113  0.1763
    4SAPS   C31  432   5.012   6.724  10.417 -0.8753  0.0010  0.4394
    4SAPS   O32  433   4.931   6.678  10.494 -0.4691  0.5257 -0.5987
    4SAPS   C32  434   4.989   6.800  10.284 -0.2423  0.8204  0.2297
    4SAPS   H2X  435   4.927   6.890  10.303 -0.7664  0.4554  0.2628
    4SAPS   H2Y  436   4.938   6.726  10.218 -0.6338  2.4777 -1.3632
    4SAPS   C23  437   5.180   6.228  10.049 -0.0660 -0.4731 -0.5127
    4SAPS   H3R  438   5.075   6.255  10.024 -0.5498 -1.1600  0.6978
    4SAPS   H3S  439   5.172   6.126  10.093 -0.1776  0.1424  0.9356
    4SAPS   C24  440   5.264   6.210   9.923 -0.8256 -0.1754  0.0208
    4SAPS   H4R  441   5.367   6.177   9.948 -0.5128  0.4308 -0.4718
    4SAPS   H4S  442   5.271   6.306   9.869 -1.6671 -0.7148 -1.0725
    4SAPS   C25  443   5.205   6.103   9.830  0.0238  0.2775  0.1814
    4SAPS   H5R  444   5.215   6.004   9.878  0.3384 -0.6466 -1.7337
    4SAPS   C26  445   5.142   6.116   9.714 -0.9163 -0.2201  0.4610
    4SAPS   H6R  446   5.117   6.025   9.657 -3.6084  0.0347  1.1746
    4SAPS   C27  447   5.103   6.250   9.651 -0.1857 -0.0220 -0.5310
    4SAPS   H7R  448   5.196   6.284   9.600 -1.2119  2.2345 -0.9802
    4SAPS   H7S  449   5.081   6.322   9.733 -0.4007  0.5965 -1.1280
    4SAPS   C28  450   4.986   6.244   9.558  0.3882 -0.0293  0.2180
    4SAPS   H8R  451   4.888   6.261   9.605 -0.4585  1.1126 -1.8936
    4SAPS   C29  452   4.998   6.220   9.424 -0.2417 -0.1709  0.5507
    4SAPS   H9R  453   4.904   6.228   9.369  1.4788  2.8470 -2.1441
    4SAPS  C210  454   5.124   6.183   9.342 -0.7930  0.4987  0.7056
    4SAPS  H10R  455   5.217   6.221   9.387  0.7831 -0.9166 -1.2731
    4SAPS  H10S  456   5.127   6.240   9.247  0.1077 -0.6987  0.0001
    4SAPS  C211  457   5.127   6.029   9.327  0.0316 -1.1564 -0.5880
    4SAPS  H11R  458   5.088   5.976   9.415 -1.0791 -0.5618 -0.6996
    4SAPS  C212  459   5.180   5.956   9.226 -0.0484 -0.2961  0.3208
    4SAPS  H12R  460   5.180   5.846   9.231  0.2475 -0.3236 -0.2036
    4SAPS  C213  461   5.241   6.010   9.100  0.9412  0.6669  0.4035
    4SAPS  H13R  462   5.324   5.954   9.052  0.5197 -1.0898  1.6669
    4SAPS  H13S  463   5.282   6.110   9.126  0.2799  1.2882 -0.8894
    4SAPS  C214  464   5.126   6.032   8.998  0.4674  0.7498 -0.5600
    4SAPS  H14R  465   5.023   6.021   9.035  0.2150 -1.4246 -1.8368
    4SAPS  C215  466   5.142   6.035   8.868  0.5126 -0.0174  0.4663
    4SAPS  H15R  467   5.052   6.035   8.805  0.9418  0.0110 -0.1582
    4SAPS  C216  468   5.273   6.024   8.791 -0.2178 -0.7487  0.7084
    4SAPS  H16R  469   5.312   5.921   8.804  1.5228  0.0461  2.0086
    4SAPS  H16S  470   5.354   6.087   8.834  0.1036  0.1520 -1.1407
    4SAPS  C217  471   5.275   6.063   8.642 -0.1512  0.6906 -0.9521
    4SAPS  H17R  472   5.374   6.101   8.609  0.5972  2.4334  2.9494
    4SAPS  H17S  473   5.218   6.157   8.624 -0.9378  0.2007 -1.0452
    4SAPS  C218  474   5.234   5.946   8.547  0.2184  0.6081 -0.1269
    4SAPS  H18R  475   5.130   5.922   8.575  0.3551 -0.0042 -0.1280
    4SAPS  H18S  476   5.304   5.860   8.558 -1.9653 -0.9406  2.0650
    4SAPS  C219  477   5.238   5.976   8.396 -0.1788 -0.3182 -0.5198
    4SAPS  H19R  478   5.346   5.985   8.376 -0.5429 -0.4846 -2.6823
    4SAPS  H19S  479   5.185   6.071   8.371  0.1447 -0.1733 -0.6503
    4SAPS  C220  480   5.189   5.852   8.314  0.1526  0.1867  0.3780
    4SAPS  H20R  481   5.257   5.772   8.350 -1.9659 -1.5173  0.6706
    4SAPS  H20S  482   5.207   5.862   8.205  3.9446 -1.3917  0.7869
    4SAPS  H20T  483   5.082   5.827   8.329 -0.3790  1.2663 -1.3764
    4SAPS   C33  484   5.117   6.856  10.213 -0.0018 -0.4301 -0.1906
    4SAPS   H3X  485   5.198   6.780  10.209  0.5479  0.1135  0.3892
    4SAPS   H3Y  486   5.151   6.944  10.273 -1.5075 -0.8370  1.2883
    4SAPS   C34  487   5.086   6.924  10.077 -0.2104 -0.6262 -0.6937
    4SAPS   H4X  488   5.177   6.968  10.032 -1.5862  2.5617 -0.4655
    4SAPS   H4Y  489   5.006   7.000  10.090  0.1043 -0.3780 -0.1887
    4SAPS   C35  490   5.040   6.819   9.976 -0.5654  0.1000 -0.3715
    4SAPS   H5X  491   4.974   6.864   9.898 -1.9832 -0.9287  0.2042
    4SAPS   H5Y  492   4.967   6.751  10.024 -1.3169  1.5791  0.6158
    4SAPS   C36  493   5.136   6.723   9.912 -0.1015  0.5933 -0.0222
    4SAPS   H6X  494   5.182   6.665   9.995  1.2994  2.4282  0.5195
    4SAPS   H6Y  495   5.217   6.770   9.853  1.8349 -0.2178  1.9221
    4SAPS   C37  496   5.070   6.622   9.823  0.0656 -0.4128  1.0430
    4SAPS   H7X  497   5.007   6.554   9.883 -1.6698  0.3964  0.1795
    4SAPS   H7Y  498   5.158   6.567   9.784 -0.2716  0.9354 -1.7652
    4SAPS   C38  499   5.002   6.676   9.692  0.4475 -0.1141 -0.8484
    4SAPS   H8X  500   5.050   6.774   9.672  0.6826 -0.1136 -0.3128
    4SAPS   H8Y  501   4.896   6.694   9.721  0.4683 -1.5446  0.1861
    4SAPS   C39  502   5.003   6.584   9.573 -0.4163 -0.6413  0.6392
    4SAPS   H9X  503   4.941   6.495   9.597 -1.9751  0.6028  1.3546
    4SAPS   H9Y  504   5.103   6.547   9.543  0.5811  0.9181  1.9314
    4SAPS  C310  505   4.953   6.652   9.446  0.0461 -0.3522  0.6836
    4SAPS  H10X  506   5.004   6.749   9.425  0.2971 -0.5189  0.5202
    4SAPS  H10Y  507   4.844   6.665   9.458 -0.1231  0.1683 -1.3547
    4SAPS  C311  508   4.978   6.559   9.323 -0.5755 -0.5580 -0.9928
    4SAPS  H11X  509   4.928   6.459   9.329  0.4614 -0.9737  1.4215
    4SAPS  H11Y  510   5.087   6.538   9.314 -0.3061  0.6196 -0.4756
    4SAPS  C312  511   4.924   6.630   9.193 -0.1169 -0.3425 -0.3683
    4SAPS  H12X  512   4.955   6.736   9.184  2.0189 -0.9844 -0.8479
    4SAPS  H12Y  513   4.813   6.623   9.184 -0.3412  1.4945  0.9312
    4SAPS  C313  514   4.980   6.559   9.069  0.1333  0.1822 -0.0530
    4SAPS  H13X  515   5.088   6.538   9.089  0.6863  2.4321 -0.5269
    4SAPS  H13Y  516   4.985   6.640   8.993  2.5746  0.7106  0.6285
    4SAPS  C314  517   4.918   6.424   9.032 -0.6262 -0.3275  0.2646
    4SAPS  H14X  518   4.810   6.429   9.056 -1.2241 -0.6532 -2.2336
    4SAPS  H14Y  519   4.952   6.348   9.106  1.6338 -0.2280 -0.6084
    4SAPS  C315  520   4.955   6.362   8.889 -0.4057 -0.7636  0.3842
    4SAPS  H15X  521   5.055   6.318   8.909 -0.4472 -1.2216 -0.4012
    4SAPS  H15Y  522   4.963   6.440   8.810 -2.0135 -1.7631 -0.7969
    4SAPS  C316  523   4.844   6.258   8.854  0.7235 -0.3931  0.0473
    4SAPS  H16X  524   4.826   6.186   8.937 -1.2551  0.6456  0.5739
    4SAPS  H16Y  525   4.876   6.198   8.767 -1.8299 -1.0079 -0.5275
    4SAPS  C317  526   4.712   6.321   8.816  0.2537  0.1213  0.3979
    4SAPS  H17X  527   4.730   6.397   8.737 -0.4380  0.4031  0.5033
    4SAPS  H17Y  528   4.682   6.390   8.898  3.1192  0.7260  0.9733
    4SAPS  C318  529   4.586   6.229   8.793  0.3268 -0.6391  0.5778
    4SAPS  H18X  530   4.515   6.289   8.732  1.3879 -0.5988 -0.6396
    4SAPS  H18Y  531   4.536   6.203   8.889  0.1904  0.4601  0.8045
    4SAPS  H18Z  532   4.622   6.138   8.740 -0.2844 -1.4373  1.4957
    5SAPS     N  533   1.662   5.242  11.002  0.0740  0.5513  0.4603
    5SAPS   HN1  534   1.651   5.345  10.993 -2.7974  0.0761 -2.9423
    5SAPS   HN2  535   1.624   5.195  10.917 -0.0937  2.4363 -0.5234
    5SAPS   HN3  536   1.615   5.205  11.087  1.2937  0.8573  1.2840
    5SAPS   C12  537   1.804   5.211  11.007  0.0243 -0.4109  0.4617
    5SAPS  H12A  538   1.853   5.249  11.096  0.3569  0.3426 -0.0327
    5SAPS   C13  539   1.821   5.055  11.034 -0.1748  0.6429 -0.2216
    5SAPS  O13A  540   1.719   4.983  11.064 -0.3952  0.5902  0.1897
    5SAPS  O13B  541   1.933   5.006  11.012  0.4627  0.3687  0.0869
    5SAPS   C11  542   1.872   5.259  10.874 -0.8867 -0.7090  0.3859
    5SAPS  H11A  543   1.808   5.252  10.784 -0.1420  3.0867 -0.5357
    5SAPS  H11B  544   1.963   5.201  10.850  1.5948  3.0984  0.1632
    5SAPS     P  545   1.934   5.499  10.782 -0.0135 -0.2865  0.2719
    5SAPS   O13  546   1.807   5.512  10.707  0.3492  0.1755 -0.2673
    5SAPS   O14  547   1.981   5.626  10.849  0.0932  0.4191 -0.0221
    5SAPS   O12  548   1.921   5.388  10.891  0.1486  0.2976  0.8764
    5SAPS   O11  549   2.052   5.435  10.685  0.0045 -0.6533  0.2228
    5SAPS    C1  550   2.033   5.325  10.597 -0.3529  0.0810 -0.8128
    5SAPS    HA  551   2.087   5.236  10.636 -0.8155  0.2177  0.1348
    5SAPS    HB  552   1.927   5.294  10.591 -0.4075  0.4893 -2.2312
    5SAPS    C2  553   2.082   5.355  10.445 -0.1479  0.1306  0.3238
    5SAPS    HS  554   2.193   5.355  10.440 -0.0310  1.0214  2.2343
    5SAPS   O21  555   2.027   5.483  10.410 -0.1701 -0.1733 -0.2960
    5SAPS   C21  556   2.104   5.572  10.352  0.6707 -0.5125 -0.2186
    5SAPS   O22  557   2.214   5.554  10.322 -0.6351 -0.1134  0.1980
    5SAPS   C22  558   2.016   5.683  10.304  0.2457 -0.4911  0.5096
    5SAPS   H2R  559   1.922   5.637  10.265  0.0552  2.6173 -2.9491
    5SAPS   H2S  560   1.998   5.746  10.394  2.8415  1.7080 -0.4377
    5SAPS    C3  561   2.031   5.247  10.353 -0.0243  0.7852  0.8369
    5SAPS    HX  562   1.921   5.239  10.365  0.1922  0.0917  2.5688
    5SAPS    HY  563   2.071   5.148  10.384 -0.5833  0.3962  0.3212
    5SAPS   O31  564   2.063   5.273  10.210 -0.2171  0.1831 -0.1552
    5SAPS   C31  565   2.193   5.273  10.176 -0.4551  0.1357  0.1937
    5SAPS   O32  566   2.285   5.232  10.249  0.3778  0.2197 -0.0040
    5SAPS   C32  567   2.225   5.344  10.045  1.0602  0.5458 -0.3441
    5SAPS   H2X  568   2.334   5.364  10.043  1.4478 -0.9225  2.7698
    5SAPS   H2Y  569   2.161   5.435  10.048  0.5529  0.2090 -0.8382
    5SAPS   C23  570   2.077   5.779  10.201 -0.2431  0.8100  0.1933
    5SAPS   H3R  571   2.174   5.820  10.238  0.9113 -1.0853 -0.6470
    5SAPS   H3S  572   2.013   5.866  10.172  3.3266  3.9229  1.2132
    5SAPS   C24  573   2.136   5.715  10.071  0.6286  0.5511  0.2003
    5SAPS   H4R  574   2.214   5.637  10.086  0.1902  0.4004  1.8171
    5SAPS   H4S  575   2.196   5.793  10.020  1.6751  0.0915  0.7088
    5SAPS   C25  576   2.036   5.644   9.985 -0.4424  0.3600  0.2656
    5SAPS   H5R  577   1.969   5.578  10.042  0.8490 -0.4133  0.8913
    5SAPS   C26  578   2.025   5.647   9.853 -1.0555  0.2105  0.2047
    5SAPS   H6R  579   1.943   5.587   9.812 -1.4210 -2.5692  4.7445
    5SAPS   C27  580   2.103   5.724   9.753  0.6560  0.1559 -0.2174
    5SAPS   H7R  581   2.165   5.654   9.693  2.9827  1.6653  0.3426
    5SAPS   H7S  582   2.173   5.802   9.790 -0.5344  1.3845 -0.4995
    5SAPS   C28  583   2.004   5.793   9.664 -0.8608 -0.6338 -0.0124
    5SAPS   H8R  584   1.959   5.882   9.711  1.6208  0.5157  0.2547
    5SAPS   C29  585   1.978   5.778   9.536  0.2407  0.6601  0.0123
    5SAPS   H9R  586   1.901   5.842   9.489 -0.5408  0.4864  1.0360
    5SAPS  C210  587   2.037   5.677   9.440  1.1807 -0.1176 -0.4523
    5SAPS  H10R  588   1.963   5.637   9.368  1.4163  1.1134 -1.3952
    5SAPS  H10S  589   2.069   5.589   9.500 -0.7769  0.5158  1.5811
    5SAPS  C211  590   2.148   5.727   9.350  0.3788 -0.2044 -0.3271
    5SAPS  H11R  591   2.245   5.751   9.396 -0.1326  0.7055  0.2824
    5SAPS  C212  592   2.135   5.755   9.221 -0.4510 -0.3114 -0.3347
    5SAPS  H12R  593   2.217   5.800   9.163 -1.3895 -1.1320 -2.3516
    5SAPS  C213  594   2.013   5.748   9.132  0.8132 -0.7000 -0.0439
    5SAPS  H13R  595   1.986   5.842   9.079  0.6182 -0.3613  0.6582
    5SAPS  H13S  596   1.928   5.726   9.200 -1.1677 -1.0531 -2.5660
    5SAPS  C214  597   2.018   5.633   9.043  0.2298  0.3734  0.0163
    5SAPS  H14R  598   2.062   5.548   9.096  0.3642  1.4443  1.6609
    5SAPS  C215  599   2.018   5.637   8.910 -0.1567 -0.1462  0.1305
    5SAPS  H15R  600   1.993   5.542   8.860 -0.2771  0.8925 -1.8293
    5SAPS  C216  601   2.010   5.762   8.825  0.7671  0.8083 -0.1313
    5SAPS  H16R  602   2.100   5.760   8.761  0.3951 -1.4898 -0.6458
    5SAPS  H16S  603   2.023   5.855   8.885  0.3847  1.8595 -1.6676
    5SAPS  C217  604   1.885   5.784   8.739  0.3624  0.5847  0.5092
    5SAPS  H17R  605   1.793   5.783   8.800  1.2791  1.1785  1.9124
    5SAPS  H17S  606   1.877   5.694   8.674 -2.3809 -0.6028  2.4016
    5SAPS  C218  607   1.903   5.904   8.644 -0.1857 -0.2779  0.2141
    5SAPS  H18R  608   1.913   5.999   8.701 -0.1058  1.3752 -2.4997
    5SAPS  H18S  609   2.006   5.895   8.603 -0.6081 -0.1663 -0.8707
    5SAPS  C219  610   1.786   5.937   8.547 -0.8164  0.6083 -0.4029
    5SAPS  H19R  611   1.806   6.045   8.530  1.7430  0.3376  0.5760
    5SAPS  H19S  612   1.684   5.928   8.591  0.2803 -0.4788  2.0031
    5SAPS  C220  613   1.781   5.872   8.404  0.2533  0.0344 -0.3031
    5SAPS  H20R  614   1.785   5.761   8.401  1.2073  0.0536  0.2508
    5SAPS  H20S  615   1.867   5.909   8.345 -0.2527 -0.7454 -1.5597
    5SAPS  H20T  616   1.696   5.908   8.342  0.6575 -0.5508 -1.2084
    5SAPS   C33  617   2.184   5.266   9.924  0.6796  0.5403  0.1583
    5SAPS   H3X  618   2.075   5.253   9.910  0.5815  1.2699  0.1880
    5SAPS   H3Y  619   2.227   5.164   9.916 -0.5832 -0.0711  0.9530
    5SAPS   C34  620   2.238   5.338   9.798 -0.2156 -0.7405 -0.1003
    5SAPS   H4X  621   2.348   5.353   9.803 -0.4985  1.4632 -0.0838
    5SAPS   H4Y  622   2.189   5.437   9.788  1.7422  0.4273  1.5047
    5SAPS   C35  623   2.196   5.253   9.681 -0.2928  0.4592  0.2457
    5SAPS   H5X  624   2.086   5.260   9.666  0.0450  1.3850 -2.1550
    5SAPS   H5Y  625   2.222   5.147   9.699  1.9397  1.1177  1.0967
    5SAPS   C36  626   2.246   5.310   9.552 -0.2531 -0.9764  0.0139
    5SAPS   H6X  627   2.357   5.298   9.545  0.0048  0.1104  1.9586
    5SAPS   H6Y  628   2.218   5.417   9.548  1.3653 -0.4438  1.7768
    5SAPS   C37  629   2.189   5.244   9.425 -0.2261  0.1895  0.3266
    5SAPS   H7X  630   2.079   5.229   9.430 -0.6413  2.4840 -1.3993
    5SAPS   H7Y  631   2.230   5.140   9.420 -0.6106  0.0518 -0.0093
    5SAPS   C38  632   2.234   5.320   9.298 -0.1448 -0.7378 -0.3106
    5SAPS   H8X  633   2.342   5.347   9.307  0.0415 -1.9155  1.3520
    5SAPS   H8Y  634   2.178   5.416   9.293 -0.1780 -0.7098  0.4817
    5SAPS   C39  635   2.200   5.246   9.168  0.3747 -0.2519  0.6158
    5SAPS   H9X  636   2.089   5.235   9.162  0.4924 -1.7056  0.7379
    5SAPS   H9Y  637   2.242   5.143   9.168  0.4421 -0.2297 -0.4666
    5SAPS  C310  638   2.252   5.306   9.038 -0.2953 -0.1442 -0.6974
    5SAPS  H10X  639   2.219   5.411   9.026 -0.0349  0.0611  0.3410
    5SAPS  H10Y  640   2.226   5.231   8.960  1.1978 -1.4979  0.0761
    5SAPS  C311  641   2.403   5.314   9.029  0.3259  0.0399 -0.4659
    5SAPS  H11X  642   2.460   5.220   9.044  2.9207  1.7421  0.9334
    5SAPS  H11Y  643   2.432   5.373   9.119 -0.5023 -0.5278  0.1818
    5SAPS  C312  644   2.449   5.376   8.904  0.9212  0.7337 -0.1312
    5SAPS  H12X  645   2.423   5.484   8.900  0.9975  0.6932 -2.3307
    5SAPS  H12Y  646   2.397   5.335   8.815 -1.6884  1.2206  1.1078
    5SAPS  C313  647   2.600   5.340   8.891  0.2401 -0.2815 -0.5363
    5SAPS  H13X  648   2.608   5.229   8.886  0.7146 -0.5522  3.8611
    5SAPS  H13Y  649   2.653   5.365   8.986  0.8879 -2.0425 -0.4197
    5SAPS  C314  650   2.675   5.425   8.787 -0.6826 -0.4276  0.2393
    5SAPS  H14X  651   2.782   5.395   8.792 -0.3557  0.8290  0.7688
    5SAPS  H14Y  652   2.667   5.533   8.808 -1.8362  0.3031 -3.6407
    5SAPS  C315  653   2.626   5.400   8.647 -0.0214 -0.9367 -0.4978
    5SAPS  H15X  654   2.516   5.414   8.652  0.5168  3.2496  1.6228
    5SAPS  H15Y  655   2.645   5.295   8.615  2.9061 -0.1217 -1.5866
    5SAPS  C316  656   2.693   5.502   8.547  0.3221  0.2963 -0.2092
    5SAPS  H16X  657   2.693   5.608   8.578  0.5053  0.3337 -0.3411
    5SAPS  H16Y  658   2.625   5.490   8.459  1.2129 -1.5648 -0.6679
    5SAPS  C317  659   2.839   5.464   8.508  0.5798 -0.8573 -0.0480
    5SAPS  H17X  660   2.839   5.353   8.507 -3.9119 -0.9678 -2.0120
    5SAPS  H17Y  661   2.906   5.490   8.592  0.5926  0.3758 -0.4287
    5SAPS  C318  662   2.888   5.531   8.382  0.2069 -0.8601  0.5842
    5SAPS  H18X  663   2.999   5.537   8.383  0.1597  0.0145  1.9986
    5SAPS  H18Y  664   2.856   5.637   8.378 -0.3770 -1.0823 -0.8869
    5SAPS  H18Z  665   2.861   5.480   8.287 -0.5860  0.0764  0.2956
    6SAPS     N  666   1.201   4.641  10.976 -0.1229  0.3959  0.4505
    6SAPS   HN1  667   1.173   4.596  11.066  0.2023  0.2269  0.4701
    6SAPS   HN2  668   1.132   4.621  10.901  0.8105  1.0635 -0.6017
    6SAPS   HN3  669   1.282   4.579  10.954 -2.3636 -2.2046 -0.7721
    6SAPS   C12  670   1.221   4.786  10.993 -0.3586  0.2800  0.9901
    6SAPS  H12A  671   1.128   4.837  11.014 -2.3456 -2.8955  0.2396
    6SAPS   C13  672   1.314   4.821  11.115 -0.4879  0.1140 -0.3353
    6SAPS  O13A  673   1.364   4.733  11.189  0.5902  0.0247 -0.4964
    6SAPS  O13B  674   1.325   4.944  11.134  0.1379  0.0491 -0.0748
    6SAPS   C11  675   1.297   4.839  10.877 -0.0488 -0.0151  0.0828
    6SAPS  H11A  676   1.396   4.792  10.859  0.0537  0.5477 -0.8505
    6SAPS  H11B  677   1.328   4.945  10.888 -0.4115 -0.0312  1.3502
    6SAPS     P  678   1.291   4.840  10.615  0.0541  0.2647 -0.0786
    6SAPS   O13  679   1.182   4.812  10.519  0.9565 -0.3436 -0.3555
    6SAPS   O14  680   1.356   4.972  10.609 -1.0115 -0.4053  0.6291
    6SAPS   O12  681   1.224   4.819  10.756  0.3256  0.4349  0.1372
    6SAPS   O11  682   1.396   4.717  10.598 -0.6767  0.2029  0.2692
    6SAPS    C1  683   1.354   4.583  10.610 -0.2093  0.1027 -0.4003
    6SAPS    HA  684   1.394   4.529  10.698  0.3410  0.8382 -0.1929
    6SAPS    HB  685   1.245   4.571  10.627 -0.0480  0.6971  1.1137
    6SAPS    C2  686   1.398   4.511  10.481  0.4355 -0.3957 -0.8719
    6SAPS    HS  687   1.503   4.526  10.447  0.7633  2.2288  1.1811
    6SAPS   O21  688   1.306   4.548  10.376  0.2431 -0.1553 -0.2219
    6SAPS   C21  689   1.351   4.626  10.284 -0.0613  0.0646  0.7765
    6SAPS   O22  690   1.468   4.642  10.261 -0.2084 -0.5608 -0.1024
    6SAPS   C22  691   1.237   4.677  10.191  0.1341  0.6925 -0.0093
    6SAPS   H2R  692   1.197   4.596  10.127 -0.8260  0.5104  0.8149
    6SAPS   H2S  693   1.160   4.730  10.249  0.2984 -0.2307  1.0662
    6SAPS    C3  694   1.366   4.357  10.494 -0.4130  0.4901 -0.4645
    6SAPS    HX  695   1.272   4.345  10.552 -0.8441  1.8757 -0.8559
    6SAPS    HY  696   1.434   4.320  10.574  0.2425 -1.5023 -1.9124
    6SAPS   O31  697   1.364   4.282  10.368  0.2178 -0.0193  0.0200
    6SAPS   C31  698   1.468   4.220  10.345 -0.2283  0.9109  0.4536
    6SAPS   O32  699   1.579   4.232  10.401  0.4299  0.0917 -0.0824
    6SAPS   C32  700   1.445   4.129  10.226  1.0669  0.7779 -0.1250
    6SAPS   H2X  701   1.339   4.135  10.194  0.3230 -1.9751  1.6080
    6SAPS   H2Y  702   1.460   4.031  10.277  1.5443  0.9040 -0.0215
    6SAPS   C23  703   1.290   4.769  10.078 -0.1683  0.0071 -0.4853
    6SAPS   H3R  704   1.213   4.777   9.998  0.4915  2.4825 -0.9240
    6SAPS   H3S  705   1.381   4.725  10.033  0.4021  1.3453 -0.6821
    6SAPS   C24  706   1.318   4.911  10.127  0.3039 -0.1441  0.7841
    6SAPS   H4R  707   1.401   4.946  10.061  0.5127 -0.1083  1.0660
    6SAPS   H4S  708   1.383   4.917  10.217  1.9322 -0.9687 -0.2967
    6SAPS   C25  709   1.202   5.013  10.127  0.4212  0.2027 -0.7529
    6SAPS   H5R  710   1.120   4.985  10.194 -0.2392 -1.7899 -2.3562
    6SAPS   C26  711   1.201   5.122  10.050  0.0746  0.6523 -0.7434
    6SAPS   H6R  712   1.110   5.183  10.059 -0.3460 -0.2710  1.6149
    6SAPS   C27  713   1.295   5.162   9.944 -0.6154 -0.7018 -0.2694
    6SAPS   H7R  714   1.328   5.079   9.879  0.2566 -0.1576 -0.5290
    6SAPS   H7S  715   1.390   5.205   9.982 -1.0370  1.8558 -1.9550
    6SAPS   C28  716   1.246   5.270   9.853  0.2477 -0.0056  0.6681
    6SAPS   H8R  717   1.209   5.363   9.900  0.9082  1.4690 -1.6822
    6SAPS   C29  718   1.233   5.266   9.721  0.3067  0.5070 -0.0619
    6SAPS   H9R  719   1.176   5.349   9.674 -1.2421  0.2117  1.2599
    6SAPS  C210  720   1.265   5.146   9.634 -0.2562 -0.5586  0.3328
    6SAPS  H10R  721   1.184   5.071   9.647 -1.7696  0.6983 -1.5245
    6SAPS  H10S  722   1.357   5.100   9.675  0.6855  2.5665  1.9322
    6SAPS  C211  723   1.302   5.161   9.488 -0.3903 -0.7116 -0.1704
    6SAPS  H11R  724   1.409   5.138   9.474  0.0445  0.8432  0.4974
    6SAPS  C212  725   1.227   5.213   9.393 -0.3635 -0.5722 -0.1089
    6SAPS  H12R  726   1.269   5.215   9.291 -1.1471 -2.6058 -0.5085
    6SAPS  C213  727   1.085   5.268   9.393 -0.0339 -0.3004  0.1976
    6SAPS  H13R  728   1.018   5.209   9.460  0.3343 -1.3033 -0.3051
    6SAPS  H13S  729   1.036   5.254   9.294 -1.3268 -4.2031  1.2955
    6SAPS  C214  730   1.093   5.414   9.442 -0.0112  0.5194  0.4042
    6SAPS  H14R  731   1.059   5.420   9.546 -1.9037 -0.0739 -0.1608
    6SAPS  C215  732   1.135   5.520   9.376  0.4157 -0.0162  0.1231
    6SAPS  H15R  733   1.124   5.616   9.429 -2.2403  0.9885 -2.0981
    6SAPS  C216  734   1.178   5.508   9.233  0.0298  0.0699  0.2553
    6SAPS  H16R  735   1.213   5.405   9.211 -0.6858 -0.1438  0.1025
    6SAPS  H16S  736   1.255   5.585   9.211 -1.9851  1.6265 -1.6113
    6SAPS  C217  737   1.059   5.537   9.126  0.8746  0.7305  0.7071
    6SAPS  H17R  738   1.016   5.630   9.168 -2.1858 -0.6715  0.8555
    6SAPS  H17S  739   0.977   5.467   9.150  2.1876 -1.7136 -1.6227
    6SAPS  C218  740   1.075   5.553   8.972 -0.2130 -0.7459  0.2119
    6SAPS  H18R  741   1.147   5.637   8.960 -0.5534  0.0006  3.1311
    6SAPS  H18S  742   0.978   5.569   8.920  1.9203  2.7994 -2.9835
    6SAPS  C219  743   1.137   5.423   8.921  0.0089  0.8211  0.2535
    6SAPS  H19R  744   1.065   5.346   8.957  0.1517  0.3196 -0.5176
    6SAPS  H19S  745   1.226   5.402   8.984 -0.6688  0.3899  1.0808
    6SAPS  C220  746   1.170   5.412   8.764 -0.1248  0.1193  0.4425
    6SAPS  H20R  747   1.203   5.308   8.743 -1.3871  0.4421 -3.3644
    6SAPS  H20S  748   1.255   5.482   8.750 -0.5918  0.7883  0.8862
    6SAPS  H20T  749   1.088   5.434   8.694  0.6155 -0.1825 -0.5268
    6SAPS   C33  750   1.544   4.156  10.110  0.1364  0.2939  0.2252
    6SAPS   H3X  751   1.535   4.069  10.043  1.8237  0.0421  0.2911
    6SAPS   H3Y  752   1.649   4.177  10.142 -0.0929  2.1674 -0.1771
    6SAPS   C34  753   1.508   4.274  10.020  0.3047  0.7535 -0.4700
    6SAPS   H4X  754   1.570   4.297   9.931 -1.3373  0.6503 -1.6631
    6SAPS   H4Y  755   1.509   4.368  10.079 -0.2218  1.0520 -0.9335
    6SAPS   C35  756   1.370   4.271   9.955  0.0260 -0.1027  0.7710
    6SAPS   H5X  757   1.280   4.267  10.020 -2.7133  1.0680 -2.7970
    6SAPS   H5Y  758   1.365   4.176   9.897  1.0561 -0.2877  0.9709
    6SAPS   C36  759   1.351   4.405   9.859  0.0723  0.1945 -0.3057
    6SAPS   H6X  760   1.432   4.404   9.783  0.5893 -0.0210  0.2361
    6SAPS   H6Y  761   1.362   4.492   9.927  1.8231  1.0651 -1.6686
    6SAPS   C37  762   1.214   4.419   9.789 -0.8305  0.5472 -0.3026
    6SAPS   H7X  763   1.226   4.515   9.735  0.7914 -0.0687 -1.0861
    6SAPS   H7Y  764   1.134   4.436   9.864  1.4363 -2.5429  2.9862
    6SAPS   C38  765   1.175   4.297   9.704 -0.0328 -0.1967  0.4305
    6SAPS   H8X  766   1.130   4.212   9.759  1.3856 -0.3508  1.3981
    6SAPS   H8Y  767   1.271   4.258   9.666  1.1662  4.0408 -1.1986
    6SAPS   C39  768   1.085   4.325   9.574  0.7660  0.2205  0.1460
    6SAPS   H9X  769   0.992   4.379   9.604  0.5416  0.2135 -0.5329
    6SAPS   H9Y  770   1.057   4.226   9.533 -1.8627  0.4245  1.2767
    6SAPS  C310  771   1.142   4.400   9.456  0.4684  0.1659 -0.4299
    6SAPS  H10X  772   1.186   4.495   9.493 -0.7478  0.6407 -0.1958
    6SAPS  H10Y  773   1.055   4.432   9.395 -1.1523  0.3996  1.9283
    6SAPS  C311  774   1.240   4.322   9.360  0.6145 -0.4974 -0.5502
    6SAPS  H11X  775   1.189   4.239   9.308 -0.4564 -0.3827  0.2952
    6SAPS  H11Y  776   1.321   4.278   9.422  0.6187  0.1966 -0.0424
    6SAPS  C312  777   1.319   4.405   9.256  0.5888  0.2688  1.1167
    6SAPS  H12X  778   1.406   4.341   9.229 -0.1482 -0.7417  1.0707
    6SAPS  H12Y  779   1.351   4.501   9.301 -1.7002  1.2207  0.7812
    6SAPS  C313  780   1.234   4.417   9.122  0.2148 -0.1465  0.2844
    6SAPS  H13X  781   1.153   4.488   9.149  0.3346 -0.7851  2.4465
    6SAPS  H13Y  782   1.180   4.322   9.104 -0.9412  0.6640 -0.6142
    6SAPS  C314  783   1.316   4.464   9.009 -0.5200 -0.8048 -0.1374
    6SAPS  H14X  784   1.394   4.389   8.987  0.5945  0.8818 -2.1860
    6SAPS  H14Y  785   1.369   4.559   9.033 -1.0809 -0.5380  0.0648
    6SAPS  C315  786   1.222   4.486   8.888  0.5260  0.0177  0.7609
    6SAPS  H15X  787   1.158   4.569   8.924  1.9013  1.3079  0.2683
    6SAPS  H15Y  788   1.158   4.395   8.879  1.8215 -0.8783  0.4989
    6SAPS  C316  789   1.287   4.522   8.757 -0.5567  0.8583 -0.0198
    6SAPS  H16X  790   1.346   4.435   8.720 -1.2634 -0.0565  0.9461
    6SAPS  H16Y  791   1.361   4.604   8.763  1.2686 -0.7846  0.5829
    6SAPS  C317  792   1.193   4.561   8.641  0.8678  0.3097 -0.3649
    6SAPS  H17X  793   1.143   4.468   8.609 -1.0488  0.8734  0.9057
    6SAPS  H17Y  794   1.251   4.602   8.555  1.0959  3.1912  1.0993
    6SAPS  C318  795   1.092   4.666   8.670  0.2716  0.1010 -0.1432
    6SAPS  H18X  796   1.143   4.749   8.722  0.0654 -0.3248  0.7549
    6SAPS  H18Y  797   1.018   4.628   8.745 -1.8569 -1.9239 -3.1485
    6SAPS  H18Z  798   1.035   4.711   8.586 -0.8584  2.7901  2.0059
    7SAPS     N  799   3.334   6.104  10.747 -0.0281 -0.3647 -0.5373
    7SAPS   HN1  800   3.354   6.004  10.769 -1.2503  0.1647  3.5554
    7SAPS   HN2  801   3.316   6.105  10.645 -0.2889  0.6113 -0.4795
    7SAPS   HN3  802   3.410   6.167  10.780  0.8531 -0.5516 -2.1522
    7SAPS   C12  803   3.209   6.132  10.819 -0.3221 -0.3246 -0.7685
    7SAPS  H12A  804   3.128   6.074  10.776  0.6362 -1.6694 -0.7795
    7SAPS   C13  805   3.210   6.112  10.974 -0.4439 -0.3811 -0.0200
    7SAPS  O13A  806   3.304   6.067  11.037  0.3455  0.5019  0.4020
    7SAPS  O13B  807   3.099   6.121  11.036  0.2627  0.2553 -0.2594
    7SAPS   C11  808   3.181   6.286  10.799 -0.5393 -0.0415  0.2216
    7SAPS  H11A  809   3.097   6.312  10.868  0.1354 -1.2059  1.5086
    7SAPS  H11B  810   3.146   6.306  10.696  1.7713  1.1002 -0.3930
    7SAPS     P  811   3.333   6.502  10.764  0.1510  0.0822 -0.0209
    7SAPS   O13  812   3.235   6.606  10.806 -0.1505 -0.7622  0.2405
    7SAPS   O14  813   3.478   6.526  10.799 -0.2524 -0.3895  0.0925
    7SAPS   O12  814   3.297   6.373  10.834 -0.0202  0.9400 -0.2904
    7SAPS   O11  815   3.303   6.477  10.611 -0.1347 -0.0975 -0.0160
    7SAPS    C1  816   3.400   6.431  10.509 -0.2851  0.8094  0.3304
    7SAPS    HA  817   3.443   6.330  10.527 -2.7056 -0.4549 -0.6492
    7SAPS    HB  818   3.338   6.410  10.419  0.3276 -1.9194  0.4776
    7SAPS    C2  819   3.491   6.545  10.467  0.4367 -0.5785  1.0848
    7SAPS    HS  820   3.545   6.590  10.554 -0.2597 -1.0759  1.7787
    7SAPS   O21  821   3.419   6.645  10.395  0.5015  0.0234  0.4629
    7SAPS   C21  822   3.462   6.769  10.404  0.6407 -0.9187 -0.5372
    7SAPS   O22  823   3.560   6.805  10.465  0.0585 -0.2358  0.2040
    7SAPS   C22  824   3.376   6.858  10.316  0.0652 -0.6868 -0.1050
    7SAPS   H2R  825   3.437   6.902  10.234 -0.8649  3.1331  1.1301
    7SAPS   H2S  826   3.285   6.801  10.289 -0.5907  0.5117 -0.4715
    7SAPS    C3  827   3.604   6.487  10.370 -0.1450  0.4825 -0.1857
    7SAPS    HX  828   3.668   6.420  10.432 -3.0010 -0.9357  1.3288
    7SAPS    HY  829   3.668   6.574  10.344  0.0962  0.3494 -0.0333
    7SAPS   O31  830   3.558   6.434  10.245  0.0415 -0.1452 -0.7459
    7SAPS   C31  831   3.555   6.304  10.225 -0.3005  0.3393  0.0995
    7SAPS   O32  832   3.562   6.220  10.318 -0.3012 -0.9821 -0.8538
    7SAPS   C32  833   3.531   6.285  10.079  0.3230  0.0976 -0.2977
    7SAPS   H2X  834   3.617   6.326  10.022 -1.9476  0.9062 -3.2633
    7SAPS   H2Y  835   3.446   6.347  10.042  1.5963  1.0066 -1.7819
    7SAPS   C23  836   3.321   6.972  10.398  0.0489  0.2702  0.1503
    7SAPS   H3R  837   3.398   7.047  10.425 -0.5185  1.0228 -0.2689
    7SAPS   H3S  838   3.289   6.945  10.501  2.3783 -0.7823  0.6117
    7SAPS   C24  839   3.195   7.038  10.338 -0.4740 -0.4202 -0.3102
    7SAPS   H4R  840   3.222   7.081  10.239 -1.4079 -0.7968 -0.7385
    7SAPS   H4S  841   3.171   7.124  10.403 -1.4115  0.1671 -1.4063
    7SAPS   C25  842   3.074   6.952  10.329 -0.1342  0.4715 -0.0382
    7SAPS   H5R  843   3.048   6.894  10.419  1.1790 -0.9967 -0.5726
    7SAPS   C26  844   3.010   6.916  10.220  0.1432  0.2395 -0.2922
    7SAPS   H6R  845   2.923   6.850  10.232 -0.4531  0.9681 -0.6215
    7SAPS   C27  846   3.043   6.960  10.078 -0.6654 -0.3516 -0.3134
    7SAPS   H7R  847   3.060   7.069  10.085 -2.3895 -0.0884  0.0560
    7SAPS   H7S  848   2.955   6.950  10.011 -1.0543  0.3094  0.0982
    7SAPS   C28  849   3.166   6.889  10.010  0.2207  0.8951  0.0179
    7SAPS   H8R  850   3.212   6.808  10.068  2.1400  2.9794  1.4938
    7SAPS   C29  851   3.185   6.907   9.873 -0.3443  0.6536  0.3716
    7SAPS   H9R  852   3.276   6.863   9.831 -0.8607 -2.8424  2.6909
    7SAPS  C210  853   3.097   6.998   9.784 -0.4032  0.1839 -0.0427
    7SAPS  H10R  854   3.166   7.033   9.703 -1.1569  0.9107 -0.3752
    7SAPS  H10S  855   3.068   7.090   9.840 -2.5570  1.0714 -2.5110
    7SAPS  C211  856   2.986   6.915   9.723  0.3981  0.3586 -0.0496
    7SAPS  H11R  857   2.910   6.888   9.798 -1.4644  0.4337 -1.8819
    7SAPS  C212  858   2.975   6.868   9.591  0.5316  0.5612 -0.2284
    7SAPS  H12R  859   2.890   6.804   9.564  1.0207 -1.2081  2.3037
    7SAPS  C213  860   3.069   6.899   9.477  0.5425  0.5720 -0.1990
    7SAPS  H13R  861   3.105   7.003   9.466  0.2136  0.5577 -1.5434
    7SAPS  H13S  862   3.020   6.876   9.380  0.6725  1.8606 -0.5787
    7SAPS  C214  863   3.187   6.811   9.457 -0.5186 -0.4290  0.0658
    7SAPS  H14R  864   3.226   6.757   9.545  2.9812 -0.0710 -1.1702
    7SAPS  C215  865   3.261   6.807   9.347  0.0680  0.3936  0.1575
    7SAPS  H15R  866   3.346   6.737   9.348  1.3813  1.9766  2.3443
    7SAPS  C216  867   3.245   6.872   9.212 -1.1229 -0.6474  0.3437
    7SAPS  H16R  868   3.331   6.940   9.193 -1.6416 -0.4310 -1.2440
    7SAPS  H16S  869   3.154   6.935   9.209 -1.4637 -1.2340 -3.3426
    7SAPS  C217  870   3.240   6.780   9.092  0.5086  0.3837  0.0305
    7SAPS  H17R  871   3.146   6.721   9.098  0.3170  0.8535  2.0774
    7SAPS  H17S  872   3.334   6.721   9.091  0.1383 -0.2179  0.5639
    7SAPS  C218  873   3.217   6.846   8.951  0.0664  0.2417  0.0777
    7SAPS  H18R  874   3.290   6.927   8.930 -1.6061  2.1757  1.4755
    7SAPS  H18S  875   3.114   6.888   8.950 -0.7243 -1.6218  1.1738
    7SAPS  C219  876   3.232   6.757   8.832 -0.0048 -0.6218 -0.3541
    7SAPS  H19R  877   3.153   6.680   8.834  0.3112 -0.9451  1.8997
    7SAPS  H19S  878   3.327   6.699   8.841  0.0932 -0.4550 -0.3061
    7SAPS  C220  879   3.232   6.830   8.699  0.1396  0.2840  0.1076
    7SAPS  H20R  880   3.285   6.767   8.624  1.4776 -0.0792  1.3357
    7SAPS  H20S  881   3.274   6.933   8.703  0.2122  0.2202  1.0758
    7SAPS  H20T  882   3.132   6.844   8.652  0.9696  3.6688 -0.8028
    7SAPS   C33  883   3.508   6.137  10.044  0.0725  0.5109  0.6054
    7SAPS   H3X  884   3.410   6.098  10.080 -0.2057  3.2990  3.0846
    7SAPS   H3Y  885   3.598   6.088  10.088 -0.0599  0.3610  0.7093
    7SAPS   C34  886   3.508   6.109   9.891 -0.2975  0.4304 -0.3341
    7SAPS   H4X  887   3.602   6.152   9.850 -1.1210  2.2432 -0.3773
    7SAPS   H4Y  888   3.425   6.158   9.835 -1.7081 -1.0046  0.4493
    7SAPS   C35  889   3.505   5.963   9.847  0.0981 -0.8949 -0.3380
    7SAPS   H5X  890   3.405   5.919   9.870 -0.1824  0.0153  0.1994
    7SAPS   H5Y  891   3.582   5.893   9.889  2.1765  1.3615 -0.2833
    7SAPS   C36  892   3.511   5.955   9.693 -0.2632  0.0488  0.7809
    7SAPS   H6X  893   3.510   5.846   9.670  0.7957  0.1975  0.0142
    7SAPS   H6Y  894   3.598   5.998   9.641  1.5029 -0.6487  3.0877
    7SAPS   C37  895   3.382   6.005   9.622 -0.1734 -0.5505  0.3774
    7SAPS   H7X  896   3.379   6.114   9.604  0.5118 -0.3871  1.2150
    7SAPS   H7Y  897   3.295   5.974   9.683 -0.6152 -2.2635 -1.0614
    7SAPS   C38  898   3.366   5.934   9.485 -0.5438  0.8425  0.3347
    7SAPS   H8X  899   3.271   5.959   9.434 -0.9035  1.2825  1.2107
    7SAPS   H8Y  900   3.348   5.825   9.498 -1.1592  0.9649  0.5379
    7SAPS   C39  901   3.478   5.962   9.386 -0.4381  0.0227  0.2037
    7SAPS   H9X  902   3.566   5.910   9.430  0.2260  0.7055 -0.3079
    7SAPS   H9Y  903   3.504   6.069   9.397  0.6088 -0.0950 -1.0414
    7SAPS  C310  904   3.443   5.929   9.242 -0.1864  0.5067 -0.1079
    7SAPS  H10X  905   3.357   5.994   9.214 -1.9911 -1.5193  0.6050
    7SAPS  H10Y  906   3.402   5.828   9.222 -0.7941  0.5113  1.0546
    7SAPS  C311  907   3.561   5.957   9.151  0.6101  0.0122 -0.4667
    7SAPS  H11X  908   3.537   5.904   9.056 -0.8606  1.6583 -1.0520
    7SAPS  H11Y  909   3.656   5.917   9.192  0.3697  0.5916  0.6776
    7SAPS  C312  910   3.586   6.105   9.113  0.0178 -0.0463 -0.3044
    7SAPS  H12X  911   3.603   6.169   9.202  0.1249 -0.2154 -0.2004
    7SAPS  H12Y  912   3.502   6.154   9.061 -0.3768 -0.3659  0.0244
    7SAPS  C313  913   3.720   6.108   9.031  0.9539 -0.0884 -1.0193
    7SAPS  H13X  914   3.795   6.063   9.099 -3.4575 -0.5645  3.8719
    7SAPS  H13Y  915   3.743   6.216   9.032 -0.9487  0.3967  3.4477
    7SAPS  C314  916   3.720   6.064   8.886 -0.0601 -0.0353 -0.4514
    7SAPS  H14X  917   3.669   5.966   8.877 -0.9842  0.4023 -0.0760
    7SAPS  H14Y  918   3.825   6.042   8.861  0.3540 -0.8910  1.8844
    7SAPS  C315  919   3.659   6.173   8.787 -0.2007 -0.1648  0.2934
    7SAPS  H15X  920   3.731   6.257   8.780  1.9389 -1.8768  1.2612
    7SAPS  H15Y  921   3.565   6.215   8.828 -0.0134 -0.1102  0.6703
    7SAPS  C316  922   3.619   6.121   8.653  0.3410  0.8753  0.3925
    7SAPS  H16X  923   3.544   6.041   8.638 -2.1837  3.2149  0.2883
    7SAPS  H16Y  924   3.712   6.079   8.609 -1.5113 -0.3540 -2.5029
    7SAPS  C317  925   3.561   6.242   8.571 -0.2240  0.0206  0.5127
    7SAPS  H17X  926   3.631   6.326   8.589  0.0289 -0.4346  1.7101
    7SAPS  H17Y  927   3.461   6.269   8.612  0.5766  2.2860  1.0025
    7SAPS  C318  928   3.573   6.216   8.421 -0.3037 -0.2311  0.4262
    7SAPS  H18X  929   3.559   6.308   8.361  0.5990  0.9363  1.9596
    7SAPS  H18Y  930   3.493   6.144   8.392 -0.7295  0.0775  0.8321
    7SAPS  H18Z  931   3.670   6.169   8.396  0.8998  0.8722  2.8343
    8SAPS     N  932   1.154   1.138  11.094  0.4977 -0.1407 -1.1712
    8SAPS   HN1  933   1.195   1.229  11.121 -0.5062 -0.1483  0.4676
    8SAPS   HN2  934   1.218   1.080  11.037  1.4854 -1.6474  1.3601
    8SAPS   HN3  935   1.063   1.162  11.049 -0.8008 -0.6802  1.0645
    8SAPS   C12  936   1.109   1.069  11.222  0.3531  1.4947  0.2697
    8SAPS  H12A  937   1.196   1.059  11.285  0.3932 -3.2468 -0.3448
    8SAPS   C13  938   0.998   1.142  11.297 -0.5148  0.0079 -0.2084
    8SAPS  O13A  939   0.939   1.244  11.256 -0.2545 -0.2103  0.7922
    8SAPS  O13B  940   0.965   1.082  11.403  0.2186 -0.2079 -0.2240
    8SAPS   C11  941   1.060   0.924  11.188 -0.1085 -1.0691 -0.8011
    8SAPS  H11A  942   0.966   0.928  11.128 -0.1554 -2.5160 -0.8366
    8SAPS  H11B  943   1.028   0.876  11.284  0.1386 -0.1236 -0.2399
    8SAPS     P  944   1.134   0.748  10.997  0.1816 -0.4668 -0.0350
    8SAPS   O13  945   1.256   0.733  10.914 -0.5842 -0.2903 -0.1825
    8SAPS   O14  946   1.080   0.623  11.060 -1.0281 -0.0958  0.1238
    8SAPS   O12  947   1.157   0.852  11.117 -0.2307 -0.0353 -0.0834
    8SAPS   O11  948   1.016   0.817  10.909 -0.1201 -0.5354  0.3739
    8SAPS    C1  949   1.050   0.916  10.816  0.6975 -0.1309 -0.1860
    8SAPS    HA  950   0.964   0.986  10.813 -0.8873 -1.9921  0.3402
    8SAPS    HB  951   1.143   0.973  10.837 -0.2860  1.3912  0.1168
    8SAPS    C2  952   1.060   0.871  10.662 -0.4126 -0.0996 -0.3547
    8SAPS    HS  953   1.035   0.956  10.595 -0.0112  0.0107 -0.3685
    8SAPS   O21  954   0.985   0.756  10.642  0.4744 -1.0032 -0.3591
    8SAPS   C21  955   0.853   0.771  10.659  0.2792 -0.1723  0.2371
    8SAPS   O22  956   0.793   0.873  10.677 -0.2685  0.0233 -0.9417
    8SAPS   C22  957   0.785   0.629  10.645 -0.3583  0.0460 -0.3596
    8SAPS   H2R  958   0.859   0.552  10.616  0.6078  0.5996  0.6011
    8SAPS   H2S  959   0.744   0.596  10.742 -0.5372  1.6118  0.1196
    8SAPS    C3  960   1.207   0.837  10.615  0.3005 -0.2051 -0.0338
    8SAPS    HX  961   1.225   0.733  10.650 -0.7526  0.0186  1.1991
    8SAPS    HY  962   1.272   0.907  10.671 -1.5501  1.4236  0.1103
    8SAPS   O31  963   1.212   0.857  10.468  0.4293 -0.0683  0.6941
    8SAPS   C31  964   1.252   0.974  10.429  0.5480  0.7060 -0.4175
    8SAPS   O32  965   1.291   1.063  10.502 -0.6834  0.1607 -0.1561
    8SAPS   C32  966   1.246   0.979  10.283  0.0641 -0.2851  0.4044
    8SAPS   H2X  967   1.147   0.944  10.247  0.7474 -0.7114 -1.1123
    8SAPS   H2Y  968   1.321   0.905  10.244 -0.5256 -1.2021  0.9876
    8SAPS   C23  969   0.662   0.624  10.549  1.0854 -0.1794 -0.7155
    8SAPS   H3R  970   0.595   0.704  10.586 -0.1359 -1.3951 -0.2148
    8SAPS   H3S  971   0.601   0.535  10.577  1.1759 -0.2932 -0.8773
    8SAPS   C24  972   0.678   0.605  10.396  0.3775  0.3875  0.1489
    8SAPS   H4R  973   0.581   0.574  10.353  0.2548  0.2054  0.5590
    8SAPS   H4S  974   0.745   0.517  10.383 -1.2118 -0.6725 -0.8935
    8SAPS   C25  975   0.742   0.714  10.312 -0.5169 -0.5339 -0.3114
    8SAPS   H5R  976   0.680   0.802  10.290  2.2811  1.3630 -0.8594
    8SAPS   C26  977   0.874   0.707  10.273  0.4120  0.1464 -0.0527
    8SAPS   H6R  978   0.921   0.773  10.199  1.4846 -3.5826 -2.8285
    8SAPS   C27  979   0.975   0.596  10.301 -0.5518  0.3723 -0.7387
    8SAPS   H7R  980   0.925   0.500  10.278 -1.5108  0.8139 -0.5055
    8SAPS   H7S  981   1.001   0.609  10.408  0.0779  0.8932 -0.9557
    8SAPS   C28  982   1.117   0.609  10.254  0.5120 -0.2869 -0.2001
    8SAPS   H8R  983   1.140   0.714  10.231 -2.0672  0.5626  1.0026
    8SAPS   C29  984   1.200   0.510  10.216 -0.1417 -0.1877 -0.3837
    8SAPS   H9R  985   1.302   0.542  10.189 -0.8964  1.0181 -1.8791
    8SAPS  C210  986   1.183   0.365  10.215  0.2520 -0.3961 -0.6220
    8SAPS  H10R  987   1.097   0.337  10.151 -1.4128  0.5329  1.1412
    8SAPS  H10S  988   1.156   0.341  10.320 -0.2566  0.2325 -0.6035
    8SAPS  C211  989   1.307   0.290  10.170 -0.7750  0.7963 -0.3817
    8SAPS  H11R  990   1.385   0.278  10.246 -0.7062  0.1783 -0.5441
    8SAPS  C212  991   1.336   0.241  10.049  0.3576  1.0751  0.0737
    8SAPS  H12R  992   1.434   0.191  10.040  0.5434  1.5300 -0.4266
    8SAPS  C213  993   1.243   0.251   9.930 -0.0403  0.5914 -0.5024
    8SAPS  H13R  994   1.181   0.343   9.941  1.6911  1.9676 -2.0427
    8SAPS  H13S  995   1.182   0.160   9.913  2.0985 -1.2705  1.4914
    8SAPS  C214  996   1.323   0.274   9.803 -0.2115  0.1308  0.2424
    8SAPS  H14R  997   1.424   0.309   9.829  1.1204 -1.3795 -2.6343
    8SAPS  C215  998   1.286   0.271   9.669 -0.0753  0.1896 -0.5020
    8SAPS  H15R  999   1.364   0.296   9.595 -0.1046  3.9762  0.6234
    8SAPS  C216 1000   1.148   0.239   9.622  0.2600 -0.1501 -0.3545
    8SAPS  H16R 1001   1.119   0.322   9.553 -0.7576 -0.5280 -0.3958
    8SAPS  H16S 1002   1.076   0.243   9.706  2.1340  1.3901  1.2196
    8SAPS  C217 1003   1.144   0.111   9.547  0.2705 -0.4861 -0.4087
    8SAPS  H17R 1004   1.149   0.026   9.618  1.0278 -0.6715 -0.6853
    8SAPS  H17S 1005   1.217   0.097   9.465  1.1124  0.2733  0.1966
    8SAPS  C218 1006   1.005   0.088   9.482 -0.2279 -0.5207  0.0013
    8SAPS  H18R 1007   1.013   0.149   9.389 -1.6980 -1.4439 -0.7640
    8SAPS  H18S 1008   0.921   0.110   9.551 -0.1379  1.1151 -0.3909
    8SAPS  C219 1009   0.982  -0.059   9.443  0.0037 -0.4026  0.0873
    8SAPS  H19R 1010   0.874  -0.069   9.420  0.1353 -2.1814  0.1908
    8SAPS  H19S 1011   0.998  -0.135   9.522  1.3805 -1.4416 -1.1577
    8SAPS  C220 1012   1.058  -0.101   9.315 -0.0557 -0.4691 -0.9077
    8SAPS  H20R 1013   1.044  -0.210   9.299  0.7787 -0.8745  1.0177
    8SAPS  H20S 1014   1.162  -0.064   9.325  0.5733 -2.3124 -0.4526
    8SAPS  H20T 1015   1.025  -0.042   9.227 -0.2917  1.2514  0.3108
    8SAPS   C33 1016   1.273   1.123  10.215  0.8200  0.5591 -0.7276
    8SAPS   H3X 1017   1.280   1.115  10.104 -0.7681 -0.3927 -0.7752
    8SAPS   H3Y 1018   1.369   1.167  10.249 -0.0102  1.2371  0.7881
    8SAPS   C34 1019   1.169   1.227  10.262  0.4680 -0.1558 -0.0806
    8SAPS   H4X 1020   1.177   1.236  10.372 -2.1265  1.6416  0.0099
    8SAPS   H4Y 1021   1.070   1.182  10.242  0.6258 -0.4581 -0.1873
    8SAPS   C35 1022   1.177   1.359  10.194 -0.3727  0.3410 -0.3449
    8SAPS   H5X 1023   1.273   1.405  10.226 -0.8642 -0.1670  1.9269
    8SAPS   H5Y 1024   1.097   1.428  10.230  0.3523  0.3480  1.2770
    8SAPS   C36 1025   1.170   1.359  10.041  0.3983  0.0894  0.2806
    8SAPS   H6X 1026   1.119   1.264  10.011  1.6348  0.1424 -2.1804
    8SAPS   H6Y 1027   1.270   1.354   9.993  0.9596 -2.2872  1.5914
    8SAPS   C37 1028   1.093   1.461   9.962 -1.1314 -0.0582 -0.5065
    8SAPS   H7X 1029   1.150   1.556   9.967 -0.8637 -0.1661 -1.3870
    8SAPS   H7Y 1030   0.991   1.475  10.004 -0.5935 -1.8251  1.4814
    8SAPS   C38 1031   1.086   1.430   9.813 -0.3226 -0.1239  0.0489
    8SAPS   H8X 1032   1.017   1.348   9.786 -0.2046 -0.7213  1.5086
    8SAPS   H8Y 1033   1.188   1.398   9.785  0.2031  0.1189  1.6517
    8SAPS   C39 1034   1.050   1.555   9.722 -0.2497  0.0562  0.5198
    8SAPS   H9X 1035   1.109   1.641   9.758 -1.5826  0.1940  2.4614
    8SAPS   H9Y 1036   0.943   1.580   9.735 -0.3852 -0.0046 -0.4077
    8SAPS  C310 1037   1.082   1.528   9.578  0.2637 -0.1940  0.6391
    8SAPS  H10X 1038   1.181   1.478   9.575  0.1862 -0.3922  1.3802
    8SAPS  H10Y 1039   1.080   1.630   9.535  0.3107  0.4614  2.1902
    8SAPS  C311 1040   0.981   1.432   9.509  0.0463 -0.4441  0.3166
    8SAPS  H11X 1041   0.875   1.461   9.527  0.4383 -0.4440  2.8220
    8SAPS  H11Y 1042   0.994   1.338   9.567 -0.6363 -0.0999  1.0406
    8SAPS  C312 1043   0.998   1.405   9.359  0.2190  0.6250  0.0962
    8SAPS  H12X 1044   0.994   1.508   9.316 -1.5946  1.4593  2.1682
    8SAPS  H12Y 1045   0.912   1.342   9.328 -0.5023  0.2616  2.6934
    8SAPS  C313 1046   1.132   1.330   9.332  0.0938 -0.2818  0.0575
    8SAPS  H13X 1047   1.147   1.254   9.413  2.1532 -0.3678 -0.3964
    8SAPS  H13Y 1048   1.216   1.401   9.345  1.4764 -1.9111  0.2886
    8SAPS  C314 1049   1.119   1.250   9.200  0.3656  0.1223 -0.5671
    8SAPS  H14X 1050   1.045   1.171   9.223  1.3259 -0.6424 -0.0835
    8SAPS  H14Y 1051   1.215   1.206   9.165  0.8157 -0.6486  1.5471
    8SAPS  C315 1052   1.066   1.333   9.085 -0.0225 -0.2697 -0.6889
    8SAPS  H15X 1053   1.105   1.436   9.068 -0.6532 -0.1182 -1.2375
    8SAPS  H15Y 1054   0.959   1.346   9.113  0.0173 -2.2526  0.4520
    8SAPS  C316 1055   1.071   1.260   8.950  0.1358  0.4364  0.2363
    8SAPS  H16X 1056   1.027   1.159   8.965  0.4999 -0.1141 -2.1486
    8SAPS  H16Y 1057   1.179   1.249   8.927 -0.2996 -1.5838 -1.0001
    8SAPS  C317 1058   0.993   1.331   8.847  0.0659 -0.2822 -0.3639
    8SAPS  H17X 1059   1.036   1.434   8.845 -0.2809 -0.1486 -1.6600
    8SAPS  H17Y 1060   0.889   1.336   8.887 -0.1880 -0.0100 -1.0546
    8SAPS  C318 1061   1.003   1.258   8.706 -0.0339 -0.2981  0.3295
    8SAPS  H18X 1062   0.921   1.297   8.642 -1.5808 -2.0420  1.2063
    8SAPS  H18Y 1063   0.980   1.149   8.708 -1.0926 -0.0792  0.7217
    8SAPS  H18Z 1064   1.103   1.278   8.663  0.3522  0.6854  1.6673
    9SAPS     N 1065   4.036   3.668   6.434 -0.0704  0.3143 -0.1047
    9SAPS   HN1 1066   3.990   3.760   6.419  1.2839  0.7072 -1.9362
    9SAPS   HN2 1067   4.091   3.626   6.357  0.8328  0.2580  0.5547
    9SAPS   HN3 1068   3.960   3.600   6.455  0.3823 -1.4954 -3.9768
    9SAPS   C12 1069   4.136   3.670   6.543 -0.0487  0.3529  0.4367
    9SAPS  H12A 1070   4.099   3.731   6.624 -2.9293 -0.9321  0.1459
    9SAPS   C13 1071   4.185   3.529   6.591 -0.7845  0.3938  0.5340
    9SAPS  O13A 1072   4.146   3.427   6.525 -0.6437 -0.5565  0.3757
    9SAPS  O13B 1073   4.258   3.519   6.692 -0.0894  0.1838 -0.3309
    9SAPS   C11 1074   4.262   3.745   6.486 -0.5829  0.0490 -0.2606
    9SAPS  H11A 1075   4.297   3.705   6.388 -0.7603  0.2037 -0.3872
    9SAPS  H11B 1076   4.343   3.742   6.562 -1.3966 -1.2887  0.5696
    9SAPS     P 1077   4.349   3.979   6.425  0.6226 -0.0472  0.0576
    9SAPS   O13 1078   4.403   3.944   6.293 -0.6047  0.3050 -0.1494
    9SAPS   O14 1079   4.315   4.121   6.449 -0.0752 -0.2722 -0.1704
    9SAPS   O12 1080   4.231   3.885   6.457  0.4407  0.9858 -0.9238
    9SAPS   O11 1081   4.459   3.953   6.533  0.0500 -0.5580  0.2538
    9SAPS    C1 1082   4.454   4.027   6.659  0.0042  0.5090 -0.5709
    9SAPS    HA 1083   4.470   4.136   6.644  0.5872  0.4688 -0.2536
    9SAPS    HB 1084   4.356   4.016   6.710 -0.4199  0.3908 -1.3968
    9SAPS    C2 1085   4.551   3.980   6.773  0.0061  0.2067  0.1671
    9SAPS    HS 1086   4.556   4.052   6.858  1.8698  1.2238 -0.7658
    9SAPS   O21 1087   4.685   3.977   6.719  0.8855  0.1917  0.1342
    9SAPS   C21 1088   4.731   4.101   6.687  0.2435 -0.7347 -0.3083
    9SAPS   O22 1089   4.684   4.205   6.718 -0.2367 -0.7836 -0.6979
    9SAPS   C22 1090   4.861   4.086   6.601  0.2052  0.5084 -0.0508
    9SAPS   H2R 1091   4.867   3.981   6.564 -0.4127 -0.3356  2.1837
    9SAPS   H2S 1092   4.840   4.152   6.514 -0.2383  0.8272  0.3004
    9SAPS    C3 1093   4.508   3.834   6.802  0.0585  0.4355 -0.1719
    9SAPS    HX 1094   4.556   3.769   6.726  0.7508  0.6976  0.0350
    9SAPS    HY 1095   4.400   3.817   6.784  0.0106  0.7880 -0.2178
    9SAPS   O31 1096   4.544   3.795   6.934  0.1552  0.1015  0.0670
    9SAPS   C31 1097   4.586   3.666   6.954  0.2099  0.9701  0.6693
    9SAPS   O32 1098   4.614   3.590   6.867  0.1945 -0.1474  0.0592
    9SAPS   C32 1099   4.598   3.640   7.109 -0.3393 -0.3894  0.9548
    9SAPS   H2X 1100   4.613   3.741   7.153  2.8557  0.7092 -2.4303
    9SAPS   H2Y 1101   4.686   3.576   7.132 -1.0988 -2.3866 -1.4797
    9SAPS   C23 1102   4.996   4.131   6.673 -0.0179  0.4315 -0.3792
    9SAPS   H3R 1103   4.967   4.222   6.730  1.1269  0.7403 -0.2709
    9SAPS   H3S 1104   5.074   4.149   6.596  2.1037 -3.7295  0.6379
    9SAPS   C24 1105   5.065   4.028   6.775  0.6302 -0.0937 -0.7868
    9SAPS   H4R 1106   4.989   4.018   6.856  0.6734 -0.0335 -0.7390
    9SAPS   H4S 1107   5.162   4.074   6.802  0.1333 -0.3651  1.5923
    9SAPS   C25 1108   5.085   3.901   6.699 -0.7789 -0.7324  0.1671
    9SAPS   H5R 1109   5.174   3.901   6.634 -1.5399 -0.9507 -0.8975
    9SAPS   C26 1110   5.015   3.781   6.700  0.2386 -0.4456 -0.6723
    9SAPS   H6R 1111   5.051   3.700   6.635  2.2774  0.5395 -0.8078
    9SAPS   C27 1112   4.900   3.748   6.799  0.9742 -0.2410 -0.3749
    9SAPS   H7R 1113   4.819   3.706   6.736  2.4222  0.3310 -2.6919
    9SAPS   H7S 1114   4.854   3.838   6.845  1.7048  0.3036 -0.6967
    9SAPS   C28 1115   4.939   3.657   6.911 -0.5164  0.0532  0.5868
    9SAPS   H8R 1116   4.928   3.553   6.876  0.6611  0.0944  0.0844
    9SAPS   C29 1117   4.981   3.679   7.040 -0.1401 -0.4029 -0.0967
    9SAPS   H9R 1118   5.000   3.598   7.113  0.1834 -1.4873 -1.3753
    9SAPS  C210 1119   5.001   3.814   7.106  0.0534 -0.6386  0.1733
    9SAPS  H10R 1120   4.956   3.890   7.039 -1.6944 -1.5243  0.3155
    9SAPS  H10S 1121   5.106   3.849   7.108  0.3819 -1.4799 -1.2485
    9SAPS  C211 1122   4.934   3.829   7.243  0.2697  0.5230 -0.4993
    9SAPS  H11R 1123   4.867   3.915   7.255  0.9421  0.8673  0.9502
    9SAPS  C212 1124   4.951   3.752   7.355  0.2922 -0.2150  0.0043
    9SAPS  H12R 1125   4.900   3.785   7.447  0.9931  1.5690 -0.2140
    9SAPS  C213 1126   5.050   3.640   7.367  0.4418  0.4605 -0.6255
    9SAPS  H13R 1127   5.125   3.675   7.441  3.1232 -1.9649 -2.0975
    9SAPS  H13S 1128   5.116   3.621   7.280  1.8659 -1.5449  0.8388
    9SAPS  C214 1129   4.991   3.513   7.419 -0.7287 -0.4523 -0.1400
    9SAPS  H14R 1130   4.916   3.462   7.357  1.3472 -2.8175 -0.7597
    9SAPS  C215 1131   5.023   3.459   7.539 -0.2628  0.5431 -0.3721
    9SAPS  H15R 1132   4.967   3.366   7.559 -0.1681  0.0159 -2.4554
    9SAPS  C216 1133   5.110   3.507   7.650  0.4799 -0.9310  0.3061
    9SAPS  H16R 1134   5.127   3.617   7.657 -0.5787 -0.5174 -2.7652
    9SAPS  H16S 1135   5.207   3.456   7.632  0.7071 -0.2104 -0.5628
    9SAPS  C217 1136   5.069   3.439   7.781  0.5423  0.0425 -0.0163
    9SAPS  H17R 1137   5.068   3.328   7.776 -0.1169  0.0465  0.0518
    9SAPS  H17S 1138   4.966   3.470   7.806  0.5096 -0.8252  0.9753
    9SAPS  C218 1139   5.168   3.477   7.890  0.3889 -0.2246  0.6348
    9SAPS  H18R 1140   5.178   3.587   7.900 -0.1531 -0.1074 -0.0674
    9SAPS  H18S 1141   5.271   3.442   7.870  0.0937 -0.7720  0.0814
    9SAPS  C219 1142   5.115   3.434   8.023 -0.0035 -0.1147  0.7871
    9SAPS  H19R 1143   5.090   3.326   8.018  0.2405 -0.0940 -2.5850
    9SAPS  H19S 1144   5.022   3.495   8.033  0.8846  1.2651  0.7968
    9SAPS  C220 1145   5.213   3.459   8.136  0.4810  0.9365  0.1115
    9SAPS  H20R 1146   5.306   3.400   8.123  0.4885  1.1424 -0.7779
    9SAPS  H20S 1147   5.164   3.417   8.226  3.4796 -2.9511  0.0645
    9SAPS  H20T 1148   5.247   3.565   8.142 -1.8169  1.6256  1.6621
    9SAPS   C33 1149   4.465   3.596   7.162 -0.3217 -0.6917  1.0046
    9SAPS   H3X 1150   4.442   3.493   7.130  2.0882 -0.6168 -1.1205
    9SAPS   H3Y 1151   4.378   3.663   7.139  0.5947 -0.5764 -2.4678
    9SAPS   C34 1152   4.469   3.596   7.323  0.3968  0.5910  0.1759
    9SAPS   H4X 1153   4.377   3.550   7.363  0.1663 -0.0286 -1.0418
    9SAPS   H4Y 1154   4.475   3.702   7.357  0.7051  0.5460  0.2702
    9SAPS   C35 1155   4.584   3.510   7.384  0.4569  0.1572 -0.8196
    9SAPS   H5X 1156   4.676   3.572   7.375 -1.1532  2.6806 -0.4318
    9SAPS   H5Y 1157   4.592   3.416   7.324  0.2706 -0.6431  0.3950
    9SAPS   C36 1158   4.549   3.474   7.531 -0.3048  0.0114  0.1490
    9SAPS   H6X 1159   4.463   3.404   7.531 -0.5989  0.3611  1.3177
    9SAPS   H6Y 1160   4.528   3.568   7.585 -0.2284  0.1381 -0.0416
    9SAPS   C37 1161   4.662   3.401   7.601 -0.1763  0.4834  0.5478
    9SAPS   H7X 1162   4.755   3.462   7.599  0.3438 -0.3129  0.2164
    9SAPS   H7Y 1163   4.692   3.303   7.558 -0.8848  0.8993 -0.9378
    9SAPS   C38 1164   4.623   3.363   7.747 -0.0841  0.0663  0.2901
    9SAPS   H8X 1165   4.526   3.310   7.738 -0.3642  0.5588  0.3787
    9SAPS   H8Y 1166   4.612   3.452   7.813  0.0541 -0.4868  1.0610
    9SAPS   C39 1167   4.727   3.277   7.809 -0.3501  0.2538 -0.7625
    9SAPS   H9X 1168   4.821   3.313   7.763  0.4168 -0.1188  0.4933
    9SAPS   H9Y 1169   4.703   3.175   7.772  0.4592 -0.7824  1.4912
    9SAPS  C310 1170   4.725   3.268   7.962  0.3070  0.5824  0.5537
    9SAPS  H10X 1171   4.621   3.242   7.990 -0.6045  0.1768 -2.9183
    9SAPS  H10Y 1172   4.742   3.364   8.015  1.3018  1.2895 -1.0053
    9SAPS  C311 1173   4.831   3.177   8.018  0.3329 -0.1358  0.2701
    9SAPS  H11X 1174   4.919   3.204   7.956  2.1736 -0.5264  2.6200
    9SAPS  H11Y 1175   4.804   3.071   7.999  1.6165 -0.4848  0.3041
    9SAPS  C312 1176   4.868   3.194   8.162  0.3361  0.6388  0.0182
    9SAPS  H12X 1177   4.890   3.302   8.173  1.3164  0.5171 -0.6911
    9SAPS  H12Y 1178   4.954   3.129   8.191  0.9204  0.8934 -1.1231
    9SAPS  C313 1179   4.759   3.159   8.260 -0.1883  0.1533 -0.4310
    9SAPS  H13X 1180   4.660   3.190   8.221  0.9968  3.2051 -1.2038
    9SAPS  H13Y 1181   4.776   3.227   8.346 -0.1574  0.2206 -0.4895
    9SAPS  C314 1182   4.751   3.006   8.295 -0.3975 -0.3678  0.0540
    9SAPS  H14X 1183   4.774   2.947   8.204  1.2013 -0.9326  0.7949
    9SAPS  H14Y 1184   4.646   2.987   8.325 -1.0691  0.0084 -1.9800
    9SAPS  C315 1185   4.843   2.956   8.412  0.8410 -0.1901 -0.2182
    9SAPS  H15X 1186   4.830   3.024   8.499  0.8670 -2.0930  1.3110
    9SAPS  H15Y 1187   4.948   2.975   8.383  0.6931  0.3543 -0.4055
    9SAPS  C316 1188   4.815   2.817   8.461 -0.7239  0.0502 -0.8515
    9SAPS  H16X 1189   4.858   2.823   8.563  0.8485 -1.0251 -1.4287
    9SAPS  H16Y 1190   4.888   2.749   8.412 -2.5551 -1.9679 -0.8701
    9SAPS  C317 1191   4.667   2.762   8.467 -0.1917  0.1662  0.6095
    9SAPS  H17X 1192   4.632   2.744   8.364  2.2770 -1.2123 -0.0398
    9SAPS  H17Y 1193   4.603   2.838   8.516  0.7109  1.4186 -0.1256
    9SAPS  C318 1194   4.658   2.641   8.552  0.2106 -0.3338  0.9995
    9SAPS  H18X 1195   4.692   2.649   8.658 -2.2495 -0.8799  1.8483
    9SAPS  H18Y 1196   4.715   2.558   8.504 -1.6623 -0.7677 -0.5229
    9SAPS  H18Z 1197   4.558   2.595   8.539 -0.2940  0.6608  1.3156
   10SAPS     N 1198   4.571   3.297   6.451  0.0821  0.2133 -0.0528
   10SAPS   HN1 1199   4.554   3.362   6.529  0.5530 -0.4155  0.5777
   10SAPS   HN2 1200   4.572   3.198   6.484 -0.3600 -0.8296 -2.9337
   10SAPS   HN3 1201   4.661   3.329   6.411 -0.4663 -0.0605 -1.5590
   10SAPS   C12 1202   4.465   3.293   6.338  0.2335 -0.0769 -0.3892
   10SAPS  H12A 1203   4.363   3.299   6.373  0.9966  0.3020  1.8862
   10SAPS   C13 1204   4.475   3.411   6.244 -0.3989 -0.4436 -0.5932
   10SAPS  O13A 1205   4.526   3.523   6.282  0.1990  0.0221  0.3343
   10SAPS  O13B 1206   4.404   3.407   6.141  0.0831 -0.2853  0.0739
   10SAPS   C11 1207   4.485   3.169   6.257 -0.0297 -0.3555 -0.5081
   10SAPS  H11A 1208   4.587   3.170   6.214  0.8068 -1.9702  1.3678
   10SAPS  H11B 1209   4.408   3.169   6.177  3.0817  1.6467 -3.6242
   10SAPS     P 1210   4.582   2.952   6.373 -0.1091 -0.1878 -0.6072
   10SAPS   O13 1211   4.528   2.834   6.453  0.1097  0.4374 -0.5144
   10SAPS   O14 1212   4.654   2.927   6.248  0.3184  0.4382  0.7968
   10SAPS   O12 1213   4.464   3.048   6.335 -0.3517  0.2494 -0.0581
   10SAPS   O11 1214   4.666   3.037   6.470 -0.2515 -0.2183  0.0358
   10SAPS    C1 1215   4.805   2.988   6.487 -0.3369  0.2838  0.3997
   10SAPS    HA 1216   4.823   2.885   6.449 -1.8953  0.9494 -2.2695
   10SAPS    HB 1217   4.868   3.060   6.430 -0.1347 -0.3835 -0.2241
   10SAPS    C2 1218   4.855   2.999   6.636 -0.8958 -0.3782  0.2847
   10SAPS    HS 1219   4.957   2.954   6.638 -0.8583 -0.2681  2.0789
   10SAPS   O21 1220   4.762   2.930   6.725  0.5772 -0.0050 -0.3709
   10SAPS   C21 1221   4.775   2.804   6.731  0.2263  0.0622 -0.4313
   10SAPS   O22 1222   4.848   2.735   6.660  0.4265 -0.6203 -0.0533
   10SAPS   C22 1223   4.688   2.753   6.844 -0.4351  0.0489 -0.8479
   10SAPS   H2R 1224   4.584   2.793   6.838 -0.4614  0.0629 -0.2778
   10SAPS   H2S 1225   4.671   2.645   6.825 -2.9043  0.2886 -0.2063
   10SAPS    C3 1226   4.854   3.147   6.678  0.1462  0.6405 -0.2144
   10SAPS    HX 1227   4.750   3.186   6.670 -1.1322 -2.3580  1.0275
   10SAPS    HY 1228   4.908   3.205   6.599 -1.2048  0.0196 -1.6189
   10SAPS   O31 1229   4.908   3.165   6.813 -0.0308  0.1628 -0.0176
   10SAPS   C31 1230   4.818   3.157   6.905 -0.0032 -1.2473 -0.0920
   10SAPS   O32 1231   4.699   3.150   6.894 -0.4764  0.4569 -0.2176
   10SAPS   C32 1232   4.885   3.155   7.035  0.0240 -0.3777  0.5680
   10SAPS   H2X 1233   4.938   3.251   7.050  0.8799 -0.8167  0.3937
   10SAPS   H2Y 1234   4.962   3.075   7.037 -1.7597 -2.1385  0.9148
   10SAPS   C23 1235   4.756   2.768   6.981 -0.1146 -0.3738  0.1619
   10SAPS   H3R 1236   4.779   2.874   7.006 -2.0136 -0.6384  3.2930
   10SAPS   H3S 1237   4.856   2.729   6.954 -0.0378  0.8470 -1.3812
   10SAPS   C24 1238   4.690   2.683   7.089  0.1590 -0.0722  0.0503
   10SAPS   H4R 1239   4.766   2.653   7.165  0.6143  1.0575  0.0523
   10SAPS   H4S 1240   4.669   2.587   7.037 -0.2056 -0.8330  1.5498
   10SAPS   C25 1241   4.573   2.747   7.159 -0.2537 -0.2507 -0.3736
   10SAPS   H5R 1242   4.502   2.788   7.087  0.6025 -1.6334 -2.0512
   10SAPS   C26 1243   4.546   2.757   7.292  0.5593 -0.6153  0.4679
   10SAPS   H6R 1244   4.459   2.818   7.321  2.8111  2.1773  1.5238
   10SAPS   C27 1245   4.633   2.709   7.399  0.2288 -0.1827  0.1056
   10SAPS   H7R 1246   4.633   2.782   7.482 -1.0635  0.5388 -0.5053
   10SAPS   H7S 1247   4.738   2.685   7.372 -0.1834 -1.4443 -0.3965
   10SAPS   C28 1248   4.570   2.581   7.457  0.7868  0.8358 -0.5523
   10SAPS   H8R 1249   4.525   2.516   7.381 -0.6400 -1.1166  1.9110
   10SAPS   C29 1250   4.566   2.541   7.587  0.4748  0.6014 -0.5215
   10SAPS   H9R 1251   4.511   2.448   7.607 -0.9179  1.0057 -2.3228
   10SAPS  C210 1252   4.613   2.614   7.708 -0.4907 -0.6618 -0.6961
   10SAPS  H10R 1253   4.529   2.684   7.726  0.4163  0.8954 -2.3644
   10SAPS  H10S 1254   4.704   2.675   7.696 -1.9124  1.1142 -2.7500
   10SAPS  C211 1255   4.631   2.528   7.829 -0.4763  0.1083 -0.1949
   10SAPS  H11R 1256   4.733   2.487   7.834 -0.6085 -0.3726 -1.3792
   10SAPS  C212 1257   4.536   2.493   7.922  0.1054  0.5328 -0.1028
   10SAPS  H12R 1258   4.569   2.440   8.012 -1.3300  1.3763  0.9477
   10SAPS  C213 1259   4.393   2.540   7.925 -0.1338 -0.0865 -0.6502
   10SAPS  H13R 1260   4.351   2.575   7.828  1.3722  0.9829 -0.9451
   10SAPS  H13S 1261   4.404   2.629   7.991  0.8204  1.7572 -3.1946
   10SAPS  C214 1262   4.297   2.430   7.970  0.0591 -0.3672  0.6735
   10SAPS  H14R 1263   4.283   2.348   7.898  1.0751 -0.5033  0.6248
   10SAPS  C215 1264   4.238   2.412   8.095  0.3116  0.5501 -0.2388
   10SAPS  H15R 1265   4.173   2.324   8.095 -0.7820  1.3414 -2.0584
   10SAPS  C216 1266   4.275   2.501   8.214  0.1815  1.3841 -0.9615
   10SAPS  H16R 1267   4.185   2.558   8.247 -1.1587 -0.8284 -0.6989
   10SAPS  H16S 1268   4.340   2.587   8.189 -0.8684  1.8351 -2.1958
   10SAPS  C217 1269   4.338   2.424   8.334 -0.2472  0.6194 -0.4046
   10SAPS  H17R 1270   4.251   2.376   8.382  0.5345 -0.9659 -0.5549
   10SAPS  H17S 1271   4.389   2.499   8.398 -1.7066  0.5241  0.8940
   10SAPS  C218 1272   4.445   2.310   8.305  0.6542 -0.5255 -0.2571
   10SAPS  H18R 1273   4.524   2.346   8.235  0.3164  1.1255  0.1879
   10SAPS  H18S 1274   4.396   2.220   8.262  0.3478  0.1198 -1.2840
   10SAPS  C219 1275   4.527   2.255   8.421 -0.3319 -0.2938 -0.1878
   10SAPS  H19R 1276   4.464   2.213   8.502 -0.4394  1.1398  0.5027
   10SAPS  H19S 1277   4.562   2.348   8.472  0.4695 -0.5227 -0.3179
   10SAPS  C220 1278   4.643   2.153   8.399  1.0599 -0.9553  0.4019
   10SAPS  H20R 1279   4.739   2.207   8.385  0.1301  0.2836 -1.4585
   10SAPS  H20S 1280   4.617   2.092   8.310  1.6187 -0.5279 -0.0583
   10SAPS  H20T 1281   4.647   2.083   8.485 -2.8890  0.4633  1.8506
   10SAPS   C33 1282   4.809   3.111   7.154  1.3415 -0.4030  0.1502
   10SAPS   H3X 1283   4.743   3.024   7.134  2.4758 -1.2937  0.2733
   10SAPS   H3Y 1284   4.737   3.189   7.188  0.3944 -1.7149  1.2008
   10SAPS   C34 1285   4.898   3.083   7.265 -1.0603  0.5407 -1.0688
   10SAPS   H4X 1286   4.946   3.179   7.296 -2.3799  0.6628  0.6816
   10SAPS   H4Y 1287   4.984   3.021   7.232 -2.0678 -1.0256 -0.8363
   10SAPS   C35 1288   4.821   3.023   7.386 -0.1285  0.5447  0.5044
   10SAPS   H5X 1289   4.803   2.914   7.383 -0.3353  0.4919  2.7513
   10SAPS   H5Y 1290   4.721   3.070   7.401 -0.4055  0.1955 -0.2475
   10SAPS   C36 1291   4.898   3.034   7.522 -0.4098 -0.3831 -0.3545
   10SAPS   H6X 1292   4.913   3.138   7.558  0.5265  0.1556 -2.2359
   10SAPS   H6Y 1293   4.999   3.001   7.490 -0.4721 -1.4788  0.5129
   10SAPS   C37 1294   4.859   2.943   7.645 -0.5233  0.3234  0.1713
   10SAPS   H7X 1295   4.847   2.837   7.613  2.8671 -0.1609  0.3336
   10SAPS   H7Y 1296   4.758   2.977   7.679 -1.4703 -1.9452 -0.2649
   10SAPS   C38 1297   4.952   2.931   7.768 -0.0689  0.7158  0.0079
   10SAPS   H8X 1298   4.963   3.032   7.812 -1.3890  0.4954  0.8983
   10SAPS   H8Y 1299   5.056   2.904   7.742  0.3792  0.7125  1.7055
   10SAPS   C39 1300   4.890   2.839   7.880 -0.3395  0.4578  0.0459
   10SAPS   H9X 1301   4.883   2.732   7.849 -1.5475  0.1725  1.2825
   10SAPS   H9Y 1302   4.788   2.876   7.903 -1.7020 -2.5684 -0.8367
   10SAPS  C310 1303   4.971   2.840   8.016  0.0283  0.0907  0.6314
   10SAPS  H10X 1304   4.969   2.942   8.060 -0.7674 -0.6166  2.3074
   10SAPS  H10Y 1305   5.076   2.820   7.987 -0.1536 -0.5447  0.4177
   10SAPS  C311 1306   4.925   2.736   8.116 -0.7166  1.0006 -0.3610
   10SAPS  H11X 1307   4.816   2.758   8.128 -1.2972  0.0537 -3.3314
   10SAPS  H11Y 1308   4.962   2.760   8.218 -0.4525 -1.3386  0.1307
   10SAPS  C312 1309   4.939   2.587   8.083 -0.1403 -0.2763 -0.5128
   10SAPS  H12X 1310   5.046   2.570   8.058 -0.0384 -1.1733  0.5267
   10SAPS  H12Y 1311   4.869   2.568   7.999 -1.2277  0.8341  0.1242
   10SAPS  C313 1312   4.898   2.493   8.194 -0.2312  0.0283 -1.0624
   10SAPS  H13X 1313   4.791   2.523   8.205 -0.1611 -0.0120 -0.1977
   10SAPS  H13Y 1314   4.957   2.520   8.284 -0.7719 -1.1029 -0.3656
   10SAPS  C314 1315   4.914   2.344   8.152  0.0878  0.8369  0.4521
   10SAPS  H14X 1316   4.847   2.311   8.069  0.4293 -1.7222  1.1499
   10SAPS  H14Y 1317   4.895   2.278   8.239  1.0482  0.8669  0.6929
   10SAPS  C315 1318   5.060   2.301   8.109 -0.4125  0.1874 -0.5545
   10SAPS  H15X 1319   5.143   2.350   8.164 -0.3909  0.6807 -1.0156
   10SAPS  H15Y 1320   5.076   2.343   8.008  0.5481 -0.2239 -0.5797
   10SAPS  C316 1321   5.088   2.150   8.111  0.5234 -0.0665  0.2646
   10SAPS  H16X 1322   5.006   2.090   8.066  0.4342 -1.4633  2.2581
   10SAPS  H16Y 1323   5.090   2.112   8.215  2.2040 -0.2006  0.1857
   10SAPS  C317 1324   5.221   2.138   8.041  0.4435 -0.1513 -0.2633
   10SAPS  H17X 1325   5.299   2.203   8.086 -0.3589  0.3506  0.4309
   10SAPS  H17Y 1326   5.223   2.181   7.939  0.9414 -0.5297 -0.4131
   10SAPS  C318 1327   5.263   1.993   8.039 -0.0442  0.1090  0.2456
   10SAPS  H18X 1328   5.364   1.981   7.995  0.4123 -0.2767  1.4011
   10SAPS  H18Y 1329   5.192   1.927   7.984 -0.6421  1.0407 -0.1020
   10SAPS  H18Z 1330   5.261   1.956   8.144  0.5891 -0.9300 -0.0921
   11SAPS     N 1331   6.730   5.965   5.834  0.4344 -0.0227  0.0818
   11SAPS   HN1 1332   6.643   5.961   5.891 -0.0859 -2.1982 -0.8361
   11SAPS   HN2 1333   6.746   5.870   5.796 -0.7098  0.0394 -0.5494
   11SAPS   HN3 1334   6.813   5.991   5.892  1.4888  1.1952 -1.9371
   11SAPS   C12 1335   6.706   6.066   5.727 -0.3380 -0.0902  0.2156
   11SAPS  H12A 1336   6.804   6.086   5.685 -0.0908  2.0977  1.7278
   11SAPS   C13 1337   6.621   6.021   5.602  0.2650  0.1821 -0.1101
   11SAPS  O13A 1338   6.586   5.900   5.604  0.0198  0.2750  1.2726
   11SAPS  O13B 1339   6.591   6.103   5.506  0.1857 -0.6478  0.6722
   11SAPS   C11 1340   6.652   6.199   5.791  0.1245 -0.3320  0.3878
   11SAPS  H11A 1341   6.548   6.188   5.829  0.0363 -0.6642  0.0600
   11SAPS  H11B 1342   6.647   6.272   5.707 -0.7213 -0.9017 -0.0657
   11SAPS     P 1343   6.702   6.371   5.984  0.2128 -0.2507 -0.3153
   11SAPS   O13 1344   6.817   6.392   6.076 -0.4906 -0.2273  0.0400
   11SAPS   O14 1345   6.671   6.497   5.907  0.2005 -0.4161 -0.3640
   11SAPS   O12 1346   6.739   6.248   5.887  0.5425 -0.2791  0.4465
   11SAPS   O11 1347   6.577   6.323   6.065  0.2157 -0.5704  0.1128
   11SAPS    C1 1348   6.590   6.209   6.148 -0.2125 -0.3410  0.1761
   11SAPS    HA 1349   6.592   6.117   6.086 -1.8752 -0.8656  0.8782
   11SAPS    HB 1350   6.689   6.201   6.199  0.2334 -0.4915 -0.6970
   11SAPS    C2 1351   6.484   6.195   6.257  0.2307  0.2812  0.5294
   11SAPS    HS 1352   6.382   6.184   6.213  0.8399  0.4972 -0.9928
   11SAPS   O21 1353   6.486   6.313   6.340 -0.3735 -0.7021 -0.0189
   11SAPS   C21 1354   6.390   6.406   6.324  0.2309  0.0521 -0.4002
   11SAPS   O22 1355   6.305   6.403   6.237  0.4906 -0.1820  0.6870
   11SAPS   C22 1356   6.410   6.527   6.421  0.0847  0.1516  0.7677
   11SAPS   H2R 1357   6.494   6.584   6.375 -1.4417  1.8505  0.0268
   11SAPS   H2S 1358   6.325   6.598   6.418  0.3773  0.4282 -1.8224
   11SAPS    C3 1359   6.513   6.064   6.339  0.1717  0.0546 -0.2391
   11SAPS    HX 1360   6.509   5.980   6.265 -2.4217 -1.2345  1.2743
   11SAPS    HY 1361   6.432   6.038   6.411  0.5939 -1.8174 -0.3989
   11SAPS   O31 1362   6.640   6.063   6.401  0.0901 -0.1618  0.7823
   11SAPS   C31 1363   6.649   6.104   6.526  0.1474  0.7725  0.0102
   11SAPS   O32 1364   6.557   6.127   6.603 -0.0377 -0.2083 -0.3896
   11SAPS   C32 1365   6.798   6.119   6.556 -0.2524 -0.1106 -0.1661
   11SAPS   H2X 1366   6.830   6.209   6.499  0.7954  0.3287  1.0816
   11SAPS   H2Y 1367   6.843   6.031   6.505 -1.6700 -1.4754  0.8886
   11SAPS   C23 1368   6.437   6.498   6.567 -0.3222  0.1123 -0.0894
   11SAPS   H3R 1369   6.495   6.584   6.606  0.8970 -0.0662 -1.4716
   11SAPS   H3S 1370   6.510   6.414   6.574  1.5669  1.5742 -1.7222
   11SAPS   C24 1371   6.313   6.485   6.651 -1.1346 -0.2855  0.0391
   11SAPS   H4R 1372   6.225   6.541   6.612 -0.9265  0.6814  0.9498
   11SAPS   H4S 1373   6.343   6.534   6.746 -1.5034  1.2350 -0.6298
   11SAPS   C25 1374   6.283   6.341   6.687 -0.3477  0.4093  0.3682
   11SAPS   H5R 1375   6.285   6.271   6.602 -3.2575  0.2630  0.3558
   11SAPS   C26 1376   6.250   6.299   6.806  0.0773 -0.1139 -0.4070
   11SAPS   H6R 1377   6.222   6.194   6.822 -0.7467 -0.0599 -1.4156
   11SAPS   C27 1378   6.235   6.381   6.929 -1.0457  0.0418 -0.0428
   11SAPS   H7R 1379   6.323   6.445   6.949 -0.1949 -0.6486 -1.5317
   11SAPS   H7S 1380   6.252   6.322   7.022  2.3594 -0.1456 -0.7349
   11SAPS   C28 1381   6.100   6.454   6.933 -0.1254 -0.0122 -0.3335
   11SAPS   H8R 1382   6.080   6.524   6.850  0.6871 -1.1805 -1.5425
   11SAPS   C29 1383   6.003   6.445   7.026 -0.0291  0.4034  0.1161
   11SAPS   H9R 1384   5.920   6.514   7.006 -1.7803 -0.8018  2.9466
   11SAPS  C210 1385   6.000   6.356   7.153 -0.0508 -0.6628 -0.6563
   11SAPS  H10R 1386   6.076   6.275   7.145 -0.4087 -1.1432  0.7087
   11SAPS  H10S 1387   5.904   6.302   7.162 -0.5094 -0.0766 -1.8904
   11SAPS  C211 1388   6.040   6.451   7.268  0.2902  0.4063 -0.5033
   11SAPS  H11R 1389   6.105   6.538   7.254 -0.1218  0.7064 -0.5369
   11SAPS  C212 1390   5.989   6.431   7.398  0.0688 -0.1086  0.0687
   11SAPS  H12R 1391   6.027   6.506   7.469  0.6701 -2.2945  2.0978
   11SAPS  C213 1392   5.884   6.330   7.440  0.4973  0.5219 -0.3808
   11SAPS  H13R 1393   5.934   6.242   7.488 -0.1740  0.5923  0.4511
   11SAPS  H13S 1394   5.833   6.282   7.354  1.7373  1.4988 -1.6710
   11SAPS  C214 1395   5.782   6.399   7.527  0.1682  0.4437 -0.2928
   11SAPS  H14R 1396   5.731   6.484   7.480 -0.5265  0.6089  0.7619
   11SAPS  C215 1397   5.753   6.373   7.654  1.0842 -0.4355 -0.3892
   11SAPS  H15R 1398   5.674   6.435   7.698  1.8486 -0.9602  1.7808
   11SAPS  C216 1399   5.809   6.273   7.747  0.0665 -0.4761  0.0301
   11SAPS  H16R 1400   5.916   6.290   7.769 -0.2580  0.6849  0.7421
   11SAPS  H16S 1401   5.811   6.170   7.704 -0.1918  0.2257 -1.7301
   11SAPS  C217 1402   5.732   6.247   7.883 -0.4310  0.5212  0.3728
   11SAPS  H17R 1403   5.638   6.206   7.842 -0.0870  0.4703 -0.3840
   11SAPS  H17S 1404   5.722   6.344   7.937  0.0884  1.1413 -0.6030
   11SAPS  C218 1405   5.806   6.155   7.981  0.2963 -0.0997 -0.4487
   11SAPS  H18R 1406   5.894   6.211   8.020 -1.1226  1.4525  0.5717
   11SAPS  H18S 1407   5.838   6.060   7.934 -0.5394 -1.8215  2.2946
   11SAPS  C219 1408   5.712   6.111   8.091 -0.0557 -0.2568 -0.2981
   11SAPS  H19R 1409   5.758   6.031   8.153  1.0464 -0.1947 -1.0213
   11SAPS  H19S 1410   5.627   6.060   8.041 -0.3758  0.3630 -0.3779
   11SAPS  C220 1411   5.656   6.217   8.189 -0.1142 -0.0636  0.4972
   11SAPS  H20R 1412   5.557   6.188   8.230  0.5222 -4.8575 -1.0491
   11SAPS  H20S 1413   5.641   6.315   8.138  2.1839 -0.5889 -1.2906
   11SAPS  H20T 1414   5.724   6.241   8.273 -1.3521  2.7446  0.7524
   11SAPS   C33 1415   6.839   6.142   6.703  0.2260 -0.0159 -0.0933
   11SAPS   H3X 1416   6.842   6.040   6.749 -1.2980 -0.0482 -0.0594
   11SAPS   H3Y 1417   6.752   6.188   6.754 -0.1183  0.4146 -1.0673
   11SAPS   C34 1418   6.959   6.237   6.725 -0.2612  0.1958 -0.5676
   11SAPS   H4X 1419   6.932   6.344   6.731 -1.6342 -0.0779 -1.6710
   11SAPS   H4Y 1420   7.028   6.227   6.639 -2.0448 -4.8637 -1.6180
   11SAPS   C35 1421   7.023   6.197   6.863  0.1121 -0.0712  0.1545
   11SAPS   H5X 1422   7.056   6.092   6.847 -1.4206 -0.5961  0.3535
   11SAPS   H5Y 1423   6.953   6.208   6.948  1.4213  2.5572  0.9683
   11SAPS   C36 1424   7.138   6.291   6.903 -0.2301  0.0759  0.0936
   11SAPS   H6X 1425   7.097   6.394   6.907 -0.7063 -0.1402  1.1393
   11SAPS   H6Y 1426   7.213   6.279   6.822  0.0766  0.2385  0.3548
   11SAPS   C37 1427   7.194   6.269   7.045 -0.3703 -0.6569 -0.2185
   11SAPS   H7X 1428   7.116   6.314   7.111  2.7591  1.4854  2.1789
   11SAPS   H7Y 1429   7.295   6.312   7.062 -0.3663 -0.2458 -1.2493
   11SAPS   C38 1430   7.203   6.125   7.090  0.9735  0.4542  0.4499
   11SAPS   H8X 1431   7.258   6.067   7.013 -1.0233 -1.7873  0.6892
   11SAPS   H8Y 1432   7.099   6.086   7.094  1.4897 -1.1333 -1.0061
   11SAPS   C39 1433   7.284   6.108   7.221  0.6369 -0.3265  0.0634
   11SAPS   H9X 1434   7.306   6.204   7.272 -0.0955 -0.3405  0.4059
   11SAPS   H9Y 1435   7.387   6.075   7.196  0.1634 -2.4790  0.7954
   11SAPS  C310 1436   7.205   6.015   7.314 -0.7257  0.8131  0.4149
   11SAPS  H10X 1437   7.191   5.930   7.244  1.0416  0.5791  0.3091
   11SAPS  H10Y 1438   7.108   6.066   7.332 -2.4540 -2.2304  0.1736
   11SAPS  C311 1439   7.290   5.978   7.438 -0.0907 -0.1589 -0.6964
   11SAPS  H11X 1440   7.385   5.922   7.426  0.0996  0.1192 -0.4902
   11SAPS  H11Y 1441   7.223   5.917   7.502 -3.4005  2.3005 -1.6454
   11SAPS  C312 1442   7.312   6.105   7.524 -0.0695 -0.4443 -0.1565
   11SAPS  H12X 1443   7.227   6.174   7.543  2.0199  1.8264  1.1218
   11SAPS  H12Y 1444   7.397   6.166   7.486  0.0019 -0.5356 -0.1408
   11SAPS  C313 1445   7.353   6.066   7.662  0.1131 -0.1085  0.4235
   11SAPS  H13X 1446   7.261   6.029   7.712 -0.6287  1.1424 -0.0025
   11SAPS  H13Y 1447   7.395   6.159   7.705 -1.6397  1.2814 -0.7803
   11SAPS  C314 1448   7.464   5.965   7.681  0.1140 -0.0305 -0.0239
   11SAPS  H14X 1449   7.548   5.992   7.614 -0.7075  1.4251 -0.4990
   11SAPS  H14Y 1450   7.421   5.873   7.636 -0.2226  0.3505 -0.4956
   11SAPS  C315 1451   7.503   5.947   7.825  0.6751 -0.2861  0.5671
   11SAPS  H15X 1452   7.413   5.908   7.879  1.5397 -1.1271  1.4216
   11SAPS  H15Y 1453   7.535   6.047   7.862  2.3054 -0.5775 -0.0207
   11SAPS  C316 1454   7.608   5.837   7.845  0.2270  0.1545 -0.1863
   11SAPS  H16X 1455   7.689   5.858   7.772  0.5710  0.1719  0.1967
   11SAPS  H16Y 1456   7.553   5.744   7.820 -1.0371  0.5644  1.0073
   11SAPS  C317 1457   7.683   5.839   7.979 -1.0209  0.7203 -0.6302
   11SAPS  H17X 1458   7.759   5.921   7.980  0.3152 -0.5029  1.0249
   11SAPS  H17Y 1459   7.746   5.749   7.996  1.4472  2.4973  0.0459
   11SAPS  C318 1460   7.597   5.856   8.097  0.4471  0.4179 -0.4116
   11SAPS  H18X 1461   7.536   5.948   8.104  0.9127  0.6646  0.4170
   11SAPS  H18Y 1462   7.660   5.853   8.188  1.9336 -1.2063 -1.4463
   11SAPS  H18Z 1463   7.538   5.764   8.117  0.9982  0.3409  0.8666
   12SAPS     N 1464   5.489   0.715   5.832 -0.1833 -0.5762 -0.4155
   12SAPS   HN1 1465   5.481   0.807   5.785 -1.8149 -0.8003 -0.6123
   12SAPS   HN2 1466   5.572   0.724   5.894  0.2053  0.9518 -1.1315
   12SAPS   HN3 1467   5.507   0.646   5.756 -1.7521 -1.1093 -0.3221
   12SAPS   C12 1468   5.363   0.695   5.918  0.0567 -0.3457 -0.1401
   12SAPS  H12A 1469   5.276   0.746   5.879  1.3844  0.3495 -2.2582
   12SAPS   C13 1470   5.315   0.541   5.923  0.3458  0.1694  0.0349
   12SAPS  O13A 1471   5.383   0.453   5.865  0.4959  0.4817  0.3118
   12SAPS  O13B 1472   5.226   0.511   6.011  0.1311  0.1304  0.4540
   12SAPS   C11 1473   5.386   0.745   6.061  0.7150 -0.8220 -0.0520
   12SAPS  H11A 1474   5.460   0.675   6.105  2.0531  0.7362  0.2807
   12SAPS  H11B 1475   5.289   0.729   6.111  0.8310 -0.1049  0.4068
   12SAPS     P 1476   5.576   0.909   6.099 -0.2797 -0.4442 -0.4014
   12SAPS   O13 1477   5.653   0.843   5.990 -0.4626 -0.1063  0.1221
   12SAPS   O14 1478   5.590   1.056   6.105 -0.0751  0.5363 -0.2072
   12SAPS   O12 1479   5.420   0.883   6.077  0.7039 -0.2330  0.4255
   12SAPS   O11 1480   5.596   0.847   6.245  0.2772 -0.1134 -0.0362
   12SAPS    C1 1481   5.597   0.926   6.364 -0.6191 -0.0037  1.2195
   12SAPS    HA 1482   5.507   0.990   6.381 -0.0475  0.5574  2.2091
   12SAPS    HB 1483   5.590   0.859   6.453 -1.4776 -1.5245  0.0303
   12SAPS    C2 1484   5.735   1.007   6.382 -0.6134  0.5666 -0.2425
   12SAPS    HS 1485   5.762   1.053   6.284  0.9684 -1.6089 -0.8840
   12SAPS   O21 1486   5.844   0.930   6.433 -0.1544  0.1643 -0.1744
   12SAPS   C21 1487   5.917   0.865   6.345  0.1755 -0.0377 -0.3576
   12SAPS   O22 1488   5.915   0.868   6.227  0.5476  0.4306 -0.5632
   12SAPS   C22 1489   6.009   0.769   6.423  0.1864 -0.0396 -0.4666
   12SAPS   H2R 1490   6.058   0.703   6.348 -0.3531  0.4739 -1.2797
   12SAPS   H2S 1491   6.085   0.826   6.481  1.4053 -0.2536 -1.8263
   12SAPS    C3 1492   5.715   1.124   6.479 -0.4469  0.3938 -0.0672
   12SAPS    HX 1493   5.625   1.179   6.444 -0.7283 -0.1689 -0.2359
   12SAPS    HY 1494   5.801   1.193   6.476  0.6745 -1.0096 -1.0060
   12SAPS   O31 1495   5.691   1.070   6.613  0.2202 -0.3659  0.1096
   12SAPS   C31 1496   5.775   1.107   6.706 -0.4611 -0.5752 -0.6580
   12SAPS   O32 1497   5.876   1.182   6.696  0.0297 -0.5677  0.0693
   12SAPS   C32 1498   5.735   1.044   6.839 -0.5611 -0.2524  0.4709
   12SAPS   H2X 1499   5.815   0.968   6.854  0.4741  0.9381  1.0547
   12SAPS   H2Y 1500   5.636   0.992   6.836 -0.7693  0.1730  0.0064
   12SAPS   C23 1501   5.945   0.666   6.520  0.9438  0.0676 -0.5486
   12SAPS   H3R 1502   5.859   0.619   6.467 -0.6472  0.3115  1.7541
   12SAPS   H3S 1503   5.900   0.720   6.605  0.5219 -0.6486 -0.3079
   12SAPS   C24 1504   6.050   0.560   6.563 -0.3602 -0.6815  0.5838
   12SAPS   H4R 1505   6.120   0.615   6.629  1.1717  0.8734 -2.2361
   12SAPS   H4S 1506   6.109   0.525   6.476 -1.3250 -1.5310  0.2646
   12SAPS   C25 1507   5.992   0.445   6.632  0.1716 -0.3603 -0.3480
   12SAPS   H5R 1508   5.921   0.391   6.567 -3.0093  0.2534  2.4493
   12SAPS   C26 1509   5.981   0.427   6.765  0.3540 -0.4669 -0.8847
   12SAPS   H6R 1510   5.924   0.338   6.797  2.9296 -2.4926 -1.7953
   12SAPS   C27 1511   6.025   0.522   6.872 -0.5829  0.9646  0.8436
   12SAPS   H7R 1512   5.966   0.519   6.965 -0.7414  0.6579  0.7344
   12SAPS   H7S 1513   6.010   0.624   6.831 -1.3325  0.2290 -0.7632
   12SAPS   C28 1514   6.173   0.513   6.901  0.7630  0.1538  0.1800
   12SAPS   H8R 1515   6.242   0.543   6.821 -0.2929 -0.2300 -0.8943
   12SAPS   C29 1516   6.221   0.457   7.017  0.0894 -0.2440  0.0767
   12SAPS   H9R 1517   6.329   0.446   7.031  0.0678  0.7367  1.0871
   12SAPS  C210 1518   6.146   0.391   7.131  0.2180 -0.3792  0.8460
   12SAPS  H10R 1519   6.213   0.317   7.180  0.4548 -0.8608 -0.2129
   12SAPS  H10S 1520   6.065   0.332   7.083  1.5039 -2.0003  0.6321
   12SAPS  C211 1521   6.085   0.489   7.232 -0.2548 -0.4562 -0.8909
   12SAPS  H11R 1522   6.057   0.589   7.193 -0.5002 -0.4889 -0.7949
   12SAPS  C212 1523   6.100   0.483   7.364  1.1980  0.2655 -0.1844
   12SAPS  H12R 1524   6.056   0.570   7.416 -1.0588  0.5534 -2.5170
   12SAPS  C213 1525   6.167   0.375   7.446 -0.3854  0.1083  0.9094
   12SAPS  H13R 1526   6.260   0.341   7.394 -1.1786  0.2840 -0.6658
   12SAPS  H13S 1527   6.101   0.286   7.447 -0.9287  0.4928  0.1344
   12SAPS  C214 1528   6.201   0.434   7.582 -0.4614 -0.4413  0.2637
   12SAPS  H14R 1529   6.250   0.532   7.581 -0.2037 -0.5681 -0.1570
   12SAPS  C215 1530   6.175   0.370   7.696  0.0206 -0.6209 -0.1405
   12SAPS  H15R 1531   6.202   0.417   7.792  0.3883 -0.5112 -0.2972
   12SAPS  C216 1532   6.112   0.233   7.711 -0.2050 -0.8089  0.4050
   12SAPS  H16R 1533   6.183   0.149   7.696 -0.0342 -0.7258  0.7315
   12SAPS  H16S 1534   6.032   0.227   7.634 -0.9462 -2.3451  1.2784
   12SAPS  C217 1535   6.034   0.216   7.840  0.2188  0.1995 -0.3017
   12SAPS  H17R 1536   5.983   0.118   7.838 -0.3014  0.4660 -0.2855
   12SAPS  H17S 1537   5.947   0.281   7.863  0.9051  0.4011  1.7912
   12SAPS  C218 1538   6.112   0.208   7.971 -0.4112 -0.1191 -0.3285
   12SAPS  H18R 1539   6.156   0.307   7.997 -2.0655  0.3207  0.8839
   12SAPS  H18S 1540   6.200   0.140   7.967 -2.6021 -3.0431 -0.5565
   12SAPS  C219 1541   6.030   0.170   8.087  0.3561  0.2481 -0.8311
   12SAPS  H19R 1542   5.994   0.067   8.068  1.8555 -0.4967  0.1971
   12SAPS  H19S 1543   5.935   0.228   8.086  1.2887  1.8006 -0.4581
   12SAPS  C220 1544   6.091   0.191   8.228 -0.7478  0.1255 -0.2395
   12SAPS  H20R 1545   6.020   0.146   8.300  0.6737 -1.1781  0.3723
   12SAPS  H20S 1546   6.101   0.301   8.233  2.2720 -0.0032 -1.8923
   12SAPS  H20T 1547   6.193   0.146   8.227 -0.3637  0.9638  0.8338
   12SAPS   C33 1548   5.743   1.142   6.957  0.1818 -0.8046  0.0465
   12SAPS   H3X 1549   5.679   1.230   6.936  0.3741 -0.7614 -0.3711
   12SAPS   H3Y 1550   5.850   1.171   6.962  0.3288 -1.5715  1.5979
   12SAPS   C34 1551   5.707   1.098   7.100  0.6558 -0.4248  0.0295
   12SAPS   H4X 1552   5.605   1.056   7.090  0.9522 -0.7797 -1.5882
   12SAPS   H4Y 1553   5.691   1.190   7.160 -1.9731 -0.6866 -0.2381
   12SAPS   C35 1554   5.803   1.005   7.163 -0.3450  1.0106  0.4920
   12SAPS   H5X 1555   5.900   1.056   7.148  1.6317 -3.2316 -1.8804
   12SAPS   H5Y 1556   5.806   0.910   7.106 -0.1844  0.4237  1.4576
   12SAPS   C36 1557   5.768   0.979   7.308  0.5341 -0.9876  0.1994
   12SAPS   H6X 1558   5.673   0.926   7.327  0.7621 -2.1257 -1.6968
   12SAPS   H6Y 1559   5.741   1.069   7.367  0.2035 -0.6101 -0.5156
   12SAPS   C37 1560   5.877   0.905   7.379 -0.0553 -0.1513 -1.4066
   12SAPS   H7X 1561   5.976   0.951   7.355 -1.6836  2.8764 -2.5156
   12SAPS   H7Y 1562   5.881   0.801   7.339 -1.1910  0.6356 -3.6053
   12SAPS   C38 1563   5.858   0.908   7.526 -0.0535 -0.6510  0.1336
   12SAPS   H8X 1564   5.757   0.873   7.556 -0.0243  0.4585  1.5973
   12SAPS   H8Y 1565   5.864   1.014   7.558 -1.2161 -0.1783 -1.2012
   12SAPS   C39 1566   5.965   0.820   7.593  1.2964  0.4643  0.1228
   12SAPS   H9X 1567   6.064   0.825   7.543  0.7770  0.9994 -0.8687
   12SAPS   H9Y 1568   5.929   0.715   7.588  0.9103  0.5694  0.6537
   12SAPS  C310 1569   5.968   0.829   7.747  0.0600  0.0469 -0.2638
   12SAPS  H10X 1570   5.867   0.819   7.794  0.5825  2.6493  1.4742
   12SAPS  H10Y 1571   6.012   0.927   7.775 -0.5887  0.2356  0.1227
   12SAPS  C311 1572   6.058   0.726   7.813  0.4578  0.6703 -0.1144
   12SAPS  H11X 1573   6.162   0.742   7.777  1.6366 -1.1841  2.3582
   12SAPS  H11Y 1574   6.020   0.629   7.776  0.7060  0.7337 -0.5412
   12SAPS  C312 1575   6.039   0.719   7.965 -0.4326 -0.8923  0.0008
   12SAPS  H12X 1576   5.933   0.723   7.998 -0.1631 -1.6315  0.9723
   12SAPS  H12Y 1577   6.092   0.805   8.009 -0.9743 -1.0416  0.9357
   12SAPS  C313 1578   6.104   0.593   8.028 -0.6410  0.5333 -0.7483
   12SAPS  H13X 1579   6.207   0.592   7.986  0.3947  0.6895  1.7039
   12SAPS  H13Y 1580   6.041   0.505   8.005 -0.3226  0.4760 -1.4048
   12SAPS  C314 1581   6.133   0.604   8.178 -0.1636 -0.5485  0.1638
   12SAPS  H14X 1582   6.165   0.504   8.214 -2.7579 -1.3513  0.3548
   12SAPS  H14Y 1583   6.037   0.628   8.228  0.6353  1.0858  0.9744
   12SAPS  C315 1584   6.244   0.709   8.206  0.2437 -0.2918  0.1050
   12SAPS  H15X 1585   6.248   0.795   8.136  1.8808 -0.6877 -0.2929
   12SAPS  H15Y 1586   6.343   0.662   8.192 -0.3798 -2.3137  2.2787
   12SAPS  C316 1587   6.227   0.769   8.346  1.0434  0.1137  0.0778
   12SAPS  H16X 1588   6.220   0.687   8.421  1.0667  0.0895  0.0537
   12SAPS  H16Y 1589   6.133   0.828   8.345  0.3930 -0.9152 -0.0889
   12SAPS  C317 1590   6.319   0.880   8.392  0.0653  0.0188  0.3830
   12SAPS  H17X 1591   6.282   0.911   8.492  1.3252  2.7018  0.0491
   12SAPS  H17Y 1592   6.314   0.968   8.324 -1.9560 -0.3461  0.0181
   12SAPS  C318 1593   6.461   0.836   8.418  0.2973 -0.3330 -0.1937
   12SAPS  H18X 1594   6.517   0.822   8.323 -0.8226 -0.1847 -0.8885
   12SAPS  H18Y 1595   6.460   0.735   8.463 -2.2121 -0.0459  0.5060
   12SAPS  H18Z 1596   6.519   0.910   8.477 -2.2467 -0.7312  2.9216
   13SAPS     N 1597   0.002   4.896   6.312 -0.7838  0.3219 -0.4439
   13SAPS   HN1 1598  -0.017   4.946   6.401  0.4627 -3.5460  2.1049
   13SAPS   HN2 1599   0.012   4.794   6.325  2.0239  0.5343 -0.5626
   13SAPS   HN3 1600   0.095   4.933   6.284 -1.0378  0.7242 -0.7649
   13SAPS   C12 1601  -0.091   4.912   6.200 -0.0073  0.5733 -0.0084
   13SAPS  H12A 1602  -0.079   5.017   6.178 -1.4437  0.2116 -2.6833
   13SAPS   C13 1603  -0.077   4.836   6.078 -0.1863 -0.7776 -0.8209
   13SAPS  O13A 1604   0.021   4.756   6.063  0.2615 -0.7294 -0.7362
   13SAPS  O13B 1605  -0.151   4.863   5.979  0.1206 -0.0442  0.0983
   13SAPS   C11 1606  -0.237   4.891   6.252 -0.3992 -0.4361  0.1309
   13SAPS  H11A 1607  -0.306   4.909   6.167 -0.0029  0.4562 -0.0048
   13SAPS  H11B 1608  -0.269   4.963   6.330  0.9763 -0.2139  0.4977
   13SAPS     P 1609  -0.390   4.704   6.358  0.1853 -0.1088 -0.3918
   13SAPS   O13 1610  -0.511   4.723   6.275 -0.3009 -0.0947 -0.3361
   13SAPS   O14 1611  -0.371   4.567   6.403  0.0151  0.4417  0.3025
   13SAPS   O12 1612  -0.258   4.752   6.282  0.0785 -0.4253 -0.6104
   13SAPS   O11 1613  -0.377   4.792   6.491 -0.8952 -0.2283  0.3445
   13SAPS    C1 1614  -0.261   4.774   6.574  0.3803  0.3383 -0.3400
   13SAPS    HA 1615  -0.182   4.707   6.536  1.1158  0.0954  1.5262
   13SAPS    HB 1616  -0.212   4.872   6.594 -0.0653 -0.1350  3.6083
   13SAPS    C2 1617  -0.304   4.707   6.712  1.5721 -0.4604  0.2005
   13SAPS    HS 1618  -0.376   4.626   6.690 -0.8296  1.2426  1.5150
   13SAPS   O21 1619  -0.363   4.808   6.791 -0.1191  0.1209 -0.6909
   13SAPS   C21 1620  -0.499   4.822   6.779  0.1213 -0.4078 -0.5026
   13SAPS   O22 1621  -0.568   4.739   6.729 -0.3951  0.1800  0.0675
   13SAPS   C22 1622  -0.542   4.945   6.856  0.3265 -0.2902 -0.8954
   13SAPS   H2R 1623  -0.491   5.038   6.822  0.5593 -1.1803 -3.0504
   13SAPS   H2S 1624  -0.651   4.967   6.847 -0.0080 -1.8990 -0.9331
   13SAPS    C3 1625  -0.176   4.651   6.789 -0.4466  0.3242  0.0042
   13SAPS    HX 1626  -0.091   4.703   6.740 -1.9039  2.5448 -0.2589
   13SAPS    HY 1627  -0.173   4.542   6.770 -0.5870  0.6150 -1.7140
   13SAPS   O31 1628  -0.183   4.675   6.930 -0.0237 -0.3221  0.0273
   13SAPS   C31 1629  -0.265   4.596   7.003  0.1712 -0.9400 -0.2311
   13SAPS   O32 1630  -0.315   4.493   6.970 -0.2325  0.2574 -0.3634
   13SAPS   C32 1631  -0.267   4.654   7.147  0.4525 -0.3336 -0.3178
   13SAPS   H2X 1632  -0.323   4.749   7.135 -2.5869 -1.8511  1.2718
   13SAPS   H2Y 1633  -0.164   4.684   7.175 -0.1656  0.5560  1.0769
   13SAPS   C23 1634  -0.509   4.929   7.009  0.0249 -0.0592 -0.8260
   13SAPS   H3R 1635  -0.548   5.022   7.056 -0.5275  0.0957 -1.5779
   13SAPS   H3S 1636  -0.402   4.928   7.041 -0.5963  1.0807  1.3503
   13SAPS   C24 1637  -0.588   4.815   7.077  0.1716  0.6035 -0.5599
   13SAPS   H4R 1638  -0.544   4.797   7.177 -0.9606 -1.8169 -0.4426
   13SAPS   H4S 1639  -0.587   4.722   7.016  2.2221  0.4092 -0.2569
   13SAPS   C25 1640  -0.741   4.850   7.090 -0.0814  0.3185  0.2817
   13SAPS   H5R 1641  -0.791   4.852   6.992  0.3943  1.9571  0.0591
   13SAPS   C26 1642  -0.805   4.885   7.204  0.1232  0.1771  0.5170
   13SAPS   H6R 1643  -0.914   4.900   7.202 -0.2348 -2.4451 -1.7017
   13SAPS   C27 1644  -0.732   4.879   7.340  0.4407 -0.0778 -0.2894
   13SAPS   H7R 1645  -0.642   4.945   7.346 -0.2764  0.7613  1.5887
   13SAPS   H7S 1646  -0.699   4.773   7.345 -0.9141 -0.4379  1.4844
   13SAPS   C28 1647  -0.823   4.897   7.458 -0.4034 -0.1507 -0.4104
   13SAPS   H8R 1648  -0.931   4.898   7.436 -1.3767 -1.4730  3.8922
   13SAPS   C29 1649  -0.786   4.915   7.585 -0.0377 -0.1245  0.7712
   13SAPS   H9R 1650  -0.863   4.938   7.660  1.0496  0.4048  1.7460
   13SAPS  C210 1651  -0.641   4.913   7.637 -0.0408  0.4427 -0.5895
   13SAPS  H10R 1652  -0.625   5.018   7.670 -2.1263  0.6417 -0.1395
   13SAPS  H10S 1653  -0.565   4.889   7.559  1.1360  1.6464  0.1471
   13SAPS  C211 1654  -0.623   4.817   7.758  0.4107  0.5103  0.2438
   13SAPS  H11R 1655  -0.595   4.714   7.730  1.1983  1.0159 -0.8217
   13SAPS  C212 1656  -0.623   4.849   7.889  0.0501  0.0275 -0.5173
   13SAPS  H12R 1657  -0.597   4.772   7.963  0.4144 -0.1218 -0.8009
   13SAPS  C213 1658  -0.660   4.982   7.954 -0.4447  0.7621  0.5261
   13SAPS  H13R 1659  -0.766   5.007   7.932 -0.5366  0.6942  0.8788
   13SAPS  H13S 1660  -0.605   5.062   7.899 -0.2066  0.3515  0.1694
   13SAPS  C214 1661  -0.636   4.991   8.105 -0.6020  0.4965  0.1414
   13SAPS  H14R 1662  -0.542   4.945   8.141 -0.9833  0.7926  1.5407
   13SAPS  C215 1663  -0.728   5.019   8.197  0.2609 -0.2673 -0.3564
   13SAPS  H15R 1664  -0.706   5.003   8.303  1.4541  0.5682 -0.4576
   13SAPS  C216 1665  -0.872   5.050   8.183  0.1407 -0.3868 -0.1518
   13SAPS  H16R 1666  -0.907   5.076   8.081 -1.7099  1.5550  0.9237
   13SAPS  H16S 1667  -0.905   5.136   8.246 -1.6301 -1.6072  0.6100
   13SAPS  C217 1668  -0.955   4.932   8.243  0.3741  0.0697  0.6305
   13SAPS  H17R 1669  -1.057   4.972   8.256  0.2214 -0.1720  0.1735
   13SAPS  H17S 1670  -0.916   4.903   8.343  0.5650 -1.1289  0.2221
   13SAPS  C218 1671  -0.957   4.812   8.146  0.3500  0.5098  0.4767
   13SAPS  H18R 1672  -0.853   4.782   8.122 -0.3307 -0.4092 -1.4833
   13SAPS  H18S 1673  -1.008   4.840   8.051 -2.6105 -2.0973  1.2170
   13SAPS  C219 1674  -1.037   4.698   8.206  0.8787 -0.8019  0.2561
   13SAPS  H19R 1675  -0.971   4.672   8.291 -0.2488 -2.2267  0.7122
   13SAPS  H19S 1676  -1.036   4.614   8.133  1.1549  0.1420 -0.8512
   13SAPS  C220 1677  -1.181   4.737   8.243 -0.7950 -0.9617  0.4199
   13SAPS  H20R 1678  -1.247   4.771   8.160 -1.4746  3.2655  2.5523
   13SAPS  H20S 1679  -1.184   4.806   8.329 -1.4064  0.2361 -0.5497
   13SAPS  H20T 1680  -1.222   4.642   8.284 -0.2770 -0.6989  1.5603
   13SAPS   C33 1681  -0.340   4.553   7.249 -0.6386 -0.5730  0.6430
   13SAPS   H3X 1682  -0.289   4.455   7.250 -1.8139 -1.1920  3.2354
   13SAPS   H3Y 1683  -0.442   4.514   7.227 -1.1772 -0.1111  2.2858
   13SAPS   C34 1684  -0.353   4.596   7.396 -0.4052 -0.2801 -0.0929
   13SAPS   H4X 1685  -0.418   4.686   7.398 -0.5884 -0.3953 -0.8201
   13SAPS   H4Y 1686  -0.254   4.626   7.436 -0.1160 -1.8536  0.3983
   13SAPS   C35 1687  -0.407   4.489   7.492 -0.0263  0.0421  0.1080
   13SAPS   H5X 1688  -0.339   4.402   7.475  0.9058  0.2832  2.3883
   13SAPS   H5Y 1689  -0.509   4.447   7.482 -0.6587  1.5376  0.1850
   13SAPS   C36 1690  -0.391   4.526   7.638 -0.2781 -0.9601 -0.7382
   13SAPS   H6X 1691  -0.457   4.612   7.663 -0.2205 -0.1713 -3.1519
   13SAPS   H6Y 1692  -0.290   4.560   7.666 -0.4117  0.0732 -1.4927
   13SAPS   C37 1693  -0.442   4.402   7.726  0.4225  0.0143 -0.0764
   13SAPS   H7X 1694  -0.376   4.313   7.717 -0.2492 -0.7030  1.8524
   13SAPS   H7Y 1695  -0.543   4.373   7.689  0.7809 -0.7439 -0.4691
   13SAPS   C38 1696  -0.452   4.436   7.875  0.1973  0.1076 -0.2755
   13SAPS   H8X 1697  -0.508   4.531   7.882  0.1944  0.2359 -1.7430
   13SAPS   H8Y 1698  -0.345   4.460   7.896 -0.0647 -1.1051  2.6617
   13SAPS   C39 1699  -0.497   4.322   7.973 -0.4169 -0.0722 -0.5175
   13SAPS   H9X 1700  -0.431   4.233   7.969  0.7356  0.8590 -3.4827
   13SAPS   H9Y 1701  -0.599   4.291   7.940 -0.6128  1.3274 -1.3085
   13SAPS  C310 1702  -0.496   4.364   8.116  0.1224  0.2682 -0.0047
   13SAPS  H10X 1703  -0.404   4.423   8.134  0.4052 -0.2193  0.1716
   13SAPS  H10Y 1704  -0.491   4.273   8.179  4.5183  0.5519  0.2382
   13SAPS  C311 1705  -0.612   4.446   8.160  0.1008 -0.0568 -0.4177
   13SAPS  H11X 1706  -0.706   4.387   8.149 -1.7413  2.9982 -1.7110
   13SAPS  H11Y 1707  -0.627   4.535   8.096  1.2993 -1.4377 -2.6367
   13SAPS  C312 1708  -0.602   4.491   8.302  0.3963 -0.3269 -0.1317
   13SAPS  H12X 1709  -0.500   4.531   8.321  1.3774 -3.0660  0.6066
   13SAPS  H12Y 1710  -0.602   4.408   8.375  0.3322  0.5521  0.8910
   13SAPS  C313 1711  -0.707   4.587   8.358  0.3872 -0.2412  0.0920
   13SAPS  H13X 1712  -0.805   4.536   8.352  2.1960 -3.7290 -1.0046
   13SAPS  H13Y 1713  -0.720   4.672   8.287 -1.2817  0.6897  1.4673
   13SAPS  C314 1714  -0.668   4.642   8.496 -0.0296 -0.3435  0.6693
   13SAPS  H14X 1715  -0.750   4.709   8.530 -1.2093 -0.7047 -1.3784
   13SAPS  H14Y 1716  -0.566   4.687   8.493 -0.0249 -0.3451  0.8134
   13SAPS  C315 1717  -0.651   4.542   8.611  0.3091  0.4514  0.3400
   13SAPS  H15X 1718  -0.576   4.466   8.583  0.2926  0.3611  0.5370
   13SAPS  H15Y 1719  -0.747   4.496   8.642  0.4694 -0.3438 -0.3466
   13SAPS  C316 1720  -0.601   4.609   8.745  0.0477  0.4183  0.0391
   13SAPS  H16X 1721  -0.504   4.657   8.721  0.2958  0.6026  1.3690
   13SAPS  H16Y 1722  -0.597   4.522   8.813  1.1953 -0.0295 -0.5896
   13SAPS  C317 1723  -0.691   4.719   8.800 -0.9237 -0.3848  0.3403
   13SAPS  H17X 1724  -0.778   4.662   8.838 -1.8413 -1.2718 -2.9286
   13SAPS  H17Y 1725  -0.736   4.792   8.729 -1.3147 -1.0281 -0.0852
   13SAPS  C318 1726  -0.631   4.798   8.919 -0.3694  0.9050  0.3420
   13SAPS  H18X 1727  -0.710   4.836   8.988 -1.1668 -0.3242  0.1077
   13SAPS  H18Y 1728  -0.560   4.881   8.895 -0.7681  1.6790  1.7862
   13SAPS  H18Z 1729  -0.570   4.729   8.980 -0.9970  0.5767  0.6021
   14SAPS     N 1730   5.990   6.767   5.989 -0.6509  0.9175 -0.4283
   14SAPS   HN1 1731   6.066   6.715   6.037  0.2293  1.9633 -0.6873
   14SAPS   HN2 1732   6.031   6.856   5.955  1.8208 -0.0995 -0.2012
   14SAPS   HN3 1733   5.915   6.789   6.057 -0.6388  0.5281 -0.2850
   14SAPS   C12 1734   5.940   6.709   5.860 -0.4269  0.7486  0.0779
   14SAPS  H12A 1735   5.943   6.602   5.876 -2.3926  0.8583  1.3665
   14SAPS   C13 1736   5.796   6.730   5.821 -0.3284 -0.7862 -0.1444
   14SAPS  O13A 1737   5.724   6.793   5.900 -0.3199  0.3068  0.0796
   14SAPS  O13B 1738   5.743   6.664   5.723  0.1195 -0.3664 -0.5243
   14SAPS   C11 1739   6.036   6.740   5.737  0.4046 -0.2270 -0.4701
   14SAPS  H11A 1740   6.009   6.666   5.659 -2.7828  0.8539 -0.4978
   14SAPS  H11B 1741   6.139   6.724   5.773  0.2702  0.1753  0.1000
   14SAPS     P 1742   6.102   7.001   5.740 -0.2791 -0.0837 -0.3781
   14SAPS   O13 1743   6.241   6.964   5.735 -0.2107  0.1167 -0.3885
   14SAPS   O14 1744   6.061   7.122   5.665 -0.1757  0.7815  0.2838
   14SAPS   O12 1745   6.028   6.873   5.685 -0.0957 -0.0225  0.4122
   14SAPS   O11 1746   6.050   7.015   5.889 -0.5828 -0.1751 -0.0225
   14SAPS    C1 1747   6.086   7.136   5.955  0.2669 -0.3779 -0.1504
   14SAPS    HA 1748   6.194   7.164   5.953  0.3221 -0.5482  0.5926
   14SAPS    HB 1749   6.035   7.220   5.903  1.3635 -0.5862 -1.6316
   14SAPS    C2 1750   6.045   7.124   6.098  0.0801 -0.4927  0.0153
   14SAPS    HS 1751   6.053   7.217   6.159 -1.1953  0.1261 -0.7472
   14SAPS   O21 1752   6.116   7.021   6.154  0.6936 -0.1564 -0.1931
   14SAPS   C21 1753   6.204   7.050   6.250 -0.7236  0.6897  0.3520
   14SAPS   O22 1754   6.214   7.153   6.314  0.2902 -0.0160 -0.2888
   14SAPS   C22 1755   6.303   6.937   6.244 -0.1612  0.2743  0.1853
   14SAPS   H2R 1756   6.248   6.840   6.254 -0.9115  0.7964  1.3683
   14SAPS   H2S 1757   6.352   6.936   6.145  2.6124 -0.1951  1.5143
   14SAPS    C3 1758   5.891   7.090   6.101 -0.1459 -0.0773  0.5134
   14SAPS    HX 1759   5.869   7.000   6.040 -0.6169  0.5866 -0.3019
   14SAPS    HY 1760   5.844   7.176   6.048 -0.9187 -0.0926  1.1698
   14SAPS   O31 1761   5.842   7.087   6.237 -0.0643  0.7080 -0.2413
   14SAPS   C31 1762   5.844   6.967   6.286 -0.4324  0.0182 -0.9554
   14SAPS   O32 1763   5.876   6.866   6.225 -0.2243  0.4779 -0.0838
   14SAPS   C32 1764   5.827   6.980   6.436  0.2367 -0.5400 -0.3682
   14SAPS   H2X 1765   5.775   7.077   6.449  0.9909 -0.1458 -0.2484
   14SAPS   H2Y 1766   5.927   6.987   6.484  0.2566 -0.1797 -0.4623
   14SAPS   C23 1767   6.415   6.936   6.356 -0.1331  0.3065 -0.7930
   14SAPS   H3R 1768   6.482   7.022   6.331 -0.1641 -0.1456 -2.5420
   14SAPS   H3S 1769   6.473   6.843   6.340  0.1833  0.8579 -3.1642
   14SAPS   C24 1770   6.350   6.934   6.494 -0.1684  0.1459  0.7720
   14SAPS   H4R 1771   6.288   6.844   6.514  0.5681 -1.3338 -2.9877
   14SAPS   H4S 1772   6.287   7.025   6.499  0.4336  0.7794 -2.1252
   14SAPS   C25 1773   6.458   6.953   6.600  0.0046 -0.3284  0.1401
   14SAPS   H5R 1774   6.561   6.943   6.562 -0.1985 -1.9162 -0.0047
   14SAPS   C26 1775   6.426   6.963   6.730  0.8573 -0.6571  0.4093
   14SAPS   H6R 1776   6.508   6.992   6.797 -0.8634 -1.5158  2.9580
   14SAPS   C27 1777   6.290   6.964   6.788  0.0210  0.1210  0.5548
   14SAPS   H7R 1778   6.221   6.991   6.705  0.8584  1.0837  0.1601
   14SAPS   H7S 1779   6.283   7.055   6.850 -1.7346  0.0560  0.4637
   14SAPS   C28 1780   6.271   6.834   6.854 -0.8676 -0.0044  0.0764
   14SAPS   H8R 1781   6.249   6.744   6.795 -0.7621  0.3708 -0.5399
   14SAPS   C29 1782   6.293   6.809   6.984 -0.9187  0.5163  0.6668
   14SAPS   H9R 1783   6.284   6.705   7.019  0.7705  0.3218  0.5785
   14SAPS  C210 1784   6.335   6.896   7.100 -0.8288  0.9810  0.0389
   14SAPS  H10R 1785   6.262   6.906   7.183  1.9719 -1.2261  2.9151
   14SAPS  H10S 1786   6.356   7.002   7.072 -0.0411  0.5445 -1.0462
   14SAPS  C211 1787   6.454   6.834   7.171  0.0155  0.0007  0.5808
   14SAPS  H11R 1788   6.547   6.864   7.120  0.3382  0.5223  1.4586
   14SAPS  C212 1789   6.441   6.764   7.284 -0.2409 -0.4162 -0.3664
   14SAPS  H12R 1790   6.526   6.727   7.343 -0.0543  1.0383  0.2851
   14SAPS  C213 1791   6.320   6.732   7.361  0.5855  0.3852 -0.0946
   14SAPS  H13R 1792   6.230   6.727   7.296  0.4377 -3.6302  0.2561
   14SAPS  H13S 1793   6.289   6.811   7.433 -0.0035  1.1806 -1.2127
   14SAPS  C214 1794   6.325   6.592   7.420 -0.0383  0.2597  0.0798
   14SAPS  H14R 1795   6.336   6.512   7.344 -0.3486  0.0810  0.2257
   14SAPS  C215 1796   6.328   6.560   7.556 -0.3045 -0.6202  0.4983
   14SAPS  H15R 1797   6.317   6.457   7.595 -1.6133 -0.2416  1.1629
   14SAPS  C216 1798   6.320   6.664   7.657  0.0709 -0.2290 -0.2604
   14SAPS  H16R 1799   6.358   6.762   7.623 -0.9458  0.1586 -0.2884
   14SAPS  H16S 1800   6.372   6.613   7.742 -1.2575 -0.6002  0.3448
   14SAPS  C217 1801   6.171   6.676   7.706 -0.0908  0.3675 -1.1247
   14SAPS  H17R 1802   6.110   6.711   7.620 -3.3886 -0.8559  0.6321
   14SAPS  H17S 1803   6.170   6.765   7.772  2.3990 -0.3900  0.0089
   14SAPS  C218 1804   6.118   6.558   7.778 -0.2862  1.0245 -0.3572
   14SAPS  H18R 1805   6.141   6.463   7.726  0.9181  0.4586  1.1801
   14SAPS  H18S 1806   6.008   6.566   7.763  0.0868  2.6272 -2.4871
   14SAPS  C219 1807   6.143   6.550   7.925 -0.2211 -0.5864  0.1446
   14SAPS  H19R 1808   6.083   6.634   7.967 -1.6286 -1.8300  0.6561
   14SAPS  H19S 1809   6.253   6.552   7.938 -0.1137 -0.8751 -0.7123
   14SAPS  C220 1810   6.077   6.425   7.992 -0.6332 -0.4493  0.1570
   14SAPS  H20R 1811   6.080   6.426   8.103 -1.3755  0.0583  0.1809
   14SAPS  H20S 1812   6.127   6.332   7.957  0.7639 -0.1625  1.3549
   14SAPS  H20T 1813   5.970   6.415   7.961 -0.0897 -1.3076 -1.4790
   14SAPS   C33 1814   5.743   6.867   6.496 -0.3557 -0.1438  0.0103
   14SAPS   H3X 1815   5.651   6.847   6.436 -0.7715  0.7530  0.3500
   14SAPS   H3Y 1816   5.692   6.902   6.589 -1.0339  0.7097 -0.6722
   14SAPS   C34 1817   5.831   6.744   6.537 -0.0455 -0.6093  0.5599
   14SAPS   H4X 1818   5.886   6.688   6.458 -0.0561 -2.2093  1.6597
   14SAPS   H4Y 1819   5.750   6.674   6.567 -2.0249  1.6055  0.4690
   14SAPS   C35 1820   5.924   6.749   6.659  0.6726  0.0854  0.3859
   14SAPS   H5X 1821   6.006   6.821   6.641 -0.0654  1.4436  2.3413
   14SAPS   H5Y 1822   5.961   6.648   6.687 -1.3120 -0.3665  1.5159
   14SAPS   C36 1823   5.847   6.795   6.784  0.8680 -0.5736  0.6113
   14SAPS   H6X 1824   5.773   6.715   6.808 -1.1495  1.1289  0.2149
   14SAPS   H6Y 1825   5.804   6.895   6.764  3.1895  0.8140  2.3773
   14SAPS   C37 1826   5.927   6.805   6.916  0.2450  0.5439 -0.8662
   14SAPS   H7X 1827   6.009   6.880   6.910  0.1103  0.8652  1.1876
   14SAPS   H7Y 1828   5.977   6.708   6.939 -0.1849  0.9481  1.9130
   14SAPS   C38 1829   5.827   6.822   7.039  0.7329 -0.2736  0.2251
   14SAPS   H8X 1830   5.736   6.759   7.021  0.4064  1.0031 -3.0808
   14SAPS   H8Y 1831   5.792   6.927   7.033 -1.7703 -1.0357  0.6241
   14SAPS   C39 1832   5.908   6.795   7.166  0.7282 -0.2308  0.6727
   14SAPS   H9X 1833   6.009   6.816   7.127  0.1841 -1.1065 -1.2614
   14SAPS   H9Y 1834   5.901   6.688   7.196 -1.0508 -0.4755 -0.5657
   14SAPS  C310 1835   5.876   6.886   7.286  0.2518  0.2801  0.0850
   14SAPS  H10X 1836   5.772   6.925   7.284  0.1919  0.3237  2.1949
   14SAPS  H10Y 1837   5.940   6.976   7.274 -2.2319  2.4855  2.5449
   14SAPS  C311 1838   5.886   6.809   7.422  0.0700  0.4367  0.1468
   14SAPS  H11X 1839   5.988   6.824   7.464  1.5675 -0.8253 -2.8352
   14SAPS  H11Y 1840   5.866   6.704   7.391  1.4967  0.1747  0.0487
   14SAPS  C312 1841   5.791   6.846   7.537 -0.1711  0.1580 -0.1586
   14SAPS  H12X 1842   5.697   6.795   7.505  0.9562 -0.8462 -1.9704
   14SAPS  H12Y 1843   5.779   6.956   7.548 -0.5615  0.0946  0.0606
   14SAPS  C313 1844   5.826   6.775   7.668  0.3708 -0.3398  0.0481
   14SAPS  H13X 1845   5.930   6.809   7.687 -0.0232  0.2957  1.0351
   14SAPS  H13Y 1846   5.835   6.666   7.647 -0.9035  0.0111 -2.6114
   14SAPS  C314 1847   5.752   6.807   7.795 -0.5498  0.5633 -0.4212
   14SAPS  H14X 1848   5.644   6.791   7.777 -0.4823  0.4661 -0.7435
   14SAPS  H14Y 1849   5.761   6.913   7.828  3.7517  0.6589 -1.5805
   14SAPS  C315 1850   5.784   6.711   7.916 -0.2482 -0.2903  0.3700
   14SAPS  H15X 1851   5.890   6.707   7.950 -0.5719  1.0225  1.6125
   14SAPS  H15Y 1852   5.764   6.608   7.879  0.6977  0.0703 -1.2339
   14SAPS  C316 1853   5.708   6.734   8.046  0.2840  0.2006 -0.1918
   14SAPS  H16X 1854   5.601   6.713   8.029  0.1072  1.0525 -0.1932
   14SAPS  H16Y 1855   5.724   6.843   8.060  2.2373 -0.3508  2.2058
   14SAPS  C317 1856   5.773   6.661   8.161 -0.4715 -0.2190 -0.8440
   14SAPS  H17X 1857   5.881   6.682   8.178 -0.8619 -0.7368  2.5726
   14SAPS  H17Y 1858   5.768   6.552   8.141 -0.7354 -0.2145 -0.8048
   14SAPS  C318 1859   5.700   6.702   8.290  0.1298  0.1862  0.3246
   14SAPS  H18X 1860   5.590   6.685   8.290 -0.4574  3.7091  1.1344
   14SAPS  H18Y 1861   5.723   6.808   8.314  0.1714  0.2535 -0.0055
   14SAPS  H18Z 1862   5.744   6.643   8.373 -0.0515  0.3569  0.5436
   15SAPS     N 1863   0.887   6.294   6.244  0.5619 -0.4165 -0.1247
   15SAPS   HN1 1864   0.823   6.271   6.323 -0.8892 -0.6722 -1.3387
   15SAPS   HN2 1865   0.841   6.283   6.151 -3.3655  2.3298  1.3684
   15SAPS   HN3 1866   0.965   6.225   6.241 -2.1951 -3.6999 -0.7323
   15SAPS   C12 1867   0.937   6.435   6.250  0.0997  0.3078  0.3251
   15SAPS  H12A 1868   1.001   6.438   6.336 -0.2596  0.6839  0.5807
   15SAPS   C13 1869   1.017   6.472   6.139 -0.0289 -0.0254  0.3439
   15SAPS  O13A 1870   1.035   6.392   6.041  0.1630  0.2004 -0.0168
   15SAPS  O13B 1871   1.089   6.576   6.140 -0.0469 -0.6431  0.2963
   15SAPS   C11 1872   0.817   6.529   6.263  0.4158 -0.1270 -0.0824
   15SAPS  H11A 1873   0.857   6.631   6.244 -0.0472 -0.1803 -1.3746
   15SAPS  H11B 1874   0.770   6.525   6.364 -1.1781  1.2223 -0.7486
   15SAPS     P 1875   0.576   6.499   6.159 -0.0359 -0.1257  0.4012
   15SAPS   O13 1876   0.522   6.618   6.087  0.2039  0.1244  1.0420
   15SAPS   O14 1877   0.534   6.367   6.111 -0.7315  1.0471  0.1905
   15SAPS   O12 1878   0.728   6.498   6.159  0.2201 -0.0489 -0.3130
   15SAPS   O11 1879   0.548   6.496   6.314  0.4377 -0.0165 -0.0095
   15SAPS    C1 1880   0.428   6.513   6.387  0.4041  0.7652 -0.1467
   15SAPS    HA 1881   0.449   6.524   6.496 -2.5853  0.0680  0.5366
   15SAPS    HB 1882   0.362   6.597   6.356 -2.1156 -0.5726  1.4395
   15SAPS    C2 1883   0.327   6.391   6.389 -0.1242  0.3187 -0.4265
   15SAPS    HS 1884   0.293   6.374   6.285 -2.5916  1.0919  0.2284
   15SAPS   O21 1885   0.210   6.418   6.476 -0.1547 -0.3215 -0.3054
   15SAPS   C21 1886   0.111   6.495   6.419  1.0563 -0.4243  0.4590
   15SAPS   O22 1887   0.121   6.547   6.305  0.1229  0.3411 -0.0838
   15SAPS   C22 1888  -0.000   6.516   6.524 -0.4114 -0.4230 -0.9043
   15SAPS   H2R 1889  -0.082   6.569   6.471  0.3310  2.8209  1.0407
   15SAPS   H2S 1890  -0.030   6.417   6.563 -1.6559  1.1839  2.3903
   15SAPS    C3 1891   0.410   6.261   6.430 -0.2978 -0.3337  0.7530
   15SAPS    HX 1892   0.461   6.225   6.338 -0.1248 -0.4099  0.8772
   15SAPS    HY 1893   0.330   6.187   6.452 -0.1545 -1.1391 -1.3836
   15SAPS   O31 1894   0.496   6.287   6.545  0.2138  0.3199  0.5446
   15SAPS   C31 1895   0.623   6.263   6.532  0.2424  1.6163 -0.0582
   15SAPS   O32 1896   0.690   6.234   6.434 -0.2354 -0.2647 -0.4219
   15SAPS   C32 1897   0.691   6.279   6.668  0.3472 -0.6530 -0.2244
   15SAPS   H2X 1898   0.625   6.245   6.751  0.3805  0.4359  0.2563
   15SAPS   H2Y 1899   0.691   6.390   6.675  1.6449 -0.3914 -3.5152
   15SAPS   C23 1900   0.051   6.602   6.650  0.3960 -0.0974  0.2355
   15SAPS   H3R 1901   0.081   6.703   6.615  0.8178  0.3046  1.7444
   15SAPS   H3S 1902   0.130   6.546   6.704 -0.0604  1.6477  2.8218
   15SAPS   C24 1903  -0.069   6.627   6.741  0.1996 -0.2802  0.3550
   15SAPS   H4R 1904  -0.126   6.532   6.742 -2.3728  1.2282  1.9805
   15SAPS   H4S 1905  -0.134   6.699   6.688  1.8305 -0.4871 -1.9896
   15SAPS   C25 1906  -0.025   6.685   6.873 -0.1397 -0.1913 -0.4950
   15SAPS   H5R 1907   0.040   6.774   6.870 -1.2858  0.6619 -0.4817
   15SAPS   C26 1908  -0.066   6.641   6.991  0.2304  0.5089 -0.2312
   15SAPS   H6R 1909  -0.026   6.691   7.080  1.6471 -1.5148  0.3173
   15SAPS   C27 1910  -0.158   6.523   7.017 -0.1518 -0.3505  0.4016
   15SAPS   H7R 1911  -0.209   6.494   6.922 -1.8888  2.4978  0.3991
   15SAPS   H7S 1912  -0.240   6.553   7.085  0.1715  0.3790  0.4780
   15SAPS   C28 1913  -0.076   6.411   7.071 -0.1921 -0.3439  0.4346
   15SAPS   H8R 1914  -0.021   6.350   6.998  0.1790  0.7083 -0.1747
   15SAPS   C29 1915  -0.030   6.406   7.198 -0.0719 -1.0120  0.2134
   15SAPS   H9R 1916   0.011   6.306   7.214 -2.1167 -2.0120 -0.6041
   15SAPS  C210 1917  -0.067   6.495   7.314  0.6310  0.0813 -0.8577
   15SAPS  H10R 1918  -0.150   6.566   7.293 -0.0107 -0.8804 -1.6481
   15SAPS  H10S 1919   0.021   6.557   7.340  0.8592  0.2506 -2.0025
   15SAPS  C211 1920  -0.127   6.431   7.434  0.5045 -0.9265 -0.7392
   15SAPS  H11R 1921  -0.220   6.482   7.462  1.3322  0.5157 -0.5572
   15SAPS  C212 1922  -0.093   6.321   7.503 -0.1199 -0.0659 -0.2782
   15SAPS  H12R 1923  -0.139   6.324   7.603  0.9404  2.9289  0.1744
   15SAPS  C213 1924   0.020   6.224   7.485 -0.3940  0.0585  0.1617
   15SAPS  H13R 1925   0.067   6.222   7.586 -0.1729 -0.0248  0.0554
   15SAPS  H13S 1926   0.092   6.271   7.416 -1.1693  0.8149 -0.1389
   15SAPS  C214 1927  -0.014   6.082   7.455  0.3135 -0.4303 -0.2654
   15SAPS  H14R 1928  -0.091   6.063   7.379  0.3223 -0.9966 -0.1398
   15SAPS  C215 1929   0.050   5.980   7.510  0.3994 -0.0047 -0.3341
   15SAPS  H15R 1930   0.017   5.876   7.493  1.1916 -0.6287  1.8518
   15SAPS  C216 1931   0.161   5.979   7.614  0.2127 -0.5575 -0.7019
   15SAPS  H16R 1932   0.210   6.079   7.606  0.9808 -0.9541 -0.9771
   15SAPS  H16S 1933   0.232   5.896   7.597  2.2800  1.1023 -0.3705
   15SAPS  C217 1934   0.103   5.966   7.760 -0.0867 -0.4849 -0.4315
   15SAPS  H17R 1935   0.062   5.863   7.766 -1.0755 -0.0197  0.9079
   15SAPS  H17S 1936   0.016   6.033   7.779  0.9858  0.7347  0.2225
   15SAPS  C218 1937   0.212   5.997   7.867  0.1828  0.2731  0.0603
   15SAPS  H18R 1938   0.244   6.103   7.854  0.8666  0.0740  0.0548
   15SAPS  H18S 1939   0.303   5.934   7.854  0.2652  0.2890  0.5605
   15SAPS  C219 1940   0.143   5.986   8.010 -0.4016 -0.3737 -0.6718
   15SAPS  H19R 1941   0.140   5.877   8.032  1.3900  0.0058  1.8024
   15SAPS  H19S 1942   0.042   6.030   7.994 -0.6859 -0.3980  0.9393
   15SAPS  C220 1943   0.223   6.053   8.127 -0.3138  0.0875 -0.3627
   15SAPS  H20R 1944   0.246   6.156   8.093  0.1205  0.7603  1.8736
   15SAPS  H20S 1945   0.318   6.000   8.151 -0.1171 -0.1369 -1.5851
   15SAPS  H20T 1946   0.163   6.066   8.220 -0.2051 -0.4395 -0.2158
   15SAPS   C33 1947   0.834   6.215   6.684 -0.5565  0.5281 -0.1507
   15SAPS   H3X 1948   0.899   6.262   6.607  2.6442 -0.8970  1.5789
   15SAPS   H3Y 1949   0.831   6.105   6.671 -2.0274  0.8876 -3.2945
   15SAPS   C34 1950   0.909   6.247   6.817  0.0598  0.4445  0.1132
   15SAPS   H4X 1951   0.946   6.351   6.822 -1.3679  1.0898 -1.8645
   15SAPS   H4Y 1952   0.995   6.177   6.814 -1.0084 -0.8688 -3.3311
   15SAPS   C35 1953   0.826   6.212   6.942  0.4740  0.2408 -0.1891
   15SAPS   H5X 1954   0.817   6.102   6.951  0.5847  0.1703 -0.9376
   15SAPS   H5Y 1955   0.722   6.251   6.933  0.6192  0.9603  1.0683
   15SAPS   C36 1956   0.894   6.269   7.069  0.5011 -0.1082 -0.2892
   15SAPS   H6X 1957   0.889   6.380   7.074  1.6170 -0.1299  1.7595
   15SAPS   H6Y 1958   1.002   6.245   7.070  0.4529 -0.3908 -1.6841
   15SAPS   C37 1959   0.840   6.223   7.205 -0.1692 -1.0420  0.9261
   15SAPS   H7X 1960   0.850   6.112   7.205 -2.8007 -1.3308  1.7435
   15SAPS   H7Y 1961   0.733   6.253   7.209  0.5331  1.4467  2.1473
   15SAPS   C38 1962   0.918   6.274   7.327  0.6259  0.2484  0.1645
   15SAPS   H8X 1963   0.916   6.385   7.330  1.2782  0.3014 -1.2306
   15SAPS   H8Y 1964   1.021   6.236   7.316 -0.5073 -2.7552 -0.4638
   15SAPS   C39 1965   0.857   6.231   7.461  1.1313 -0.0132 -0.2979
   15SAPS   H9X 1966   0.841   6.121   7.458 -1.2242  0.3356 -3.2317
   15SAPS   H9Y 1967   0.761   6.281   7.485 -0.9840 -3.2726 -1.5888
   15SAPS  C310 1968   0.952   6.270   7.580 -0.2444 -0.1286  0.7309
   15SAPS  H10X 1969   0.967   6.380   7.587 -1.4920  0.1410 -0.4214
   15SAPS  H10Y 1970   1.049   6.218   7.567 -0.5042 -0.1045 -1.4848
   15SAPS  C311 1971   0.898   6.229   7.711  0.4669  0.9170 -0.1215
   15SAPS  H11X 1972   0.898   6.123   7.744  0.5067  1.3406  1.2717
   15SAPS  H11Y 1973   0.792   6.256   7.729 -0.6149 -2.2887 -1.3736
   15SAPS  C312 1974   0.981   6.287   7.830 -0.6263  0.0387 -0.3134
   15SAPS  H12X 1975   0.967   6.396   7.811  0.9485  0.4011  0.4979
   15SAPS  H12Y 1976   1.090   6.272   7.817 -0.3086  0.7188  1.3423
   15SAPS  C313 1977   0.936   6.239   7.967  0.0487 -0.2139  0.0948
   15SAPS  H13X 1978   0.978   6.138   7.988  2.6629  1.0065  1.0361
   15SAPS  H13Y 1979   0.825   6.241   7.960  0.0667  0.8332 -0.0450
   15SAPS  C314 1980   0.969   6.330   8.081 -0.1049  0.6307 -0.2601
   15SAPS  H14X 1981   0.947   6.436   8.054 -0.6786  0.9726  1.4817
   15SAPS  H14Y 1982   1.079   6.335   8.090 -0.0484  1.7922 -1.5413
   15SAPS  C315 1983   0.916   6.290   8.216  0.2324 -0.2807 -0.3301
   15SAPS  H15X 1984   0.943   6.183   8.228  0.9119  0.0659  1.2420
   15SAPS  H15Y 1985   0.806   6.273   8.222  0.4236 -1.3141  0.3878
   15SAPS  C316 1986   0.977   6.376   8.328  0.0209  0.4411  0.3685
   15SAPS  H16X 1987   0.945   6.482   8.325  1.5307  0.9471  1.5650
   15SAPS  H16Y 1988   1.086   6.377   8.308 -0.2339 -0.3445 -1.1474
   15SAPS  C317 1989   0.969   6.308   8.462 -0.0475 -0.4680  0.0887
   15SAPS  H17X 1990   1.030   6.215   8.464 -1.0554 -1.1024  2.9093
   15SAPS  H17Y 1991   0.867   6.268   8.480  0.6252 -0.9738  3.1019
   15SAPS  C318 1992   1.014   6.398   8.577  0.8348 -0.0322 -0.1302
   15SAPS  H18X 1993   1.125   6.400   8.579  0.7985  0.8858  1.2140
   15SAPS  H18Y 1994   0.986   6.353   8.675 -1.4752 -0.9765 -1.1692
   15SAPS  H18Z 1995   0.981   6.502   8.558  0.8769  0.0252  0.1219
   16SAPS     N 1996   1.552   1.293   6.201 -0.4719 -0.2214 -0.0146
   16SAPS   HN1 1997   1.571   1.192   6.214 -3.4125 -1.3804 -3.6866
   16SAPS   HN2 1998   1.463   1.305   6.253 -0.4192  1.3401 -0.2601
   16SAPS   HN3 1999   1.537   1.316   6.101  1.2235 -1.1147 -0.4900
   16SAPS   C12 2000   1.650   1.379   6.274  0.9620 -0.7636  0.0093
   16SAPS  H12A 2001   1.746   1.343   6.243  0.9143 -0.6241 -0.2975
   16SAPS   C13 2002   1.652   1.537   6.263 -0.4671 -0.3079  0.0758
   16SAPS  O13A 2003   1.567   1.593   6.194  0.0442 -0.0606 -0.4261
   16SAPS  O13B 2004   1.742   1.596   6.325 -0.2741 -0.0240  0.3276
   16SAPS   C11 2005   1.645   1.327   6.425 -0.8721 -0.7417  0.3926
   16SAPS  H11A 2006   1.550   1.368   6.468  0.4728 -0.3183  3.0793
   16SAPS  H11B 2007   1.729   1.369   6.484  0.3588 -2.7971  0.1636
   16SAPS     P 2008   1.744   1.103   6.509  0.3747 -0.2666  0.4466
   16SAPS   O13 2009   1.682   0.970   6.516  0.3404  0.0354  0.0471
   16SAPS   O14 2010   1.878   1.116   6.448  0.6247 -0.1316 -0.1836
   16SAPS   O12 2011   1.641   1.185   6.430 -0.2906 -0.0060  0.1312
   16SAPS   O11 2012   1.747   1.176   6.642  0.6871 -0.3476  0.2205
   16SAPS    C1 2013   1.842   1.169   6.747 -0.8704 -0.1187 -0.0525
   16SAPS    HA 2014   1.818   1.100   6.831  2.5824 -1.6026 -0.2189
   16SAPS    HB 2015   1.946   1.144   6.718  0.1192  2.3414  1.2886
   16SAPS    C2 2016   1.866   1.313   6.802 -0.0378 -0.0298  0.4003
   16SAPS    HS 2017   1.914   1.374   6.722  0.9651 -1.2080  0.0957
   16SAPS   O21 2018   1.951   1.307   6.923  0.0652 -0.5624  0.3384
   16SAPS   C21 2019   2.010   1.420   6.954  0.5714  0.0382 -0.1613
   16SAPS   O22 2020   1.996   1.524   6.896 -0.0566 -0.3277 -0.5116
   16SAPS   C22 2021   2.113   1.401   7.062  0.7600  0.5078 -0.4579
   16SAPS   H2R 2022   2.117   1.293   7.088 -1.0739  0.6851  0.6303
   16SAPS   H2S 2023   2.210   1.427   7.014  0.9209  0.5272 -0.1225
   16SAPS    C3 2024   1.723   1.373   6.841  0.1016  0.0339 -0.0205
   16SAPS    HX 2025   1.657   1.360   6.752 -0.1509  1.0627  0.0039
   16SAPS    HY 2026   1.736   1.481   6.862 -1.5395  0.3647 -0.6138
   16SAPS   O31 2027   1.668   1.300   6.956 -0.4904  0.0276  0.0512
   16SAPS   C31 2028   1.568   1.365   7.013 -0.2066  0.2850 -0.1112
   16SAPS   O32 2029   1.511   1.467   6.971  0.0530  0.1049 -0.2865
   16SAPS   C32 2030   1.508   1.291   7.119 -0.2248  0.0809 -0.8738
   16SAPS   H2X 2031   1.573   1.204   7.141 -0.0611  0.4431  0.0914
   16SAPS   H2Y 2032   1.408   1.260   7.081 -1.0563  0.0095  1.2995
   16SAPS   C23 2033   2.098   1.493   7.185  0.3914 -0.8075  0.6879
   16SAPS   H3R 2034   2.098   1.594   7.139 -2.4877 -1.8205 -1.7194
   16SAPS   H3S 2035   2.182   1.483   7.257  0.7595 -1.4765  0.1695
   16SAPS   C24 2036   1.964   1.491   7.265  0.5487  0.1904 -0.4835
   16SAPS   H4R 2037   1.961   1.396   7.322 -3.1765 -0.8774 -2.3255
   16SAPS   H4S 2038   1.874   1.481   7.200 -0.6741  0.6619  1.1055
   16SAPS   C25 2039   1.952   1.605   7.358  1.1127 -0.3221  0.0043
   16SAPS   H5R 2040   1.943   1.701   7.304 -0.3735  0.2748  1.2895
   16SAPS   C26 2041   1.961   1.601   7.492  0.0331 -0.0899 -0.6167
   16SAPS   H6R 2042   1.958   1.692   7.553  2.0658 -1.0593  0.9853
   16SAPS   C27 2043   1.982   1.472   7.567  0.0102 -0.1676 -0.1582
   16SAPS   H7R 2044   2.005   1.382   7.505  0.5566 -0.7662  0.9028
   16SAPS   H7S 2045   1.886   1.454   7.621  0.8011 -3.7176  0.2032
   16SAPS   C28 2046   2.102   1.489   7.660 -0.7447  0.3367 -0.5403
   16SAPS   H8R 2047   2.197   1.488   7.605  0.1248 -0.5435  0.9412
   16SAPS   C29 2048   2.101   1.536   7.783 -0.0923  0.4638 -0.2204
   16SAPS   H9R 2049   2.202   1.545   7.827 -0.4632 -1.0974  1.0172
   16SAPS  C210 2050   1.981   1.572   7.869 -1.2580  0.2952 -0.3867
   16SAPS  H10R 2051   1.890   1.549   7.809 -0.6301  1.4788 -1.7966
   16SAPS  H10S 2052   1.991   1.682   7.873  2.1675  0.0270 -0.7093
   16SAPS  C211 2053   1.968   1.510   8.004  0.5551 -0.5029 -0.7264
   16SAPS  H11R 2054   1.892   1.431   8.007 -1.5596  1.5537  2.0067
   16SAPS  C212 2055   2.035   1.556   8.115  0.0905 -0.1163  0.4780
   16SAPS  H12R 2056   2.009   1.509   8.211  0.7283  1.4181  1.4077
   16SAPS  C213 2057   2.128   1.672   8.125 -0.7955 -0.1217  0.1963
   16SAPS  H13R 2058   2.120   1.752   8.049  1.4021  1.3804  1.4749
   16SAPS  H13S 2059   2.232   1.634   8.121 -1.4144 -1.8837  0.3566
   16SAPS  C214 2060   2.095   1.743   8.261  0.0185  0.2592 -0.4370
   16SAPS  H14R 2061   2.002   1.801   8.273 -0.2888 -0.1779 -0.6635
   16SAPS  C215 2062   2.174   1.759   8.364  0.1080  0.3409 -0.3093
   16SAPS  H15R 2063   2.147   1.806   8.460  0.6439 -1.9628  1.0012
   16SAPS  C216 2064   2.313   1.705   8.374 -0.5557 -0.3819 -0.2477
   16SAPS  H16R 2065   2.360   1.731   8.277 -1.8371  0.2103 -0.7234
   16SAPS  H16S 2066   2.320   1.595   8.394  2.0364 -0.1007  0.4636
   16SAPS  C217 2067   2.407   1.780   8.469  0.6519 -1.1332  0.1647
   16SAPS  H17R 2068   2.508   1.734   8.463  0.7594 -0.6670 -2.1039
   16SAPS  H17S 2069   2.387   1.753   8.575 -4.2923  2.2282  0.2387
   16SAPS  C218 2070   2.421   1.926   8.442 -0.0595  0.0775  0.4345
   16SAPS  H18R 2071   2.318   1.966   8.448  0.0638  0.3608  0.6656
   16SAPS  H18S 2072   2.454   1.936   8.336 -0.3454  2.5443  0.5555
   16SAPS  C219 2073   2.502   2.006   8.541  0.4403  0.5944  0.1376
   16SAPS  H19R 2074   2.521   2.112   8.517  0.2247  0.4042 -0.9008
   16SAPS  H19S 2075   2.605   1.963   8.540  0.6100  1.0295 -0.8228
   16SAPS  C220 2076   2.440   2.034   8.681 -0.0577  0.4078  0.7170
   16SAPS  H20R 2077   2.408   1.943   8.736  0.3188  1.3162  2.4861
   16SAPS  H20S 2078   2.361   2.110   8.666  0.5047  0.4640 -2.4799
   16SAPS  H20T 2079   2.517   2.083   8.745  0.2245  1.8126 -0.6781
   16SAPS   C33 2080   1.489   1.369   7.250 -0.0422 -0.7527  0.0751
   16SAPS   H3X 2081   1.410   1.447   7.248  0.5606 -0.1036  1.2345
   16SAPS   H3Y 2082   1.585   1.422   7.267 -0.9863  1.6024 -1.6131
   16SAPS   C34 2083   1.454   1.274   7.367 -0.5496  0.1797  0.0122
   16SAPS   H4X 2084   1.536   1.200   7.382 -1.6492 -0.5924  2.4787
   16SAPS   H4Y 2085   1.365   1.215   7.337  0.1202 -2.5366  3.0524
   16SAPS   C35 2086   1.400   1.340   7.498  0.1385 -0.4976  0.5213
   16SAPS   H5X 2087   1.322   1.281   7.552 -2.3782  1.6025 -0.7400
   16SAPS   H5Y 2088   1.350   1.431   7.461 -0.5145 -1.4101 -0.9009
   16SAPS   C36 2089   1.519   1.366   7.588 -0.1716 -1.2135  0.7432
   16SAPS   H6X 2090   1.600   1.428   7.546 -0.9321 -0.2870  0.6333
   16SAPS   H6Y 2091   1.552   1.271   7.635  0.7121 -1.8731 -1.1894
   16SAPS   C37 2092   1.479   1.440   7.716 -0.3132 -0.6637 -0.1622
   16SAPS   H7X 2093   1.427   1.534   7.689 -0.2127 -0.2396  1.0952
   16SAPS   H7Y 2094   1.569   1.460   7.778 -0.2136  0.5312 -0.6744
   16SAPS   C38 2095   1.378   1.360   7.801 -0.2135  0.1293  0.3317
   16SAPS   H8X 2096   1.415   1.255   7.795  2.7006  1.0511  1.3139
   16SAPS   H8Y 2097   1.273   1.365   7.765  0.2374  1.5794 -0.8680
   16SAPS   C39 2098   1.374   1.406   7.944  0.5612  0.3758  0.3020
   16SAPS   H9X 2099   1.363   1.517   7.943  2.4589  0.5872 -1.4067
   16SAPS   H9Y 2100   1.474   1.396   7.991  1.1672 -1.2449 -1.2967
   16SAPS  C310 2101   1.262   1.336   8.017 -0.4020  0.2049  0.9299
   16SAPS  H10X 2102   1.268   1.226   8.001  1.4069  0.2363  1.2885
   16SAPS  H10Y 2103   1.165   1.362   7.971 -1.5108 -2.0530  1.8836
   16SAPS  C311 2104   1.268   1.363   8.163  0.5782 -0.6054 -0.3370
   16SAPS  H11X 2105   1.371   1.363   8.206 -0.4491  0.8381  2.2401
   16SAPS  H11Y 2106   1.216   1.278   8.213  0.3194  0.7729  1.7775
   16SAPS  C312 2107   1.193   1.490   8.204 -1.1977  0.2530 -0.7179
   16SAPS  H12X 2108   1.083   1.489   8.187 -1.5016  2.3705  0.8661
   16SAPS  H12Y 2109   1.240   1.581   8.163 -0.8059  0.9693  1.2485
   16SAPS  C313 2110   1.218   1.506   8.362  0.3443 -0.6265  0.3727
   16SAPS  H13X 2111   1.315   1.557   8.381  1.8413 -3.1275 -0.3382
   16SAPS  H13Y 2112   1.220   1.406   8.412  1.0113 -1.2082 -0.8061
   16SAPS  C314 2113   1.094   1.585   8.416 -0.3206  0.2366  0.4832
   16SAPS  H14X 2114   0.998   1.533   8.399  0.8681 -1.4115 -1.4302
   16SAPS  H14Y 2115   1.075   1.681   8.362 -0.3734  0.5182  0.9988
   16SAPS  C315 2116   1.086   1.613   8.573 -0.1765  0.5212  0.6377
   16SAPS  H15X 2117   1.120   1.522   8.626  0.0645  0.1251 -0.1929
   16SAPS  H15Y 2118   0.989   1.651   8.613 -2.0078 -3.4373  0.1653
   16SAPS  C316 2119   1.176   1.738   8.614 -0.0396 -0.2846  0.0942
   16SAPS  H16X 2120   1.139   1.836   8.578 -0.6310 -0.0317  1.3771
   16SAPS  H16Y 2121   1.274   1.711   8.569  0.0113  0.7755 -0.4336
   16SAPS  C317 2122   1.189   1.738   8.767 -0.2963 -0.3572  0.0118
   16SAPS  H17X 2123   1.207   1.634   8.803  2.8989 -0.1982 -0.9986
   16SAPS  H17Y 2124   1.092   1.760   8.818 -0.1436  0.6558 -0.1271
   16SAPS  C318 2125   1.304   1.814   8.818 -0.3688  0.0913  0.3683
   16SAPS  H18X 2126   1.297   1.922   8.794 -3.4922 -0.2032 -0.1596
   16SAPS  H18Y 2127   1.400   1.766   8.789 -1.0998 -1.5162  0.5469
   16SAPS  H18Z 2128   1.301   1.811   8.929 -4.0503  0.1428  0.3314
   17SAPC     N 2129   5.658   3.989  10.708  0.4668 -0.3371  0.1637
   17SAPC   C12 2130   5.692   4.103  10.615  0.5365  0.4083 -0.5500
   17SAPC  H12A 2131   5.724   4.189  10.673 -1.8758  3.0278 -2.9182
   17SAPC  H12B 2132   5.600   4.136  10.568  1.0276  0.3882 -1.5344
   17SAPC   C13 2133   5.784   3.938  10.771  0.2835  0.4498  0.3751
   17SAPC  H13A 2134   5.817   4.022  10.829 -1.2905  1.2684  0.1097
   17SAPC  H13B 2135   5.769   3.855  10.839 -0.2956 -1.1255 -1.6485
   17SAPC  H13C 2136   5.860   3.908  10.700  0.7327  0.3788  0.8763
   17SAPC   C14 2137   5.550   4.020  10.813 -0.0934 -0.1547  0.5039
   17SAPC  H14A 2138   5.530   3.931  10.872 -2.1882  0.9978  1.5765
   17SAPC  H14B 2139   5.580   4.094  10.886  0.1630  0.5800 -0.3475
   17SAPC  H14C 2140   5.458   4.046  10.763 -0.8825 -1.8968  0.9745
   17SAPC   C15 2141   5.615   3.872  10.627  0.3797  0.1691 -0.7602
   17SAPC  H15A 2142   5.530   3.890  10.563 -0.7274 -1.2758  0.2686
   17SAPC  H15B 2143   5.700   3.847  10.566 -0.9080  0.5725 -2.7527
   17SAPC  H15C 2144   5.601   3.792  10.698 -0.8624  2.0866  1.2623
   17SAPC   C11 2145   5.793   4.085  10.508  0.7982 -0.4104 -1.2701
   17SAPC  H11A 2146   5.776   3.993  10.448  1.0128  0.3853 -2.5496
   17SAPC  H11B 2147   5.885   4.074  10.570  0.2178  0.7658 -0.1936
   17SAPC     P 2148   5.935   4.258  10.367  0.3846  0.0992 -0.4340
   17SAPC   O13 2149   5.905   4.382  10.294  0.3219  0.7351  0.3517
   17SAPC   O14 2150   6.025   4.275  10.481  0.1854  0.7859 -0.4103
   17SAPC   O12 2151   5.794   4.194  10.424  0.1185  0.2917  0.9460
   17SAPC   O11 2152   5.998   4.154  10.271 -0.4883 -0.3998 -0.2868
   17SAPC    C1 2153   5.993   4.144  10.130  0.1531  0.6773 -0.0576
   17SAPC    HA 2154   5.960   4.041  10.109 -2.0056  1.4116 -0.3852
   17SAPC    HB 2155   5.903   4.195  10.090 -1.0333 -0.8311  0.6711
   17SAPC    C2 2156   6.134   4.159  10.069 -0.2462 -0.0244 -0.5376
   17SAPC    HS 2157   6.154   4.269  10.067  0.0954 -0.0846 -0.3579
   17SAPC   O21 2158   6.121   4.118   9.933 -0.4038 -0.1322 -0.0393
   17SAPC   C21 2159   6.216   4.174   9.856 -0.0131 -0.0134 -0.4368
   17SAPC   O22 2160   6.294   4.260   9.885  0.3290  0.4350 -0.2964
   17SAPC   C22 2161   6.226   4.095   9.726  0.1858 -0.9690 -0.6657
   17SAPC   H2R 2162   6.336   4.077   9.716  0.2300  0.1468 -2.3599
   17SAPC   H2S 2163   6.169   4.000   9.733  0.4830 -1.0553  0.6216
   17SAPC    C3 2164   6.241   4.086  10.149 -0.0352 -0.3152  0.1151
   17SAPC    HX 2165   6.246   4.123  10.254  3.4327 -0.9842  0.2554
   17SAPC    HY 2166   6.348   4.097  10.120 -0.3514  2.1071 -0.2523
   17SAPC   O31 2167   6.206   3.946  10.159  0.0044 -0.0529  0.0802
   17SAPC   C31 2168   6.234   3.866  10.053 -0.3671 -0.9871 -0.0824
   17SAPC   O32 2169   6.302   3.898   9.957 -0.4398 -0.1712  0.2547
   17SAPC   C32 2170   6.147   3.736  10.060 -0.2074 -0.5369 -0.2505
   17SAPC   H2X 2171   6.045   3.781  10.068 -0.1569  0.0747 -2.5334
   17SAPC   H2Y 2172   6.181   3.682  10.151 -0.2578  1.8198  1.2108
   17SAPC   C23 2173   6.179   4.178   9.601  0.2571  0.0000  0.2273
   17SAPC   H3R 2174   6.217   4.281   9.620 -1.3116  0.2012  2.5523
   17SAPC   H3S 2175   6.069   4.187   9.615 -0.1169 -2.5912 -0.8251
   17SAPC   C24 2176   6.212   4.110   9.468 -0.0505  0.3533  0.6512
   17SAPC   H4R 2177   6.179   4.007   9.490  1.5429 -0.3487 -0.1334
   17SAPC   H4S 2178   6.323   4.105   9.468 -0.0611  0.1319  0.9459
   17SAPC   C25 2179   6.160   4.183   9.349  0.0266  0.1990  0.1475
   17SAPC   H5R 2180   6.232   4.262   9.321 -0.6011  1.0396  0.8774
   17SAPC   C26 2181   6.061   4.158   9.269 -0.7903 -0.3107 -0.3335
   17SAPC   H6R 2182   6.034   4.242   9.204  0.1972  0.1149 -0.2035
   17SAPC   C27 2183   5.955   4.053   9.286  0.2363  0.0847 -0.0797
   17SAPC   H7R 2184   5.861   4.095   9.329  1.2975  0.7431  1.6351
   17SAPC   H7S 2185   5.990   3.967   9.347  2.2696  1.3803  0.6126
   17SAPC   C28 2186   5.931   3.987   9.152  0.2072  0.4739 -0.2083
   17SAPC   H8R 2187   6.017   3.966   9.088 -0.4033 -0.3837 -0.7607
   17SAPC   C29 2188   5.812   3.949   9.106 -0.3415 -0.6825 -0.4343
   17SAPC   H9R 2189   5.826   3.886   9.016  0.5701  0.9529 -1.4440
   17SAPC  C210 2190   5.670   3.963   9.169 -0.6863  0.0396  0.7981
   17SAPC  H10R 2191   5.633   4.055   9.120  1.0081  1.2325  1.6775
   17SAPC  H10S 2192   5.681   3.987   9.277  0.5374  0.3196  0.6264
   17SAPC  C211 2193   5.596   3.828   9.160 -0.1728 -0.4866  0.7565
   17SAPC  H11R 2194   5.648   3.734   9.180 -1.9770 -1.8999 -0.8769
   17SAPC  C212 2195   5.468   3.825   9.119 -0.2576  0.5276  0.1608
   17SAPC  H12R 2196   5.418   3.727   9.113  1.1654 -0.3371  1.9945
   17SAPC  C213 2197   5.385   3.942   9.081  0.4118 -0.7710 -0.1377
   17SAPC  H13R 2198   5.443   4.025   9.037  0.1644 -0.5122  0.0241
   17SAPC  H13S 2199   5.335   3.992   9.167  0.8166  1.2896 -1.0811
   17SAPC  C214 2200   5.264   3.900   8.996  0.0112 -0.6267  0.8586
   17SAPC  H14R 2201   5.171   3.865   9.044 -0.6433  0.1921  0.2080
   17SAPC  C215 2202   5.252   3.916   8.863 -0.3447 -0.3815  0.1148
   17SAPC  H15R 2203   5.159   3.882   8.815  0.2223  0.2858 -1.4836
   17SAPC  C216 2204   5.344   3.985   8.766 -0.2356 -0.0635 -0.1430
   17SAPC  H16R 2205   5.366   3.913   8.684  1.4776  2.3817 -1.8868
   17SAPC  H16S 2206   5.442   4.022   8.802 -0.6008  0.3399  0.4478
   17SAPC  C217 2207   5.266   4.099   8.709  0.3129 -0.4152  1.0307
   17SAPC  H17R 2208   5.250   4.178   8.785 -0.5773 -0.0016  0.4251
   17SAPC  H17S 2209   5.170   4.073   8.659  0.0805  0.0334  1.2464
   17SAPC  C218 2210   5.343   4.165   8.591  0.9091  0.2788  1.1535
   17SAPC  H18R 2211   5.398   4.090   8.530  0.2010 -0.2531  1.1694
   17SAPC  H18S 2212   5.424   4.218   8.646 -0.5518  2.2471  1.4577
   17SAPC  C219 2213   5.260   4.257   8.499 -0.1293  0.0530 -0.6227
   17SAPC  H19R 2214   5.222   4.341   8.561  2.1354 -0.5941  1.7790
   17SAPC  H19S 2215   5.169   4.201   8.469 -2.2971  2.0226  1.9718
   17SAPC  C220 2216   5.338   4.323   8.384 -0.2331 -0.0876  0.4253
   17SAPC  H20R 2217   5.293   4.423   8.367  3.8657  1.6815 -0.6410
   17SAPC  H20S 2218   5.331   4.270   8.287 -0.2270  3.6794 -1.7208
   17SAPC  H20T 2219   5.446   4.327   8.409 -0.0427 -3.6985  0.4289
   17SAPC   C33 2220   6.158   3.638   9.938 -0.5662 -0.9849  0.0222
   17SAPC   H3X 2221   6.136   3.531   9.963 -0.7531 -1.7667 -3.3058
   17SAPC   H3Y 2222   6.262   3.648   9.902 -0.6630  0.9891  0.2683
   17SAPC   C34 2223   6.070   3.668   9.816 -0.4576  0.2024  0.0039
   17SAPC   H4X 2224   6.055   3.778   9.811 -2.4571 -0.1021 -1.6139
   17SAPC   H4Y 2225   5.967   3.628   9.834  0.1802 -0.0127  3.5435
   17SAPC   C35 2226   6.124   3.615   9.680 -0.1322 -0.1517 -0.1153
   17SAPC   H5X 2227   6.125   3.505   9.695 -0.1358 -0.1743 -0.2872
   17SAPC   H5Y 2228   6.230   3.645   9.665 -0.6498  2.3127  0.8637
   17SAPC   C36 2229   6.040   3.659   9.559 -0.3125 -0.4010 -1.4711
   17SAPC   H6X 2230   6.046   3.770   9.568  1.5843 -0.7106  1.8127
   17SAPC   H6Y 2231   5.939   3.622   9.587 -2.4762  2.5732 -4.8277
   17SAPC   C37 2232   6.080   3.622   9.420  0.8403 -0.4253 -0.6335
   17SAPC   H7X 2233   5.999   3.655   9.351  0.9081 -0.1050 -0.5610
   17SAPC   H7Y 2234   6.095   3.512   9.430 -3.4852 -1.0027  0.3448
   17SAPC   C38 2235   6.213   3.682   9.359  0.1535 -0.0207 -0.2933
   17SAPC   H8X 2236   6.303   3.640   9.409  0.4302 -0.2623 -0.9987
   17SAPC   H8Y 2237   6.217   3.792   9.376  1.3189  0.0736 -1.1520
   17SAPC   C39 2238   6.237   3.640   9.213  0.4610  0.2519 -0.2348
   17SAPC   H9X 2239   6.245   3.529   9.205 -0.4174  0.2257 -0.7671
   17SAPC   H9Y 2240   6.335   3.686   9.190  0.6727  0.0126  0.1953
   17SAPC  C310 2241   6.123   3.678   9.117  0.7924  0.8246  0.6218
   17SAPC  H10X 2242   6.089   3.776   9.156 -0.0822  0.7668  0.0501
   17SAPC  H10Y 2243   6.026   3.626   9.137 -0.2694  0.8026 -3.8593
   17SAPC  C311 2244   6.160   3.689   8.968 -0.1522 -0.0260 -0.2181
   17SAPC  H11X 2245   6.170   3.580   8.949 -0.4269 -0.2065  0.6490
   17SAPC  H11Y 2246   6.251   3.752   8.962 -0.9808  1.5242  2.5231
   17SAPC  C312 2247   6.050   3.749   8.871  0.1653 -0.6414  0.6254
   17SAPC  H12X 2248   6.080   3.774   8.767 -2.5644  1.1575  0.2361
   17SAPC  H12Y 2249   6.021   3.850   8.908 -1.1330 -0.5064 -0.7486
   17SAPC  C313 2250   5.928   3.653   8.856  0.4834 -0.2146  0.7232
   17SAPC  H13X 2251   5.894   3.637   8.961  0.0724 -2.2892  0.2899
   17SAPC  H13Y 2252   5.957   3.549   8.834  2.9875  0.0827  2.3226
   17SAPC  C314 2253   5.808   3.710   8.774 -0.1217 -0.4424 -0.1824
   17SAPC  H14X 2254   5.843   3.716   8.668  2.2755 -0.7566  0.5574
   17SAPC  H14Y 2255   5.767   3.807   8.808 -0.7077 -0.0784 -1.8907
   17SAPC  C315 2256   5.699   3.602   8.761  0.2837  0.0618 -0.0559
   17SAPC  H15X 2257   5.665   3.569   8.861 -0.0948 -0.2211 -0.2761
   17SAPC  H15Y 2258   5.751   3.516   8.715  0.1502 -1.0495  1.8403
   17SAPC  C316 2259   5.576   3.663   8.684 -0.4552 -0.2406  0.2426
   17SAPC  H16X 2260   5.620   3.699   8.589  1.0809 -1.8414  0.3232
   17SAPC  H16Y 2261   5.527   3.744   8.743 -0.2796 -1.2720  1.8566
   17SAPC  C317 2262   5.470   3.559   8.649  0.0344 -0.6077 -0.0278
   17SAPC  H17X 2263   5.404   3.611   8.576 -1.2737 -0.5274  1.1779
   17SAPC  H17Y 2264   5.411   3.531   8.739 -1.1683  2.5582  0.2278
   17SAPC  C318 2265   5.518   3.439   8.572  0.0020 -0.9063  0.0574
   17SAPC  H18X 2266   5.436   3.384   8.520  0.4190  0.5745 -2.2620
   17SAPC  H18Y 2267   5.579   3.478   8.488 -2.1066  0.2655 -0.9602
   17SAPC  H18Z 2268   5.581   3.374   8.636 -0.1521  1.8743  3.1387
   18SAPC     N 2269   6.761   4.012  10.876 -0.2166  1.1782 -0.1989
   18SAPC   C12 2270   6.733   3.984  10.726  0.4426  0.0947 -0.2172
   18SAPC  H12A 2271   6.755   4.073  10.669  0.6323  0.1011 -0.1361
   18SAPC  H12B 2272   6.628   3.960  10.720 -0.3336  3.6206 -1.7542
   18SAPC   C13 2273   6.710   3.890  10.949 -0.5356 -0.0658  0.0338
   18SAPC  H13A 2274   6.762   3.878  11.043  1.6077  1.6530 -0.8840
   18SAPC  H13B 2275   6.605   3.901  10.968 -0.6088  0.0904 -0.4356
   18SAPC  H13C 2276   6.735   3.802  10.890  1.2498  0.2864  0.2322
   18SAPC   C14 2277   6.911   4.022  10.885  0.0125 -0.3558 -0.1783
   18SAPC  H14A 2278   6.956   4.113  10.848  0.0497  0.3250  1.4970
   18SAPC  H14B 2279   6.936   4.025  10.990 -0.0344  0.4699 -0.1822
   18SAPC  H14C 2280   6.947   3.935  10.833  1.4628  1.8411 -2.9970
   18SAPC   C15 2281   6.696   4.141  10.934  0.3901  0.3392  0.3023
   18SAPC  H15A 2282   6.722   4.224  10.870  2.3997 -0.8191 -0.4348
   18SAPC  H15B 2283   6.589   4.129  10.946  0.3804 -1.7439 -1.4874
   18SAPC  H15C 2284   6.730   4.163  11.034 -0.2655 -2.3221  1.1635
   18SAPC   C11 2285   6.791   3.862  10.657  0.0076 -0.0775 -0.4516
   18SAPC  H11A 2286   6.901   3.870  10.675  0.2985 -3.9334 -0.1497
   18SAPC  H11B 2287   6.774   3.873  10.548 -0.2102  0.8187 -0.3309
   18SAPC     P 2288   6.642   3.640  10.653 -0.3225 -0.1479 -0.0514
   18SAPC   O13 2289   6.664   3.501  10.698  0.4123 -0.3878 -0.0550
   18SAPC   O14 2290   6.508   3.701  10.680 -0.7479  0.4326  0.0505
   18SAPC   O12 2291   6.755   3.734  10.705 -0.3226  1.1107  0.0047
   18SAPC   O11 2292   6.665   3.643  10.497  0.1531  0.0078  0.0909
   18SAPC    C1 2293   6.787   3.582  10.454  0.1833  0.2113  0.5686
   18SAPC    HA 2294   6.839   3.665  10.402  0.7329 -0.2353  0.4076
   18SAPC    HB 2295   6.861   3.551  10.530 -0.1538 -0.8690  0.4658
   18SAPC    C2 2296   6.764   3.473  10.344 -0.2720 -0.1572 -0.8970
   18SAPC    HS 2297   6.860   3.462  10.289  0.2339  1.5799 -0.4002
   18SAPC   O21 2298   6.663   3.518  10.254  0.6758 -0.7142 -0.4715
   18SAPC   C21 2299   6.698   3.579  10.140 -0.4837  0.6320  0.1518
   18SAPC   O22 2300   6.812   3.603  10.104  0.1663  0.0221  0.0023
   18SAPC   C22 2301   6.569   3.635  10.077 -0.0836 -0.0429  0.0503
   18SAPC   H2R 2302   6.485   3.571  10.111  0.6254 -0.3229  1.2912
   18SAPC   H2S 2303   6.556   3.730  10.133 -0.9001 -0.6694  0.9432
   18SAPC    C3 2304   6.724   3.333  10.399 -0.5787 -0.6451  0.1258
   18SAPC    HX 2305   6.644   3.360  10.471 -2.1684 -2.1365 -1.0484
   18SAPC    HY 2306   6.811   3.283  10.448 -1.4568  0.2668  2.6719
   18SAPC   O31 2307   6.665   3.247  10.302 -0.3184  0.0564 -0.4594
   18SAPC   C31 2308   6.756   3.199  10.219  0.1011  0.0028 -0.7135
   18SAPC   O32 2309   6.876   3.205  10.236  0.1639  0.5135  0.1913
   18SAPC   C32 2310   6.694   3.115  10.104  0.6520 -0.6258 -0.0679
   18SAPC   H2X 2311   6.628   3.187  10.052  1.8928  0.6241  0.0468
   18SAPC   H2Y 2312   6.636   3.033  10.153  0.4729 -0.0775  0.6519
   18SAPC   C23 2313   6.577   3.660   9.931 -0.3297 -1.0980  0.2847
   18SAPC   H3R 2314   6.653   3.735   9.900 -4.0799  2.1475 -1.6967
   18SAPC   H3S 2315   6.489   3.723   9.901  0.2894  0.5181  1.7677
   18SAPC   C24 2316   6.592   3.537   9.842 -0.6251  0.3111 -0.4394
   18SAPC   H4R 2317   6.681   3.484   9.882 -1.9937 -1.9051 -0.1977
   18SAPC   H4S 2318   6.618   3.576   9.741  1.0886 -2.3763 -1.0889
   18SAPC   C25 2319   6.477   3.440   9.834 -0.9513  0.1547  0.8742
   18SAPC   H5R 2320   6.418   3.414   9.923  0.0840 -2.6616  0.8005
   18SAPC   C26 2321   6.422   3.398   9.718  0.6497  0.0578  0.9704
   18SAPC   H6R 2322   6.344   3.321   9.716  2.3949 -1.7063 -1.1944
   18SAPC   C27 2323   6.471   3.421   9.575  0.0093  0.1086  0.0346
   18SAPC   H7R 2324   6.507   3.525   9.561  1.1202 -0.4381 -1.2947
   18SAPC   H7S 2325   6.390   3.408   9.500  1.0732 -0.4315 -1.0500
   18SAPC   C28 2326   6.593   3.334   9.554  0.1307 -0.3525 -0.2065
   18SAPC   H8R 2327   6.647   3.275   9.630  1.1408 -2.1344 -2.2800
   18SAPC   C29 2328   6.626   3.304   9.427  0.2541 -0.2086 -0.4109
   18SAPC   H9R 2329   6.726   3.261   9.412 -0.2514 -1.3052 -0.6656
   18SAPC  C210 2330   6.566   3.352   9.301  0.0488  0.9369 -0.2495
   18SAPC  H10R 2331   6.500   3.441   9.315 -2.2394 -0.3822 -2.2054
   18SAPC  H10S 2332   6.507   3.265   9.265 -1.4728  1.4915  0.8585
   18SAPC  C211 2333   6.668   3.384   9.195  0.0112  0.3330 -0.0322
   18SAPC  H11R 2334   6.773   3.393   9.230 -0.1859 -1.9183  1.2418
   18SAPC  C212 2335   6.636   3.408   9.066 -0.3435 -0.1075  0.4364
   18SAPC  H12R 2336   6.714   3.448   9.000 -0.7892 -1.3256 -0.8652
   18SAPC  C213 2337   6.499   3.407   9.002 -0.8283 -0.5295 -0.4349
   18SAPC  H13R 2338   6.417   3.392   9.076 -3.0693  4.1982 -1.7981
   18SAPC  H13S 2339   6.498   3.313   8.942  0.7796 -1.9633  1.7075
   18SAPC  C214 2340   6.461   3.532   8.933 -0.0599 -0.4621  0.7875
   18SAPC  H14R 2341   6.500   3.625   8.977 -1.2954  0.7828 -0.6839
   18SAPC  C215 2342   6.411   3.540   8.806  0.7709  0.3095  0.0031
   18SAPC  H15R 2343   6.397   3.644   8.773 -0.8421  0.8068  2.1527
   18SAPC  C216 2344   6.377   3.432   8.691 -0.3993 -0.0616  0.2052
   18SAPC  H16R 2345   6.378   3.326   8.724 -1.2330 -0.2415 -0.3180
   18SAPC  H16S 2346   6.448   3.454   8.609 -1.4057 -2.9133 -1.5038
   18SAPC  C217 2347   6.231   3.458   8.643  0.4569 -0.1733  0.0451
   18SAPC  H17R 2348   6.234   3.544   8.572  1.6219 -0.2802 -0.0440
   18SAPC  H17S 2349   6.170   3.478   8.733 -3.2682 -1.5436 -2.0569
   18SAPC  C218 2350   6.168   3.338   8.577  0.0305  0.3872  0.4793
   18SAPC  H18R 2351   6.191   3.246   8.634  0.5658  0.7477  0.8606
   18SAPC  H18S 2352   6.222   3.320   8.482  1.3006  1.2332  1.0226
   18SAPC  C219 2353   6.017   3.346   8.561  0.3713 -0.2575  0.2496
   18SAPC  H19R 2354   5.986   3.439   8.509  1.7058  0.0181 -0.0673
   18SAPC  H19S 2355   5.985   3.355   8.667 -1.0762 -0.3072 -0.1754
   18SAPC  C220 2356   5.961   3.223   8.490  0.2552  0.6552 -0.7563
   18SAPC  H20R 2357   5.992   3.131   8.543  1.0362  2.0694  1.3082
   18SAPC  H20S 2358   5.985   3.214   8.382  1.6147  1.3872 -0.5323
   18SAPC  H20T 2359   5.851   3.228   8.503  0.3580  0.3447  0.2600
   18SAPC   C33 2360   6.799   3.068  10.010 -0.2872  0.3107  0.2664
   18SAPC   H3X 2361   6.835   2.977  10.062 -1.2622  0.9609  2.1391
   18SAPC   H3Y 2362   6.879   3.144  10.008 -1.2199  1.2922 -0.5360
   18SAPC   C34 2363   6.754   3.038   9.859  0.5690  0.3919 -0.8669
   18SAPC   H4X 2364   6.719   3.134   9.816  0.6189 -0.1009 -2.0193
   18SAPC   H4Y 2365   6.676   2.960   9.865  0.0799  1.0459  2.0713
   18SAPC   C35 2366   6.876   3.002   9.774  0.3035  0.2247 -0.3633
   18SAPC   H5X 2367   6.931   2.916   9.818 -3.0157 -0.5062  2.6544
   18SAPC   H5Y 2368   6.953   3.079   9.792  0.8284 -0.0653 -1.3169
   18SAPC   C36 2369   6.845   2.989   9.629 -0.3790  0.0885 -0.6135
   18SAPC   H6X 2370   6.931   2.933   9.586 -1.2125 -1.9428  0.3266
   18SAPC   H6Y 2371   6.851   3.082   9.568  0.1332 -0.9500 -2.1722
   18SAPC   C37 2372   6.726   2.900   9.586  0.3156  0.3749 -0.3050
   18SAPC   H7X 2373   6.632   2.958   9.600 -0.0183 -0.1044 -0.5663
   18SAPC   H7Y 2374   6.739   2.820   9.662 -2.5804 -0.4074 -0.5830
   18SAPC   C38 2375   6.739   2.854   9.437  0.8564 -0.0600  0.0239
   18SAPC   H8X 2376   6.653   2.797   9.397  1.7649 -2.1118  0.9564
   18SAPC   H8Y 2377   6.829   2.790   9.427  1.0712  0.4165 -1.2911
   18SAPC   C39 2378   6.758   2.963   9.332  0.2546 -0.1088  0.2070
   18SAPC   H9X 2379   6.825   3.044   9.367  2.9458 -2.8701  1.7615
   18SAPC   H9Y 2380   6.660   3.013   9.314  1.1427  2.3842  2.0137
   18SAPC  C310 2381   6.820   2.914   9.200 -0.2251 -0.3557 -1.1237
   18SAPC  H10X 2382   6.759   2.832   9.156 -1.0878  0.5559 -1.6514
   18SAPC  H10Y 2383   6.924   2.883   9.221 -1.5453 -2.9906  2.0563
   18SAPC  C311 2384   6.817   3.025   9.098  0.1625 -0.1298 -0.7986
   18SAPC  H11X 2385   6.869   3.119   9.126  1.5153 -1.0007 -0.3079
   18SAPC  H11Y 2386   6.709   3.047   9.100  0.2774  0.3238  0.8992
   18SAPC  C312 2387   6.864   2.976   8.958 -0.9331  0.0247  0.2612
   18SAPC  H12X 2388   6.819   2.878   8.931 -2.2331  0.7033 -0.0688
   18SAPC  H12Y 2389   6.972   2.955   8.973 -0.9773 -1.2052 -1.0903
   18SAPC  C313 2390   6.848   3.079   8.851 -0.5555  0.7310  0.1409
   18SAPC  H13X 2391   6.859   3.182   8.891  0.6809  0.3003  0.9465
   18SAPC  H13Y 2392   6.746   3.066   8.809 -0.2839  0.0929 -0.3232
   18SAPC  C314 2393   6.955   3.062   8.743  0.1329  0.6743 -0.0263
   18SAPC  H14X 2394   6.974   2.955   8.717  1.1238  0.7332  0.4091
   18SAPC  H14Y 2395   7.054   3.089   8.785 -0.0414  1.0644  0.1329
   18SAPC  C315 2396   6.929   3.128   8.612  0.2624 -0.8196 -0.5608
   18SAPC  H15X 2397   6.939   3.238   8.620  0.9001 -0.8877 -0.3060
   18SAPC  H15Y 2398   6.823   3.105   8.588  0.4543 -0.0337 -2.2126
   18SAPC  C316 2399   7.012   3.077   8.491 -0.0942 -0.6293  0.4708
   18SAPC  H16X 2400   6.975   2.976   8.464  1.6905 -1.2954  0.4403
   18SAPC  H16Y 2401   7.119   3.075   8.520 -0.0165  0.9320  0.3388
   18SAPC  C317 2402   6.997   3.170   8.374  0.5397 -0.2403  0.7963
   18SAPC  H17X 2403   7.059   3.262   8.381 -0.4441  0.4942  0.0726
   18SAPC  H17Y 2404   6.892   3.204   8.366  1.3035  1.8280 -0.9034
   18SAPC  C318 2405   7.037   3.104   8.235 -0.4529 -0.3201 -0.4668
   18SAPC  H18X 2406   7.145   3.078   8.227 -0.3575 -0.2894  0.6279
   18SAPC  H18Y 2407   7.019   3.173   8.150 -0.1780  0.3479  0.0100
   18SAPC  H18Z 2408   6.978   3.015   8.204 -0.1287 -0.3597 -0.9808
   19SAPC     N 2409   5.577   4.728  10.595 -0.3435 -0.3695  0.2394
   19SAPC   C12 2410   5.663   4.826  10.513  0.5992 -0.1690 -0.2580
   19SAPC  H12A 2411   5.717   4.771  10.437  0.4248  0.5742 -0.9184
   19SAPC  H12B 2412   5.742   4.854  10.582  0.0961 -0.5542  0.4804
   19SAPC   C13 2413   5.654   4.610  10.644 -0.2789  0.1189  0.1008
   19SAPC  H13A 2414   5.599   4.535  10.699  1.8804 -0.3852  1.6050
   19SAPC  H13B 2415   5.702   4.568  10.557 -0.0818 -1.5874  1.0069
   19SAPC  H13C 2416   5.730   4.635  10.716 -1.8997  1.9019  1.2364
   19SAPC   C14 2417   5.510   4.783  10.714  0.1868  0.1753 -0.0678
   19SAPC  H14A 2418   5.437   4.855  10.680 -1.0464 -0.6714  0.7277
   19SAPC  H14B 2419   5.468   4.710  10.782 -0.2586 -2.0873 -2.6985
   19SAPC  H14C 2420   5.580   4.843  10.770 -0.7390  1.5466 -0.3509
   19SAPC   C15 2421   5.480   4.671  10.495  0.0701  0.1927 -0.4912
   19SAPC  H15A 2422   5.441   4.575  10.525  2.1111 -1.3706 -2.6000
   19SAPC  H15B 2423   5.403   4.741  10.466  0.8702  1.1467 -0.3491
   19SAPC  H15C 2424   5.534   4.645  10.405 -1.6120  0.6058 -1.6342
   19SAPC   C11 2425   5.584   4.942  10.460 -0.1086 -0.5203  0.3837
   19SAPC  H11A 2426   5.481   4.914  10.427  1.4597 -1.2339 -4.3691
   19SAPC  H11B 2427   5.636   4.971  10.366 -1.5153 -2.7146 -1.1204
   19SAPC     P 2428   5.661   5.178  10.543  0.2495  0.5078 -0.2879
   19SAPC   O13 2429   5.650   5.258  10.666  0.0640 -0.6901 -0.0003
   19SAPC   O14 2430   5.801   5.142  10.496 -0.1681  0.5562 -0.0304
   19SAPC   O12 2431   5.579   5.045  10.557  0.8352  0.2289 -0.0563
   19SAPC   O11 2432   5.586   5.250  10.428  0.3691 -0.0884  0.6063
   19SAPC    C1 2433   5.596   5.386  10.395 -0.4887 -0.0174  0.1430
   19SAPC    HA 2434   5.528   5.443  10.461 -1.2006  0.8610 -1.3101
   19SAPC    HB 2435   5.696   5.430  10.418 -1.6323  2.0967  1.1891
   19SAPC    C2 2436   5.557   5.423  10.243 -0.3828  0.1362  0.3978
   19SAPC    HS 2437   5.456   5.383  10.223  0.7207 -2.9441  0.7321
   19SAPC   O21 2438   5.657   5.364  10.153 -0.0895  0.4218 -0.1121
   19SAPC   C21 2439   5.640   5.238  10.111 -0.3283 -0.6699 -0.0335
   19SAPC   O22 2440   5.536   5.176  10.136 -1.0969 -0.2220 -0.1516
   19SAPC   C22 2441   5.764   5.189  10.045  0.5925  0.0388  0.4161
   19SAPC   H2R 2442   5.815   5.274   9.994 -1.5142  1.0308 -0.0871
   19SAPC   H2S 2443   5.835   5.152  10.122 -0.9093 -1.1197  1.2737
   19SAPC    C3 2444   5.551   5.578  10.221 -0.2987 -0.0600 -0.2626
   19SAPC    HX 2445   5.646   5.624  10.255 -1.1879 -0.7644  3.3383
   19SAPC    HY 2446   5.466   5.630  10.270  0.0094  2.2729 -2.1035
   19SAPC   O31 2447   5.546   5.606  10.082  0.5310  0.2081  0.3511
   19SAPC   C31 2448   5.432   5.587  10.012 -0.2786 -0.7214 -0.3798
   19SAPC   O32 2449   5.331   5.542  10.065  0.3794  0.3654 -0.4753
   19SAPC   C32 2450   5.444   5.658   9.878 -0.1814  0.3454  0.0897
   19SAPC   H2X 2451   5.552   5.665   9.856  0.2915 -0.1664  2.1276
   19SAPC   H2Y 2452   5.402   5.760   9.887  1.7711  1.1960 -0.3810
   19SAPC   C23 2453   5.747   5.061   9.956  0.1479  0.0177 -0.0242
   19SAPC   H3R 2454   5.704   4.981  10.019 -0.8313  0.8534  0.3848
   19SAPC   H3S 2455   5.844   5.032   9.911  0.8658  0.8611  0.9287
   19SAPC   C24 2456   5.646   5.083   9.842  0.5755  1.0553 -0.1440
   19SAPC   H4R 2457   5.548   5.092   9.895  0.0059 -0.9862 -0.8087
   19SAPC   H4S 2458   5.644   4.983   9.794 -2.2529 -0.3935  2.7541
   19SAPC   C25 2459   5.676   5.202   9.755  1.2069 -0.4062 -0.8688
   19SAPC   H5R 2460   5.649   5.303   9.791 -1.7169 -1.9146  1.3287
   19SAPC   C26 2461   5.733   5.187   9.632 -0.4416 -0.3677  0.4665
   19SAPC   H6R 2462   5.770   5.276   9.579 -2.2119 -0.2464 -0.5799
   19SAPC   C27 2463   5.768   5.057   9.562 -1.1717 -0.4394 -0.2908
   19SAPC   H7R 2464   5.679   4.991   9.571  0.1257 -2.1208  0.6795
   19SAPC   H7S 2465   5.843   4.997   9.619 -0.9641  1.0780  1.0696
   19SAPC   C28 2466   5.822   5.071   9.425  0.0188  0.7555  0.4139
   19SAPC   H8R 2467   5.931   5.078   9.418  0.0617 -0.3698 -0.1598
   19SAPC   C29 2468   5.755   5.063   9.310  0.4968 -0.5100  0.0604
   19SAPC   H9R 2469   5.808   5.084   9.216  0.9312  1.0281  0.6449
   19SAPC  C210 2470   5.608   5.032   9.284  0.1328  0.9325 -0.0176
   19SAPC  H10R 2471   5.561   4.988   9.375  0.8876  1.7157  0.7627
   19SAPC  H10S 2472   5.602   4.944   9.217 -0.9166  0.0118  1.2517
   19SAPC  C211 2473   5.516   5.145   9.236  0.7874 -0.0119  0.2690
   19SAPC  H11R 2474   5.459   5.193   9.317  0.4995  0.4819 -0.2203
   19SAPC  C212 2475   5.491   5.185   9.109 -0.1139 -0.2397  0.4615
   19SAPC  H12R 2476   5.418   5.263   9.084 -0.2766 -0.8647 -1.0765
   19SAPC  C213 2477   5.564   5.130   8.983  0.7816 -0.2178  0.3941
   19SAPC  H13R 2478   5.499   5.128   8.893  1.9714 -3.6890 -0.4722
   19SAPC  H13S 2479   5.601   5.026   8.998  0.4899 -0.2058  1.2527
   19SAPC  C214 2480   5.692   5.203   8.961  0.8317  0.6911 -0.1199
   19SAPC  H14R 2481   5.759   5.201   9.049  0.9127  2.8445 -0.1087
   19SAPC  C215 2482   5.736   5.259   8.847  0.2087 -0.5501 -1.7214
   19SAPC  H15R 2483   5.839   5.293   8.833  0.4345 -1.1434 -1.5192
   19SAPC  C216 2484   5.662   5.259   8.719  0.3672 -0.1571 -0.1525
   19SAPC  H16R 2485   5.623   5.361   8.699 -1.4502 -0.2674  2.5208
   19SAPC  H16S 2486   5.574   5.191   8.722  0.4926 -0.4269 -1.8717
   19SAPC  C217 2487   5.743   5.202   8.602 -1.1267 -0.1062 -0.9833
   19SAPC  H17R 2488   5.826   5.274   8.581 -2.0723  1.2269 -0.2031
   19SAPC  H17S 2489   5.674   5.212   8.515 -0.9664 -1.4287 -1.2717
   19SAPC  C218 2490   5.806   5.064   8.614 -1.3052 -0.3261 -0.6377
   19SAPC  H18R 2491   5.889   5.073   8.687 -0.9119 -0.7980 -1.0170
   19SAPC  H18S 2492   5.866   5.039   8.524  1.2906 -1.0758  1.2535
   19SAPC  C219 2493   5.707   4.947   8.632  0.3230 -0.2837  0.6775
   19SAPC  H19R 2494   5.637   4.941   8.545  0.3253  0.4909  0.6151
   19SAPC  H19S 2495   5.657   4.961   8.730 -0.1978  0.0794  0.3635
   19SAPC  C220 2496   5.776   4.806   8.611 -0.4497  0.1241  0.0887
   19SAPC  H20R 2497   5.820   4.808   8.509 -0.2625  1.2496  0.1853
   19SAPC  H20S 2498   5.709   4.717   8.608  1.7279 -1.5369 -0.3324
   19SAPC  H20T 2499   5.859   4.791   8.683  0.3137 -1.4505 -1.0768
   19SAPC   C33 2500   5.380   5.580   9.760 -0.0853 -0.0044 -0.3567
   19SAPC   H3X 2501   5.394   5.471   9.776  0.2285  0.2624  1.2392
   19SAPC   H3Y 2502   5.423   5.624   9.668 -0.9977  1.0717 -0.2868
   19SAPC   C34 2503   5.228   5.582   9.758 -0.4854  0.8924  0.3746
   19SAPC   H4X 2504   5.210   5.691   9.746  1.0045  0.9953 -1.0201
   19SAPC   H4Y 2505   5.187   5.558   9.859  0.2832  0.4329  0.5782
   19SAPC   C35 2506   5.168   5.497   9.638  0.0134  0.1358 -0.5877
   19SAPC   H5X 2507   5.058   5.513   9.638 -0.1254 -0.7151 -1.9439
   19SAPC   H5Y 2508   5.186   5.390   9.659  0.4186  0.3590  0.2133
   19SAPC   C36 2509   5.215   5.536   9.501  0.4834 -0.2075 -0.0001
   19SAPC   H6X 2510   5.252   5.640   9.514  3.0666 -0.6547 -2.9665
   19SAPC   H6Y 2511   5.124   5.541   9.438  0.8879 -0.1355 -0.5946
   19SAPC   C37 2512   5.325   5.452   9.443  0.3088 -0.2290 -0.4799
   19SAPC   H7X 2513   5.284   5.353   9.415  2.0682 -1.1049 -0.0370
   19SAPC   H7Y 2514   5.404   5.442   9.521 -0.9165  1.3192  0.9903
   19SAPC   C38 2515   5.391   5.514   9.317  0.7520 -0.1021 -0.1576
   19SAPC   H8X 2516   5.458   5.431   9.285  1.7459  0.0175  1.5656
   19SAPC   H8Y 2517   5.458   5.602   9.325  0.4677 -0.0299  1.6432
   19SAPC   C39 2518   5.282   5.535   9.208 -0.1201 -0.2507  0.0252
   19SAPC   H9X 2519   5.205   5.607   9.242  1.5128  1.5336  0.0519
   19SAPC   H9Y 2520   5.238   5.435   9.187  2.6507 -1.4592 -0.2701
   19SAPC  C310 2521   5.354   5.599   9.083 -0.0052 -0.3879 -0.5183
   19SAPC  H10X 2522   5.437   5.529   9.059  0.8689  0.2925  0.4818
   19SAPC  H10Y 2523   5.379   5.696   9.132  1.6044 -1.3280  0.5477
   19SAPC  C311 2524   5.270   5.633   8.960  0.3755 -0.4661 -0.0317
   19SAPC  H11X 2525   5.358   5.641   8.893  1.3638  1.8369  1.4982
   19SAPC  H11Y 2526   5.224   5.733   8.974 -0.4772 -1.1070  2.0410
   19SAPC  C312 2527   5.170   5.522   8.913 -0.4759 -0.0870  0.5660
   19SAPC  H12X 2528   5.075   5.539   8.968 -0.6313  0.5988  0.1010
   19SAPC  H12Y 2529   5.220   5.426   8.937 -0.0079  0.3146  1.2058
   19SAPC  C313 2530   5.127   5.526   8.765  0.3383 -0.6942 -0.2986
   19SAPC  H13X 2531   5.084   5.626   8.740 -0.4876 -0.6413  1.2395
   19SAPC  H13Y 2532   5.041   5.456   8.758 -0.7254  0.5987 -0.5156
   19SAPC  C314 2533   5.238   5.480   8.671 -0.4660 -0.1005 -0.1992
   19SAPC  H14X 2534   5.295   5.390   8.700 -0.4008  0.3225  1.0388
   19SAPC  H14Y 2535   5.309   5.565   8.677 -1.0380  0.3683 -0.0221
   19SAPC  C315 2536   5.180   5.475   8.526  0.3758 -0.5222 -0.5724
   19SAPC  H15X 2537   5.097   5.546   8.504  0.1311  0.2148  2.4676
   19SAPC  H15Y 2538   5.138   5.374   8.507 -0.0942  0.0892 -2.8182
   19SAPC  C316 2539   5.286   5.495   8.419  0.0427 -0.4362  0.7634
   19SAPC  H16X 2540   5.353   5.582   8.432 -0.4984  0.0661  0.2263
   19SAPC  H16Y 2541   5.231   5.515   8.324  0.5896 -0.4439  0.4414
   19SAPC  C317 2542   5.389   5.377   8.411 -0.1035  0.4486  0.8527
   19SAPC  H17X 2543   5.344   5.288   8.362  2.2765 -0.7138  0.7376
   19SAPC  H17Y 2544   5.420   5.347   8.514 -0.3002 -2.2179  0.1693
   19SAPC  C318 2545   5.509   5.404   8.326 -0.4783  0.0279  0.0126
   19SAPC  H18X 2546   5.559   5.503   8.333  2.3450 -1.3464  0.1882
   19SAPC  H18Y 2547   5.476   5.393   8.220  1.4002  1.3187 -0.7328
   19SAPC  H18Z 2548   5.579   5.319   8.343 -3.1592 -2.0438  0.9673
   20SAPC     N 2549   5.209   2.772  10.953 -0.7281 -0.1545 -0.0758
   20SAPC   C12 2550   5.272   2.745  10.817 -0.3318 -0.0089 -0.6452
   20SAPC  H12A 2551   5.376   2.724  10.833 -0.7909 -1.7049  0.3088
   20SAPC  H12B 2552   5.268   2.839  10.764 -0.1505 -0.3177 -1.2143
   20SAPC   C13 2553   5.264   2.907  10.999  0.0751 -0.3517  0.6048
   20SAPC  H13A 2554   5.246   2.985  10.927  1.0715  0.6373  1.4151
   20SAPC  H13B 2555   5.227   2.939  11.095 -1.1086  1.7918 -0.5264
   20SAPC  H13C 2556   5.371   2.896  11.006  0.1792  1.3058  1.7050
   20SAPC   C14 2557   5.064   2.794  10.931  0.0632  0.6558  0.7496
   20SAPC  H14A 2558   5.018   2.811  11.028  1.0851  0.6167  1.2433
   20SAPC  H14B 2559   5.037   2.871  10.859 -0.1896 -0.0686  0.0625
   20SAPC  H14C 2560   5.021   2.706  10.886 -0.5212  1.0444  0.5289
   20SAPC   C15 2561   5.227   2.658  11.058  0.9635  0.3515  0.6905
   20SAPC  H15A 2562   5.175   2.680  11.150 -1.5461 -0.4053 -0.4816
   20SAPC  H15B 2563   5.188   2.565  11.017  0.1673  0.8021  0.3987
   20SAPC  H15C 2564   5.332   2.643  11.076  1.2297 -2.5589 -2.6038
   20SAPC   C11 2565   5.222   2.631  10.727 -0.0381 -0.7420 -0.4088
   20SAPC  H11A 2566   5.293   2.630  10.642 -2.2563  2.1014 -2.3883
   20SAPC  H11B 2567   5.126   2.667  10.683 -0.0567 -2.6547 -2.0312
   20SAPC     P 2568   5.084   2.421  10.818  0.4717 -0.1553 -0.1600
   20SAPC   O13 2569   5.092   2.364  10.955  0.5990 -0.1277  0.0198
   20SAPC   O14 2570   4.960   2.501  10.800  1.0788  0.4159  0.2622
   20SAPC   O12 2571   5.213   2.507  10.795 -0.1244 -0.1428  1.0237
   20SAPC   O11 2572   5.092   2.316  10.705  0.4154 -0.1389  0.1807
   20SAPC    C1 2573   5.222   2.261  10.663  1.2115  0.2419  0.6646
   20SAPC    HA 2574   5.295   2.261  10.746  1.1250 -2.6143  0.7848
   20SAPC    HB 2575   5.207   2.153  10.645  0.9343 -0.1313  2.9351
   20SAPC    C2 2576   5.271   2.327  10.535  0.1938  0.3660 -0.0936
   20SAPC    HS 2577   5.262   2.437  10.538  1.3102  0.5251 -1.7255
   20SAPC   O21 2578   5.201   2.277  10.418 -0.3856  0.4142  0.2909
   20SAPC   C21 2579   5.114   2.356  10.356 -0.7563  0.0499  0.3099
   20SAPC   O22 2580   5.089   2.474  10.391 -0.3002 -0.5039 -0.2786
   20SAPC   C22 2581   5.051   2.283  10.236 -0.6058  0.2017  0.0633
   20SAPC   H2R 2582   5.143   2.241  10.189  0.3380  0.9600  1.2114
   20SAPC   H2S 2583   4.978   2.205  10.265 -2.0065  0.3865 -2.7898
   20SAPC    C3 2584   5.422   2.298  10.508 -0.2387 -0.2227 -0.4583
   20SAPC    HX 2585   5.428   2.191  10.479 -1.0406 -1.0751  2.3221
   20SAPC    HY 2586   5.485   2.323  10.596 -0.2239 -0.5680 -0.3716
   20SAPC   O31 2587   5.453   2.369  10.387 -0.2250  0.3326  0.4042
   20SAPC   C31 2588   5.478   2.497  10.403  0.2119 -0.8860 -0.5089
   20SAPC   O32 2589   5.474   2.559  10.509 -0.1806 -0.4218  0.0519
   20SAPC   C32 2590   5.545   2.549  10.274 -0.4429 -0.3764 -0.3488
   20SAPC   H2X 2591   5.515   2.480  10.192 -2.5214  1.0759 -0.8676
   20SAPC   H2Y 2592   5.655   2.538  10.275 -0.3698  0.0325 -1.9213
   20SAPC   C23 2593   4.964   2.377  10.149  0.1566  0.2759 -0.3939
   20SAPC   H3R 2594   5.021   2.471  10.130  3.1817 -1.1704  1.1069
   20SAPC   H3S 2595   4.866   2.411  10.189  0.6553  2.6259 -1.0616
   20SAPC   C24 2596   4.929   2.312  10.011  0.6071  0.1784 -0.2810
   20SAPC   H4R 2597   5.026   2.282   9.967  0.0498 -1.9756 -0.0780
   20SAPC   H4S 2598   4.895   2.395   9.946 -0.8514 -0.9604 -0.9974
   20SAPC   C25 2599   4.824   2.208  10.016 -0.3304  0.8289 -0.2149
   20SAPC   H5R 2600   4.808   2.160  10.114  1.3727 -0.7548 -0.6837
   20SAPC   C26 2601   4.749   2.163   9.914 -0.0834 -0.6589 -0.4605
   20SAPC   H6R 2602   4.667   2.098   9.948  0.4810 -0.9266  0.4195
   20SAPC   C27 2603   4.773   2.215   9.772  0.0087 -0.0260  0.0595
   20SAPC   H7R 2604   4.877   2.245   9.743  0.2290 -1.5017 -0.7000
   20SAPC   H7S 2605   4.703   2.298   9.749  0.7248  0.6220  0.1914
   20SAPC   C28 2606   4.741   2.097   9.679 -0.1398  0.3604 -0.4245
   20SAPC   H8R 2607   4.689   2.011   9.723  0.7000  0.2418  0.3529
   20SAPC   C29 2608   4.763   2.096   9.548  0.0562 -0.6282  0.1767
   20SAPC   H9R 2609   4.749   2.000   9.494  0.0209 -0.6184  0.1687
   20SAPC  C210 2610   4.823   2.212   9.470  0.9696  0.1307  0.7732
   20SAPC  H10R 2611   4.930   2.214   9.501  1.3517  0.5724 -0.5568
   20SAPC  H10S 2612   4.776   2.301   9.517 -2.2184 -1.3112  0.4794
   20SAPC  C211 2613   4.808   2.206   9.326 -0.2830 -0.3107 -0.1017
   20SAPC  H11R 2614   4.846   2.116   9.277 -0.1508 -0.2190 -0.1660
   20SAPC  C212 2615   4.753   2.302   9.248  0.7521  0.2481  0.3775
   20SAPC  H12R 2616   4.743   2.277   9.141  3.2540  0.7535  0.0047
   20SAPC  C213 2617   4.695   2.435   9.298  0.1086  0.5344  0.0159
   20SAPC  H13R 2618   4.716   2.519   9.229  4.2526  2.5537  3.4914
   20SAPC  H13S 2619   4.769   2.461   9.377  0.4945  0.7995 -0.4331
   20SAPC  C214 2620   4.551   2.431   9.325  0.4366 -0.6522  0.0881
   20SAPC  H14R 2621   4.499   2.430   9.229  1.6214  0.2288 -0.5846
   20SAPC  C215 2622   4.486   2.436   9.443 -0.2411 -0.0769 -0.6093
   20SAPC  H15R 2623   4.377   2.449   9.450  0.1686  2.8476  1.1528
   20SAPC  C216 2624   4.544   2.449   9.581  0.0517  0.2823 -0.3144
   20SAPC  H16R 2625   4.650   2.483   9.570  1.0005 -1.6500  2.4069
   20SAPC  H16S 2626   4.541   2.351   9.634 -2.2091  0.1137 -0.7233
   20SAPC  C217 2627   4.467   2.559   9.659 -0.9742 -0.0217  0.4705
   20SAPC  H17R 2628   4.366   2.583   9.620 -0.1648 -0.7417 -2.1895
   20SAPC  H17S 2629   4.519   2.657   9.648 -1.5057  0.0483 -1.5189
   20SAPC  C218 2630   4.455   2.527   9.808  0.4046  0.1215 -0.2730
   20SAPC  H18R 2631   4.523   2.603   9.853 -3.8207  3.1389  1.3764
   20SAPC  H18S 2632   4.502   2.428   9.823  1.8444  0.7862 -0.3734
   20SAPC  C219 2633   4.308   2.541   9.847 -0.4521 -0.1161  0.2360
   20SAPC  H19R 2634   4.244   2.463   9.801  1.9177 -1.4505 -0.9503
   20SAPC  H19S 2635   4.266   2.638   9.812  2.0683  0.5129 -1.1841
   20SAPC  C220 2636   4.292   2.555  10.001 -0.1486 -0.5868  0.0094
   20SAPC  H20R 2637   4.356   2.634  10.045  1.2708 -0.9081 -1.4302
   20SAPC  H20S 2638   4.326   2.458  10.042  0.1055 -0.5456 -0.1061
   20SAPC  H20T 2639   4.187   2.573  10.033  0.0351 -1.3158  1.0438
   20SAPC   C33 2640   5.502   2.694  10.239 -0.6461  0.3400  0.1764
   20SAPC   H3X 2641   5.572   2.720  10.157 -0.1245  0.5027  0.6633
   20SAPC   H3Y 2642   5.538   2.763  10.319 -2.1891  0.7241  0.5500
   20SAPC   C34 2643   5.357   2.710  10.215  0.0072  0.2314  0.2950
   20SAPC   H4X 2644   5.341   2.816  10.187 -1.5569  0.4501  1.9652
   20SAPC   H4Y 2645   5.305   2.696  10.311 -0.9374  0.6273 -0.1568
   20SAPC   C35 2646   5.291   2.617  10.108  0.5113 -0.1874  0.1376
   20SAPC   H5X 2647   5.181   2.627  10.121  0.6118 -1.2244  1.8701
   20SAPC   H5Y 2648   5.324   2.512  10.120 -1.1817 -1.0018 -1.9443
   20SAPC   C36 2649   5.332   2.652   9.966 -0.2681  0.3229  0.6169
   20SAPC   H6X 2650   5.440   2.627   9.953  0.3751  2.6189  1.3514
   20SAPC   H6Y 2651   5.312   2.760   9.952 -0.3881  0.2955  0.5770
   20SAPC   C37 2652   5.251   2.577   9.862 -0.2050 -0.6958  0.6990
   20SAPC   H7X 2653   5.144   2.584   9.890  0.4914  1.7573  2.9454
   20SAPC   H7Y 2654   5.267   2.468   9.875  1.7014 -0.4998  0.1716
   20SAPC   C38 2655   5.283   2.618   9.716  0.4092 -0.6859  0.0375
   20SAPC   H8X 2656   5.393   2.604   9.709  0.2786 -1.1598 -1.4462
   20SAPC   H8Y 2657   5.247   2.721   9.695  1.3875 -0.3542 -0.0198
   20SAPC   C39 2658   5.215   2.519   9.616 -0.0298  0.1131  0.6497
   20SAPC   H9X 2659   5.105   2.531   9.604  0.1306  1.8272  0.8388
   20SAPC   H9Y 2660   5.244   2.418   9.654  0.6646 -0.7078 -1.9550
   20SAPC  C310 2661   5.263   2.528   9.472  0.1754  0.6769 -0.1791
   20SAPC  H10X 2662   5.364   2.481   9.473  1.0922  2.5700 -0.6033
   20SAPC  H10Y 2663   5.260   2.634   9.440  0.2445  1.2819  1.7231
   20SAPC  C311 2664   5.167   2.437   9.387 -0.3145  0.0068 -0.1145
   20SAPC  H11X 2665   5.065   2.481   9.388  1.0048  3.2722 -0.4478
   20SAPC  H11Y 2666   5.163   2.330   9.416  0.5776 -1.2176 -4.1744
   20SAPC  C312 2667   5.208   2.432   9.237  0.3843 -0.0818  0.5474
   20SAPC  H12X 2668   5.310   2.389   9.233  0.8841  0.9968  1.4449
   20SAPC  H12Y 2669   5.223   2.531   9.188 -0.0440 -0.2288  0.1129
   20SAPC  C313 2670   5.105   2.356   9.158 -0.5476  0.1811  0.1642
   20SAPC  H13X 2671   5.018   2.425   9.155 -0.0785  0.7788  0.1249
   20SAPC  H13Y 2672   5.067   2.269   9.216  0.5848 -1.6793 -1.7838
   20SAPC  C314 2673   5.148   2.342   9.011 -0.0827  1.0350 -0.1852
   20SAPC  H14X 2674   5.224   2.261   9.003  0.5526  1.6091 -0.0604
   20SAPC  H14Y 2675   5.203   2.437   8.990  1.3718  0.8104  2.4228
   20SAPC  C315 2676   5.034   2.328   8.914 -0.3438  0.0674  1.3542
   20SAPC  H15X 2677   4.957   2.400   8.947  0.5891  1.6589  0.1200
   20SAPC  H15Y 2678   4.993   2.224   8.914 -2.0864  0.7161 -0.8159
   20SAPC  C316 2679   5.074   2.373   8.766 -0.3809  0.8375  0.0592
   20SAPC  H16X 2680   5.140   2.295   8.723  0.3043  0.7642  1.2139
   20SAPC  H16Y 2681   5.130   2.469   8.771  2.0001 -0.5714  1.3857
   20SAPC  C317 2682   4.954   2.388   8.676  0.5313 -0.0595  0.2737
   20SAPC  H17X 2683   4.883   2.459   8.724  1.8616  0.0580  2.1219
   20SAPC  H17Y 2684   4.904   2.289   8.665 -1.3788  1.0122 -0.8880
   20SAPC  C318 2685   5.000   2.419   8.530  0.0702 -0.1067  0.5171
   20SAPC  H18X 2686   4.910   2.406   8.466  0.7445  1.3804 -0.7678
   20SAPC  H18Y 2687   5.085   2.357   8.494  0.1336  0.9164 -1.1440
   20SAPC  H18Z 2688   5.021   2.528   8.529 -0.2038 -0.0507 -0.9716
   21SAPC     N 2689   5.170   1.235  10.910  0.1703  0.6799 -0.7450
   21SAPC   C12 2690   5.317   1.245  10.970  0.1338  0.4166  0.0655
   21SAPC  H12A 2691   5.388   1.256  10.890  0.9599 -0.3177  0.6841
   21SAPC  H12B 2692   5.348   1.152  11.015  0.2334 -0.0632 -0.9862
   21SAPC   C13 2693   5.181   1.147  10.798  0.1902 -0.4747  0.1361
   21SAPC  H13A 2694   5.216   1.197  10.709  0.6761  0.8937  1.0839
   21SAPC  H13B 2695   5.237   1.060  10.828 -0.1229 -0.9509 -0.6391
   21SAPC  H13C 2696   5.084   1.109  10.770  0.0243 -1.2435  1.6879
   21SAPC   C14 2697   5.073   1.192  11.013  0.0990 -0.1836  0.3720
   21SAPC  H14A 2698   4.974   1.183  10.971  0.1539 -0.0652  0.2131
   21SAPC  H14B 2699   5.114   1.101  11.055  1.4961 -0.4504 -1.5017
   21SAPC  H14C 2700   5.067   1.265  11.092 -0.5132 -1.0126  1.1062
   21SAPC   C15 2701   5.125   1.374  10.865 -0.5674  0.5184 -0.9886
   21SAPC  H15A 2702   5.127   1.437  10.953  0.6829  0.5108 -1.0052
   21SAPC  H15B 2703   5.198   1.403  10.791  1.2494 -2.7246 -0.5326
   21SAPC  H15C 2704   5.024   1.369  10.826 -0.9967  1.5976 -0.0365
   21SAPC   C11 2705   5.335   1.353  11.078 -0.0526  0.5244 -0.5116
   21SAPC  H11A 2706   5.420   1.321  11.141 -0.8834  0.7522  0.7365
   21SAPC  H11B 2707   5.252   1.350  11.152  0.0091 -1.2702 -0.5037
   21SAPC     P 2708   5.468   1.534  10.936  0.1798  0.4291  0.2338
   21SAPC   O13 2709   5.548   1.626  11.021 -0.5034  0.5960 -0.1896
   21SAPC   O14 2710   5.544   1.424  10.878 -0.2613 -0.1069  0.1115
   21SAPC   O12 2711   5.345   1.484  11.018  0.0810 -0.2348 -0.2509
   21SAPC   O11 2712   5.405   1.606  10.817 -0.4834  0.2135  0.2828
   21SAPC    C1 2713   5.289   1.693  10.824 -0.2575 -0.0261  0.3754
   21SAPC    HA 2714   5.198   1.639  10.859 -0.3408  0.9866  1.7468
   21SAPC    HB 2715   5.316   1.780  10.887  3.5514  0.1739 -1.3813
   21SAPC    C2 2716   5.257   1.735  10.674 -0.6676 -0.8035 -0.0047
   21SAPC    HS 2717   5.166   1.799  10.678  0.0345  0.1689  0.6158
   21SAPC   O21 2718   5.245   1.619  10.588  0.3474  0.0965  0.2245
   21SAPC   C21 2719   5.131   1.599  10.526  0.6780 -0.4956  0.2035
   21SAPC   O22 2720   5.026   1.657  10.549 -0.5442 -0.2042 -0.9258
   21SAPC   C22 2721   5.156   1.496  10.430 -0.7363  0.0532  0.2519
   21SAPC   H2R 2722   5.212   1.413  10.480  2.1827  2.3848  1.0027
   21SAPC   H2S 2723   5.060   1.449  10.401 -0.5939 -2.0478  3.0171
   21SAPC    C3 2724   5.378   1.826  10.631 -0.1417  0.4010 -0.1069
   21SAPC    HX 2725   5.467   1.777  10.675 -1.5910 -0.4682  1.9193
   21SAPC    HY 2726   5.371   1.927  10.676  1.0011  1.1732 -1.6024
   21SAPC   O31 2727   5.409   1.832  10.488 -0.1102 -0.0434  0.1880
   21SAPC   C31 2728   5.326   1.913  10.430  0.0729 -0.4275 -0.2518
   21SAPC   O32 2729   5.237   1.976  10.486  0.4976 -0.3090 -0.3525
   21SAPC   C32 2730   5.359   1.916  10.285 -0.2150 -0.1171 -0.3203
   21SAPC   H2X 2731   5.336   1.810  10.257  0.4720 -0.1872 -0.6220
   21SAPC   H2Y 2732   5.465   1.939  10.265  0.3325 -0.5883  1.9783
   21SAPC   C23 2733   5.246   1.533  10.310  0.2454  0.9221  1.0535
   21SAPC   H3R 2734   5.296   1.443  10.267 -1.7440 -0.3407  1.3329
   21SAPC   H3S 2735   5.330   1.597  10.343 -0.1263  1.0478  1.7555
   21SAPC   C24 2736   5.177   1.617  10.197  0.0443  0.3444 -0.2840
   21SAPC   H4R 2737   5.266   1.638  10.134  0.0202 -0.5011 -0.6078
   21SAPC   H4S 2738   5.127   1.706  10.240 -1.3770 -2.1339  3.4206
   21SAPC   C25 2739   5.080   1.530  10.119 -0.7086 -0.2308 -0.6035
   21SAPC   H5R 2740   5.023   1.461  10.182 -0.9154 -0.4194 -0.9978
   21SAPC   C26 2741   5.081   1.502   9.989 -0.2909 -0.2863 -0.0130
   21SAPC   H6R 2742   4.995   1.443   9.951 -0.5523  0.1603 -0.1184
   21SAPC   C27 2743   5.172   1.559   9.888 -1.1622  0.9048  0.6306
   21SAPC   H7R 2744   5.250   1.622   9.935 -0.3261  1.0997 -0.9558
   21SAPC   H7S 2745   5.109   1.626   9.826 -1.9983 -0.4734 -0.0524
   21SAPC   C28 2746   5.252   1.444   9.818 -0.4987 -0.7451 -0.0862
   21SAPC   H8R 2747   5.264   1.358   9.885 -2.7809  1.3093  3.1468
   21SAPC   C29 2748   5.287   1.438   9.688 -0.2800  0.3437 -0.0590
   21SAPC   H9R 2749   5.338   1.344   9.659  0.6169  0.9497 -0.4600
   21SAPC  C210 2750   5.248   1.538   9.585  0.0377 -0.0055 -0.3592
   21SAPC  H10R 2751   5.338   1.589   9.543  0.5149  0.4401  1.1811
   21SAPC  H10S 2752   5.193   1.627   9.622 -1.1351 -0.4840 -0.9415
   21SAPC  C211 2753   5.160   1.484   9.476  0.0509 -0.2129 -0.1590
   21SAPC  H11R 2754   5.063   1.451   9.513  0.0932  0.2289  0.3538
   21SAPC  C212 2755   5.186   1.484   9.343 -0.2001 -1.3257 -0.7227
   21SAPC  H12R 2756   5.104   1.456   9.276 -0.8293 -1.8838  0.2684
   21SAPC  C213 2757   5.311   1.539   9.272  0.0348  0.9593 -0.3559
   21SAPC  H13R 2758   5.392   1.555   9.347  2.9498 -0.7069 -2.9990
   21SAPC  H13S 2759   5.285   1.637   9.227  0.7304  1.7279  0.9133
   21SAPC  C214 2760   5.358   1.435   9.170  0.3983  0.4206 -0.3223
   21SAPC  H14R 2761   5.415   1.352   9.214 -0.1236 -0.1237 -0.6685
   21SAPC  C215 2762   5.344   1.440   9.038  0.7103  0.5559  0.3869
   21SAPC  H15R 2763   5.381   1.352   8.983  0.3725  0.7240 -0.1093
   21SAPC  C216 2764   5.276   1.553   8.967 -0.2132  0.4827  0.1177
   21SAPC  H16R 2765   5.348   1.633   8.940 -1.1114  1.5724  0.9210
   21SAPC  H16S 2766   5.200   1.602   9.031  0.2744  1.6524 -0.1799
   21SAPC  C217 2767   5.203   1.493   8.851 -0.4625 -0.1312 -0.0542
   21SAPC  H17R 2768   5.158   1.582   8.803 -0.6263 -0.8676 -1.2964
   21SAPC  H17S 2769   5.121   1.428   8.889  0.7714 -2.1188 -0.7161
   21SAPC  C218 2770   5.298   1.429   8.748  0.0072 -0.0948  1.3142
   21SAPC  H18R 2771   5.355   1.343   8.789  0.0945 -0.0147  1.3605
   21SAPC  H18S 2772   5.372   1.506   8.718 -1.3480  0.4738 -0.6895
   21SAPC  C219 2773   5.222   1.391   8.615  0.9576  0.1720  0.7653
   21SAPC  H19R 2774   5.151   1.309   8.637  1.1019 -0.1407  0.0776
   21SAPC  H19S 2775   5.303   1.348   8.552 -1.2257 -0.6332 -1.5287
   21SAPC  C220 2776   5.160   1.503   8.530  0.1651  0.1486  0.1703
   21SAPC  H20R 2777   5.234   1.585   8.517  0.0466  0.1777 -0.3364
   21SAPC  H20S 2778   5.073   1.542   8.587  1.5461 -0.0677  2.5299
   21SAPC  H20T 2779   5.121   1.483   8.428  0.0782  0.0616  0.2208
   21SAPC   C33 2780   5.259   1.995  10.192  0.1050 -0.0689  0.3495
   21SAPC   H3X 2781   5.266   2.103  10.217 -1.5942  0.3199 -0.7548
   21SAPC   H3Y 2782   5.154   1.973  10.221  0.1963  0.2660  0.9404
   21SAPC   C34 2783   5.280   1.975  10.039 -0.0627 -0.2456  0.0970
   21SAPC   H4X 2784   5.241   1.880   9.997 -0.6507  0.7696 -1.7380
   21SAPC   H4Y 2785   5.389   1.980  10.017  0.0494  0.4073  0.7797
   21SAPC   C35 2786   5.214   2.084   9.951  0.6925  0.1088  0.7209
   21SAPC   H5X 2787   5.234   2.184   9.994 -2.5383  1.6595 -1.1611
   21SAPC   H5Y 2788   5.103   2.082   9.956  0.4424  2.7151 -2.0766
   21SAPC   C36 2789   5.266   2.076   9.815  0.3742  0.4531  0.3767
   21SAPC   H6X 2790   5.374   2.050   9.816  0.3427  0.3396  2.2645
   21SAPC   H6Y 2791   5.282   2.175   9.768  0.4456  0.2418 -0.0471
   21SAPC   C37 2792   5.182   1.992   9.713  0.1467  0.1743  0.3827
   21SAPC   H7X 2793   5.079   2.032   9.721  0.1100 -0.1324  1.5488
   21SAPC   H7Y 2794   5.198   1.884   9.733  1.4792  0.7804  2.8663
   21SAPC   C38 2795   5.219   2.010   9.562  0.1529 -0.8044 -0.0239
   21SAPC   H8X 2796   5.324   1.982   9.539  0.5871 -0.2653  1.2680
   21SAPC   H8Y 2797   5.194   2.113   9.528  0.3874  0.1190  2.5556
   21SAPC   C39 2798   5.130   1.932   9.466 -0.6646  0.0849  0.1834
   21SAPC   H9X 2799   5.022   1.957   9.464 -1.1095 -1.7656  0.2097
   21SAPC   H9Y 2800   5.138   1.822   9.478  0.0759  0.0365 -0.6359
   21SAPC  C310 2801   5.177   1.957   9.323  0.5260 -0.4847  1.0222
   21SAPC  H10X 2802   5.284   1.930   9.312  0.2812 -1.0071 -0.0756
   21SAPC  H10Y 2803   5.177   2.067   9.309 -1.9196 -0.4464  1.1694
   21SAPC  C311 2804   5.090   1.879   9.227  0.6850 -0.8010  0.7476
   21SAPC  H11X 2805   4.986   1.914   9.244  1.1051  0.4390  0.8249
   21SAPC  H11Y 2806   5.083   1.771   9.251 -5.2425 -0.5450  0.7400
   21SAPC  C312 2807   5.142   1.906   9.088  0.0192 -0.8696  0.5707
   21SAPC  H12X 2808   5.231   1.843   9.065  0.0170 -0.0497 -1.8028
   21SAPC  H12Y 2809   5.168   2.013   9.078  2.1123 -1.1936  1.9540
   21SAPC  C313 2810   5.038   1.880   8.975 -0.1606  0.5473 -0.1256
   21SAPC  H13X 2811   4.950   1.941   9.002 -0.7013 -0.1498 -0.3050
   21SAPC  H13Y 2812   5.005   1.774   8.970  1.7693  0.0222 -3.5709
   21SAPC  C314 2813   5.092   1.921   8.842  0.0938 -0.4212  0.2055
   21SAPC  H14X 2814   5.193   1.877   8.837 -0.2340 -1.2674  0.9103
   21SAPC  H14Y 2815   5.111   2.030   8.834  1.4332 -0.6095  0.6456
   21SAPC  C315 2816   4.997   1.860   8.740 -0.6931 -0.3699 -0.5056
   21SAPC  H15X 2817   4.894   1.888   8.770  0.1392  1.3827  0.8040
   21SAPC  H15Y 2818   5.005   1.749   8.731 -3.4876 -0.6111 -0.4954
   21SAPC  C316 2819   5.028   1.930   8.606 -0.0207 -0.2477  0.4230
   21SAPC  H16X 2820   5.137   1.945   8.588 -0.4387 -1.7988 -4.1653
   21SAPC  H16Y 2821   4.991   2.035   8.603 -1.3730 -0.6996  1.0087
   21SAPC  C317 2822   4.979   1.846   8.483  0.5954 -0.1182 -0.8037
   21SAPC  H17X 2823   4.870   1.866   8.471  0.1443 -1.5266  0.7990
   21SAPC  H17Y 2824   4.978   1.740   8.515  1.5241 -0.3863 -1.6351
   21SAPC  C318 2825   5.075   1.861   8.363 -0.0660 -0.3429 -0.7265
   21SAPC  H18X 2826   5.165   1.797   8.376  0.1491  0.0237 -0.3730
   21SAPC  H18Y 2827   5.098   1.968   8.344  1.1726 -0.1650  1.6134
   21SAPC  H18Z 2828   5.030   1.833   8.265  0.4759 -1.4816 -0.6588
   22SAPC     N 2829   5.057   5.908  10.568  0.0438  0.2708  0.0863
   22SAPC   C12 2830   4.990   5.778  10.529 -0.1462  0.2920 -0.3358
   22SAPC  H12A 2831   5.065   5.719  10.478  1.6937 -0.8086  3.4621
   22SAPC  H12B 2832   4.917   5.794  10.451 -0.8719 -0.4656  0.1878
   22SAPC   C13 2833   5.178   5.872  10.654 -0.1026  0.4061  0.1601
   22SAPC  H13A 2834   5.156   5.871  10.760 -1.2806 -0.8904 -0.0714
   22SAPC  H13B 2835   5.212   5.774  10.625 -1.5922  0.4542 -1.8596
   22SAPC  H13C 2836   5.256   5.943  10.632  0.0146  0.8429  1.9067
   22SAPC   C14 2837   5.108   5.980  10.437 -0.1388 -0.2979  0.4809
   22SAPC  H14A 2838   5.160   5.912  10.371  1.6130  1.3415  0.1179
   22SAPC  H14B 2839   5.031   6.005  10.366 -0.4143 -0.8379  0.5852
   22SAPC  H14C 2840   5.181   6.059  10.448 -0.2095 -0.4167  1.9456
   22SAPC   C15 2841   4.974   6.010  10.636 -0.2238 -0.2639 -0.4412
   22SAPC  H15A 2842   4.885   6.023  10.577  0.1328  0.3928 -0.8390
   22SAPC  H15B 2843   4.938   5.958  10.723  1.3605  1.9732  1.6294
   22SAPC  H15C 2844   5.014   6.108  10.657 -0.1874 -0.5298  0.7725
   22SAPC   C11 2845   4.939   5.686  10.645  0.3128 -0.1781  0.0553
   22SAPC  H11A 2846   5.020   5.649  10.711  1.8197  1.1462 -1.0207
   22SAPC  H11B 2847   4.893   5.605  10.584  1.0144 -1.7151  1.5143
   22SAPC     P 2848   4.687   5.775  10.658 -0.0783 -0.5543  0.2054
   22SAPC   O13 2849   4.622   5.638  10.659 -0.9791  0.9358  0.3208
   22SAPC   O14 2850   4.612   5.887  10.720  0.7376  1.1727  0.5939
   22SAPC   O12 2851   4.833   5.753  10.717 -0.2561 -0.2368 -0.0935
   22SAPC   O11 2852   4.710   5.806  10.505  0.2351  0.1542 -0.1108
   22SAPC    C1 2853   4.606   5.775  10.416 -0.1606 -0.1567  0.0670
   22SAPC    HA 2854   4.570   5.670  10.427 -3.7228  1.2121  2.5405
   22SAPC    HB 2855   4.514   5.834  10.438 -1.1931 -1.0241 -1.7077
   22SAPC    C2 2856   4.660   5.802  10.272  0.0345 -0.2909  0.0771
   22SAPC    HS 2857   4.565   5.801  10.214  0.4941  0.0134 -0.6999
   22SAPC   O21 2858   4.750   5.699  10.228 -0.7564 -0.0305  0.5102
   22SAPC   C21 2859   4.703   5.576  10.215  0.6359  0.3914 -0.1529
   22SAPC   O22 2860   4.586   5.550  10.232  0.3096  0.4012 -0.1553
   22SAPC   C22 2861   4.817   5.481  10.179 -0.1499  0.4240 -0.1865
   22SAPC   H2R 2862   4.900   5.522  10.241  1.4070  0.2193 -2.0546
   22SAPC   H2S 2863   4.792   5.380  10.218 -1.3871  1.2418  1.1921
   22SAPC    C3 2864   4.728   5.941  10.274  0.1582 -0.3946 -0.2861
   22SAPC    HX 2865   4.824   5.935  10.329 -0.3310 -1.9685  0.4283
   22SAPC    HY 2866   4.660   6.011  10.327  0.5082 -1.1432  1.1732
   22SAPC   O31 2867   4.743   5.994  10.143 -0.1342 -0.6054  0.0569
   22SAPC   C31 2868   4.860   5.976  10.079  0.7758  0.1352 -0.5381
   22SAPC   O32 2869   4.961   5.936  10.133  0.1186  0.8281 -0.1363
   22SAPC   C32 2870   4.843   6.011   9.931  0.7085  0.8112  0.5248
   22SAPC   H2X 2871   4.927   5.957   9.881  2.4146  2.1749  1.8243
   22SAPC   H2Y 2872   4.865   6.119   9.915 -1.4788  1.0870 -0.7634
   22SAPC   C23 2873   4.860   5.487  10.029 -0.4312 -0.2891  0.1114
   22SAPC   H3R 2874   4.943   5.416  10.004 -1.0209 -1.4992  1.5023
   22SAPC   H3S 2875   4.908   5.587  10.025  1.3402 -1.1678 -3.8569
   22SAPC   C24 2876   4.746   5.469   9.927 -0.2637 -0.3123  0.1250
   22SAPC   H4R 2877   4.771   5.512   9.827 -2.7450  0.0199 -0.3879
   22SAPC   H4S 2878   4.655   5.526   9.956  0.3066  0.1894  0.9310
   22SAPC   C25 2879   4.710   5.322   9.927 -0.2209 -0.2996 -0.1388
   22SAPC   H5R 2880   4.763   5.257   9.998 -2.8857 -1.4891  0.8194
   22SAPC   C26 2881   4.600   5.277   9.861 -0.2012  0.7575 -0.8458
   22SAPC   H6R 2882   4.578   5.170   9.874  0.2223  0.8417  0.6645
   22SAPC   C27 2883   4.496   5.346   9.770  0.0058  0.0332 -0.1068
   22SAPC   H7R 2884   4.489   5.449   9.811 -0.2598  0.3129 -0.8471
   22SAPC   H7S 2885   4.401   5.294   9.794 -1.2303  2.9507  1.6595
   22SAPC   C28 2886   4.531   5.346   9.622 -0.8372 -0.6717  0.4672
   22SAPC   H8R 2887   4.624   5.402   9.603 -2.1053  0.5888 -2.1808
   22SAPC   C29 2888   4.471   5.287   9.517 -0.4771 -0.7814 -0.0182
   22SAPC   H9R 2889   4.509   5.293   9.414 -0.3712  1.2949  0.1197
   22SAPC  C210 2890   4.360   5.184   9.544 -0.5386  0.1126 -0.5390
   22SAPC  H10R 2891   4.369   5.132   9.642  0.9234  2.1614  0.4558
   22SAPC  H10S 2892   4.377   5.107   9.467 -2.0939 -0.8610  0.0596
   22SAPC  C211 2893   4.227   5.248   9.525  0.5260  0.1714 -0.3234
   22SAPC  H11R 2894   4.236   5.357   9.536 -1.9872  0.4144 -0.2193
   22SAPC  C212 2895   4.107   5.195   9.485 -0.3899 -0.2373 -0.2220
   22SAPC  H12R 2896   4.027   5.269   9.467  0.0569 -0.4676 -3.3984
   22SAPC  C213 2897   4.088   5.046   9.460 -0.7961  0.5891  0.4248
   22SAPC  H13R 2898   4.182   4.993   9.487 -0.6385  0.5191 -0.2430
   22SAPC  H13S 2899   4.082   5.023   9.352  3.6027  2.7446 -0.4199
   22SAPC  C214 2900   3.976   4.997   9.547  0.3342  0.5535 -1.1741
   22SAPC  H14R 2901   3.949   5.054   9.638  0.2726 -0.2225 -0.7025
   22SAPC  C215 2902   3.900   4.889   9.527 -0.6602 -0.2927 -0.1466
   22SAPC  H15R 2903   3.828   4.858   9.604 -1.7426 -0.3388 -1.1645
   22SAPC  C216 2904   3.911   4.774   9.428 -0.2934 -0.0973 -0.5092
   22SAPC  H16R 2905   3.932   4.671   9.465  2.9071  0.9494  0.6749
   22SAPC  H16S 2906   4.006   4.804   9.379  0.4063 -0.1998  0.7762
   22SAPC  C217 2907   3.803   4.776   9.318  0.2330 -0.3102  0.4458
   22SAPC  H17R 2908   3.815   4.867   9.255 -1.0298 -1.3395 -1.3475
   22SAPC  H17S 2909   3.699   4.764   9.353  0.4935 -1.6821  0.7848
   22SAPC  C218 2910   3.830   4.663   9.219  0.2315 -0.0371  0.3020
   22SAPC  H18R 2911   3.857   4.565   9.264 -0.1363 -0.6795 -0.8599
   22SAPC  H18S 2912   3.925   4.688   9.167  0.0120  0.5492  0.1726
   22SAPC  C219 2913   3.729   4.643   9.109  0.4824  0.4710  0.1257
   22SAPC  H19R 2914   3.633   4.618   9.158  0.6124 -0.6000 -0.1591
   22SAPC  H19S 2915   3.753   4.555   9.046 -3.1965  0.3334 -1.2013
   22SAPC  C220 2916   3.703   4.753   9.001 -0.5897  0.1918 -0.2370
   22SAPC  H20R 2917   3.757   4.848   9.019  0.2231 -0.0004 -1.5973
   22SAPC  H20S 2918   3.596   4.781   9.004 -0.7914 -0.6973  1.2109
   22SAPC  H20T 2919   3.727   4.719   8.898 -0.8920  3.0076 -1.2647
   22SAPC   C33 2920   4.715   5.945   9.870  0.3607  0.1703 -0.0219
   22SAPC   H3X 2921   4.625   6.003   9.899  2.1255  2.3482  1.1585
   22SAPC   H3Y 2922   4.704   5.840   9.906  1.0164  0.9417  2.5347
   22SAPC   C34 2923   4.713   5.924   9.723 -0.3704  0.3392  0.2388
   22SAPC   H4X 2924   4.761   6.014   9.680 -2.0161  1.8540  1.4966
   22SAPC   H4Y 2925   4.606   5.931   9.694 -0.4671  1.0194  0.7447
   22SAPC   C35 2926   4.793   5.799   9.681 -0.1118  0.7286  1.0085
   22SAPC   H5X 2927   4.769   5.713   9.747  0.1524 -0.2273 -0.1412
   22SAPC   H5Y 2928   4.900   5.824   9.700 -0.3329  1.2288  1.6311
   22SAPC   C36 2929   4.762   5.749   9.540  0.8145 -0.8687 -0.5273
   22SAPC   H6X 2930   4.803   5.810   9.456 -2.6981 -0.0931 -1.7642
   22SAPC   H6Y 2931   4.654   5.729   9.524  0.9442 -2.0134 -0.0209
   22SAPC   C37 2932   4.816   5.610   9.512 -0.4616 -0.5119  0.0627
   22SAPC   H7X 2933   4.779   5.544   9.594 -0.8325 -2.4636 -1.6232
   22SAPC   H7Y 2934   4.926   5.617   9.525 -0.5740  1.4675  0.0053
   22SAPC   C38 2935   4.786   5.535   9.373 -0.6085  0.2400  0.1838
   22SAPC   H8X 2936   4.819   5.601   9.290 -2.5087 -0.0910 -0.8680
   22SAPC   H8Y 2937   4.677   5.510   9.372 -0.7264  0.7226  0.9393
   22SAPC   C39 2938   4.858   5.400   9.381  0.3889  1.1115  0.3630
   22SAPC   H9X 2939   4.826   5.343   9.471 -1.4394  3.1596  1.0527
   22SAPC   H9Y 2940   4.967   5.413   9.394  0.2771  3.8806 -1.1310
   22SAPC  C310 2941   4.832   5.310   9.260 -0.6438  0.0690  0.3372
   22SAPC  H10X 2942   4.723   5.304   9.241 -0.4149 -0.7543 -0.7954
   22SAPC  H10Y 2943   4.864   5.204   9.259  1.6899  0.7040  2.8155
   22SAPC  C311 2944   4.906   5.367   9.134  0.3886  0.5232 -0.0548
   22SAPC  H11X 2945   5.012   5.339   9.119  0.2024 -0.7481  0.9399
   22SAPC  H11Y 2946   4.921   5.476   9.151  0.7929  0.0747  2.8033
   22SAPC  C312 2947   4.836   5.337   8.999 -0.1975 -0.8813  0.8288
   22SAPC  H12X 2948   4.834   5.229   8.971 -1.8644 -1.1008  1.7383
   22SAPC  H12Y 2949   4.909   5.381   8.927  1.4047 -0.4923  2.6321
   22SAPC  C313 2950   4.696   5.394   8.982 -0.1650  0.1637 -0.1178
   22SAPC  H13X 2951   4.619   5.347   9.047 -0.9742  1.7746  0.1227
   22SAPC  H13Y 2952   4.660   5.371   8.880  1.6676 -0.8763 -0.5296
   22SAPC  C314 2953   4.678   5.544   9.014 -0.1567 -0.1777  0.3365
   22SAPC  H14X 2954   4.692   5.551   9.124 -1.6342  0.2089  0.4977
   22SAPC  H14Y 2955   4.573   5.571   8.993  0.1034  1.6623  1.2833
   22SAPC  C315 2956   4.769   5.648   8.942  0.2277  0.7007 -0.5119
   22SAPC  H15X 2957   4.760   5.630   8.833 -0.4058  0.1640 -0.3751
   22SAPC  H15Y 2958   4.871   5.622   8.976  0.1763  1.4326  0.2118
   22SAPC  C316 2959   4.740   5.797   8.968 -0.1672  0.0973  0.0636
   22SAPC  H16X 2960   4.632   5.819   8.954 -0.3101  0.6647  1.8744
   22SAPC  H16Y 2961   4.798   5.869   8.905  0.8562 -0.1694  0.6801
   22SAPC  C317 2962   4.773   5.853   9.110 -0.1341  0.4489 -0.0493
   22SAPC  H17X 2963   4.883   5.845   9.124  0.0000  0.8041 -0.8737
   22SAPC  H17Y 2964   4.748   5.769   9.179  2.2270 -1.8991 -1.9297
   22SAPC  C318 2965   4.716   5.987   9.139  0.0852  0.6052  0.1519
   22SAPC  H18X 2966   4.779   6.066   9.093 -1.0464  0.7514 -1.2035
   22SAPC  H18Y 2967   4.717   6.010   9.248  1.1737 -1.5177  0.6285
   22SAPC  H18Z 2968   4.613   5.991   9.097 -0.3667 -4.8975  0.3432
   23SAPC     N 2969   6.766   0.646  11.193 -0.2492  0.5231  0.1208
   23SAPC   C12 2970   6.706   0.573  11.078 -0.4357  0.1887 -0.5948
   23SAPC  H12A 2971   6.600   0.589  11.089 -0.1964  0.0648  2.2982
   23SAPC  H12B 2972   6.717   0.469  11.106 -0.1663  0.0289 -1.2746
   23SAPC   C13 2973   6.764   0.793  11.161  0.5308 -0.1387 -0.0208
   23SAPC  H13A 2974   6.833   0.844  11.227  1.8124  0.6722 -1.9452
   23SAPC  H13B 2975   6.807   0.810  11.063  2.1311 -0.9586  0.5226
   23SAPC  H13C 2976   6.667   0.841  11.161 -0.1040 -1.3964  1.0988
   23SAPC   C14 2977   6.681   0.626  11.316  0.2304  0.0900 -0.3513
   23SAPC  H14A 2978   6.698   0.701  11.391 -2.3698  0.4898 -0.1204
   23SAPC  H14B 2979   6.577   0.641  11.288 -0.1163 -0.7395  0.4794
   23SAPC  H14C 2980   6.696   0.529  11.361  0.1446  0.0698 -0.3665
   23SAPC   C15 2981   6.907   0.607  11.219 -0.4951  0.3307  0.2353
   23SAPC  H15A 2982   6.972   0.624  11.134 -1.0257  0.8009 -0.0780
   23SAPC  H15B 2983   6.954   0.666  11.296  2.0918  0.2414 -1.2178
   23SAPC  H15C 2984   6.899   0.505  11.254 -1.1222 -0.1210 -1.2065
   23SAPC   C11 2985   6.759   0.597  10.934  0.4614 -0.9748 -0.2819
   23SAPC  H11A 2986   6.727   0.515  10.866  2.4965 -1.9822 -0.0384
   23SAPC  H11B 2987   6.868   0.579  10.948  0.6145 -0.1760 -0.4497
   23SAPC     P 2988   6.603   0.752  10.795  0.3011 -0.1477 -0.6477
   23SAPC   O13 2989   6.482   0.735  10.875  0.0701 -0.0666 -0.0745
   23SAPC   O14 2990   6.616   0.883  10.734  0.1632  0.1230  0.2021
   23SAPC   O12 2991   6.734   0.724  10.879  0.3899 -0.0580  0.2401
   23SAPC   O11 2992   6.609   0.647  10.680 -1.0889  0.2239  0.1970
   23SAPC    C1 2993   6.502   0.640  10.583 -0.3016 -0.0186  0.5348
   23SAPC    HA 2994   6.520   0.555  10.514 -1.4176  1.4904 -1.6559
   23SAPC    HB 2995   6.405   0.625  10.635 -1.7760  0.5185 -1.9909
   23SAPC    C2 2996   6.480   0.761  10.493  0.8227  0.1034 -0.3733
   23SAPC    HS 2997   6.440   0.847  10.551 -0.5211 -0.2827 -0.7085
   23SAPC   O21 2998   6.377   0.714  10.398  0.0259  0.0633 -0.3872
   23SAPC   C21 2999   6.300   0.809  10.347  0.0901 -0.1698  0.1173
   23SAPC   O22 3000   6.318   0.932  10.352  0.4199  0.3032  0.0110
   23SAPC   C22 3001   6.189   0.739  10.264  0.4235  0.5789 -0.7274
   23SAPC   H2R 3002   6.239   0.659  10.205 -1.9651  0.1284 -2.1930
   23SAPC   H2S 3003   6.114   0.688  10.329 -0.3387 -0.5421 -2.4506
   23SAPC    C3 3004   6.613   0.802  10.411  0.0418  0.3698  0.3455
   23SAPC    HX 3005   6.690   0.840  10.482  1.2642 -0.3301 -0.5923
   23SAPC    HY 3006   6.594   0.879  10.333 -2.2482 -0.1832  0.3268
   23SAPC   O31 3007   6.676   0.695  10.342  0.0320  0.7577 -0.1138
   23SAPC   C31 3008   6.633   0.671  10.219  0.1351  0.5596  0.1527
   23SAPC   O32 3009   6.556   0.740  10.150  0.0573 -0.5392 -0.6050
   23SAPC   C32 3010   6.675   0.525  10.194 -0.2984 -0.1284  0.6146
   23SAPC   H2X 3011   6.641   0.461  10.278 -1.2179  1.4236  1.4465
   23SAPC   H2Y 3012   6.785   0.507  10.193 -0.3076 -0.2129  1.3845
   23SAPC   C23 3013   6.116   0.838  10.173 -0.6958 -0.1830 -0.6292
   23SAPC   H3R 3014   6.186   0.890  10.104 -1.7914  2.8888  0.4852
   23SAPC   H3S 3015   6.070   0.910  10.244 -0.0657 -0.3081 -0.0884
   23SAPC   C24 3016   6.007   0.773  10.089 -0.2188 -0.2967  0.7965
   23SAPC   H4R 3017   5.967   0.855  10.025  1.2660 -0.7146 -0.7272
   23SAPC   H4S 3018   5.920   0.731  10.143 -0.3793 -3.7365 -1.9604
   23SAPC   C25 3019   6.062   0.650  10.014  0.5887  0.1270  0.2104
   23SAPC   H5R 3020   6.087   0.566  10.081 -0.6050  0.8499  1.5699
   23SAPC   C26 3021   6.081   0.639   9.884  0.5162  0.4054  0.3781
   23SAPC   H6R 3022   6.098   0.536   9.850  0.3276  0.3492  0.4535
   23SAPC   C27 3023   6.070   0.741   9.778  0.1829 -0.0550 -0.2286
   23SAPC   H7R 3024   6.071   0.843   9.823 -0.1685 -1.1565  2.3580
   23SAPC   H7S 3025   5.967   0.738   9.739 -0.0630  0.2751  0.3803
   23SAPC   C28 3026   6.176   0.731   9.670 -0.6493 -0.0180  0.4393
   23SAPC   H8R 3027   6.262   0.796   9.691 -1.1802  0.6558  0.5376
   23SAPC   C29 3028   6.170   0.675   9.543 -0.3482  0.0460  0.6459
   23SAPC   H9R 3029   6.258   0.679   9.477 -0.7450  1.5132  0.1828
   23SAPC  C210 3030   6.048   0.604   9.490 -0.7116  0.7623 -0.4880
   23SAPC  H10R 3031   5.999   0.558   9.578  0.9037 -1.4204 -0.7073
   23SAPC  H10S 3032   6.082   0.519   9.428  3.0185  1.7312  0.1249
   23SAPC  C211 3033   5.951   0.694   9.425 -0.0995 -0.0778 -0.1464
   23SAPC  H11R 3034   5.894   0.751   9.500  1.5716 -1.0050  1.8845
   23SAPC  C212 3035   5.933   0.708   9.293 -0.2771 -0.3014  0.0126
   23SAPC  H12R 3036   5.850   0.771   9.258  1.4244  2.5241  0.9150
   23SAPC  C213 3037   6.015   0.643   9.188  0.0932  0.5275  0.1474
   23SAPC  H13R 3038   6.095   0.577   9.229 -0.4790  0.2788  0.8686
   23SAPC  H13S 3039   6.064   0.724   9.129  0.0867 -0.1047 -0.7404
   23SAPC  C214 3040   5.926   0.568   9.099 -0.2408  0.3659 -0.0258
   23SAPC  H14R 3041   5.844   0.513   9.147  0.1122  0.8042  1.0799
   23SAPC  C215 3042   5.936   0.549   8.964  0.2657 -0.1699 -0.4027
   23SAPC  H15R 3043   5.860   0.484   8.918 -2.2850  2.6964 -0.3501
   23SAPC  C216 3044   6.043   0.596   8.868  0.0157  0.2414 -0.3172
   23SAPC  H16R 3045   6.102   0.512   8.825  1.4906  2.3662 -2.5817
   23SAPC  H16S 3046   6.119   0.657   8.921 -2.2423  1.2172  1.9307
   23SAPC  C217 3047   6.003   0.675   8.740  0.6751 -0.1036  0.3987
   23SAPC  H17R 3048   6.098   0.701   8.688  0.3221  2.0103  0.7842
   23SAPC  H17S 3049   5.963   0.775   8.764  1.4399  0.2662  0.1514
   23SAPC  C218 3050   5.921   0.606   8.624 -0.0415  0.1318  0.9268
   23SAPC  H18R 3051   5.830   0.564   8.673 -0.9325 -1.2220 -1.7944
   23SAPC  H18S 3052   5.979   0.525   8.576  0.4979  1.9800 -1.7122
   23SAPC  C219 3053   5.878   0.704   8.507 -0.5335  0.0386 -0.4704
   23SAPC  H19R 3054   5.972   0.726   8.453 -1.4180  2.6539 -0.9900
   23SAPC  H19S 3055   5.847   0.804   8.543 -2.1648 -0.5585 -0.1339
   23SAPC  C220 3056   5.759   0.643   8.425  0.4555  0.8030  0.5423
   23SAPC  H20R 3057   5.814   0.581   8.351  1.1462  0.5770  1.2332
   23SAPC  H20S 3058   5.705   0.723   8.370  0.4519  1.4018  1.3968
   23SAPC  H20T 3059   5.698   0.570   8.482  1.8436 -1.0472 -0.2850
   23SAPC   C33 3060   6.609   0.473  10.064  0.4022 -0.2153  0.4075
   23SAPC   H3X 3061   6.499   0.486  10.071  0.2325 -1.5597  0.2984
   23SAPC   H3Y 3062   6.616   0.362  10.062  0.3295 -0.2813  2.7823
   23SAPC   C34 3063   6.660   0.544   9.937  0.3297  0.4434 -0.1619
   23SAPC   H4X 3064   6.769   0.563   9.951  0.0430  0.8766  1.6526
   23SAPC   H4Y 3065   6.614   0.645   9.933 -1.2956 -0.3055 -0.6104
   23SAPC   C35 3066   6.629   0.467   9.805 -0.3565 -0.8195 -1.2416
   23SAPC   H5X 3067   6.526   0.430   9.824 -0.9480  1.6871  0.8291
   23SAPC   H5Y 3068   6.692   0.378   9.783 -0.5539 -1.5785  1.1181
   23SAPC   C36 3069   6.622   0.551   9.683 -0.1003 -0.0876 -0.3256
   23SAPC   H6X 3070   6.728   0.566   9.654  0.8149  0.4122  2.9984
   23SAPC   H6Y 3071   6.584   0.654   9.699  1.0866  0.6098 -1.8993
   23SAPC   C37 3072   6.555   0.482   9.561  0.1792  0.3293 -0.3708
   23SAPC   H7X 3073   6.453   0.450   9.592  0.4712  1.4108  1.7991
   23SAPC   H7Y 3074   6.606   0.390   9.527  0.4118 -0.5910  2.4072
   23SAPC   C38 3075   6.533   0.588   9.454 -0.0279  0.4030 -0.0360
   23SAPC   H8X 3076   6.631   0.630   9.425 -0.3757  2.2012  1.2877
   23SAPC   H8Y 3077   6.478   0.679   9.487 -1.4390 -0.6451  0.5423
   23SAPC   C39 3078   6.474   0.521   9.329 -0.6049  0.2833 -0.6551
   23SAPC   H9X 3079   6.369   0.489   9.343  0.4508 -1.7958  3.2658
   23SAPC   H9Y 3080   6.527   0.427   9.304 -0.2978  0.3221 -0.1576
   23SAPC  C310 3081   6.487   0.611   9.210  0.1083 -0.2257 -0.2626
   23SAPC  H10X 3082   6.594   0.622   9.182  0.2119 -1.0945 -0.2329
   23SAPC  H10Y 3083   6.454   0.714   9.235 -2.7678 -1.5080  1.4852
   23SAPC  C311 3084   6.411   0.553   9.086 -0.1106  0.6003 -0.5967
   23SAPC  H11X 3085   6.303   0.561   9.108  0.4295 -1.9624  3.4414
   23SAPC  H11Y 3086   6.431   0.447   9.059  2.5975  1.2474 -1.2946
   23SAPC  C312 3087   6.433   0.634   8.959  0.1028 -0.5954  0.1010
   23SAPC  H12X 3088   6.372   0.590   8.878 -0.6215 -0.8278  0.7713
   23SAPC  H12Y 3089   6.540   0.641   8.930 -0.2113  1.9039 -0.5529
   23SAPC  C313 3090   6.376   0.778   8.975  0.1303  1.0624  1.0114
   23SAPC  H13X 3091   6.446   0.835   9.039  2.4250  0.5171 -0.9107
   23SAPC  H13Y 3092   6.282   0.763   9.033  1.5238 -1.4168  2.7092
   23SAPC  C314 3093   6.358   0.853   8.845  0.4807  0.0192  0.1104
   23SAPC  H14X 3094   6.285   0.805   8.777 -0.6255  0.1735  1.1769
   23SAPC  H14Y 3095   6.448   0.874   8.783 -0.1274 -0.6222 -0.9921
   23SAPC  C315 3096   6.308   0.995   8.875  0.0119 -0.3630 -0.4415
   23SAPC  H15X 3097   6.388   1.045   8.934 -0.0853 -0.1113 -0.5227
   23SAPC  H15Y 3098   6.213   0.991   8.932 -0.3353  0.9880 -0.9232
   23SAPC  C316 3099   6.276   1.085   8.752 -0.3644 -0.2697  0.0664
   23SAPC  H16X 3100   6.189   1.037   8.703 -1.4918  0.4750  1.3104
   23SAPC  H16Y 3101   6.363   1.097   8.684  0.0126  1.2627  0.8010
   23SAPC  C317 3102   6.227   1.224   8.792 -0.5303  0.1220  0.2364
   23SAPC  H17X 3103   6.291   1.270   8.870 -0.2902  0.4516 -0.1568
   23SAPC  H17Y 3104   6.139   1.206   8.857  0.6713  0.3281  1.9326
   23SAPC  C318 3105   6.189   1.318   8.679 -0.3649  0.0685  0.0636
   23SAPC  H18X 3106   6.103   1.274   8.624 -0.6589  1.3437 -0.5130
   23SAPC  H18Y 3107   6.274   1.326   8.607 -1.1813 -1.2508 -1.0700
   23SAPC  H18Z 3108   6.159   1.423   8.701  0.1120 -0.1141  1.6493
   24SAPC     N 3109   1.438   0.400  11.155 -0.0128 -0.5750 -0.1635
   24SAPC   C12 3110   1.424   0.494  11.031  0.0108 -0.2288  0.4001
   24SAPC  H12A 3111   1.459   0.593  11.054 -0.4949 -0.0944  0.5935
   24SAPC  H12B 3112   1.322   0.507  10.998  0.1576 -0.1275 -0.0225
   24SAPC   C13 3113   1.570   0.430  11.226  0.5195  0.1947 -0.0184
   24SAPC  H13A 3114   1.652   0.411  11.160  0.3328 -0.2338 -0.1269
   24SAPC  H13B 3115   1.582   0.530  11.265  2.1585  0.0779 -0.2223
   24SAPC  H13C 3116   1.588   0.356  11.302 -1.9920  0.4528  0.8838
   24SAPC   C14 3117   1.330   0.424  11.256  0.1872 -0.0411 -0.0498
   24SAPC  H14A 3118   1.335   0.371  11.350 -0.2758  0.3404  0.1849
   24SAPC  H14B 3119   1.335   0.530  11.276 -0.1172  0.1777 -1.0928
   24SAPC  H14C 3120   1.232   0.400  11.218 -1.1056  2.1922  1.7835
   24SAPC   C15 3121   1.422   0.254  11.108 -0.4735  0.1977 -0.9061
   24SAPC  H15A 3122   1.498   0.246  11.032  0.5028  0.6970  0.0077
   24SAPC  H15B 3123   1.442   0.183  11.188 -0.7028  0.8865 -0.2358
   24SAPC  H15C 3124   1.328   0.227  11.062 -0.6975 -1.5925  0.5208
   24SAPC   C11 3125   1.502   0.442  10.907  0.2406 -0.2889 -0.1324
   24SAPC  H11A 3126   1.474   0.505  10.819 -0.3800 -0.4385 -0.0445
   24SAPC  H11B 3127   1.461   0.341  10.887  1.3969 -0.7951  0.0610
   24SAPC     P 3128   1.735   0.554  10.938  0.2593 -0.0478 -0.0530
   24SAPC   O13 3129   1.662   0.679  10.926  0.1230  0.4262  0.0666
   24SAPC   O14 3130   1.810   0.535  11.061  0.4701  0.9820  0.4149
   24SAPC   O12 3131   1.641   0.431  10.928 -0.2697  0.6263 -0.2868
   24SAPC   O11 3132   1.833   0.547  10.810 -0.1510 -0.1450 -0.1364
   24SAPC    C1 3133   1.863   0.427  10.750  1.0261  0.0993 -0.4180
   24SAPC    HA 3134   1.883   0.343  10.820 -1.6337 -1.3396 -1.3396
   24SAPC    HB 3135   1.782   0.396  10.681  0.1868  0.2062  0.5126
   24SAPC    C2 3136   1.986   0.442  10.662 -0.3437  0.4810 -0.8220
   24SAPC    HS 3137   2.058   0.513  10.708 -0.6010 -0.2595  0.7526
   24SAPC   O21 3138   1.941   0.472  10.526  0.8252 -0.1093 -0.6952
   24SAPC   C21 3139   2.018   0.565  10.472  1.3188 -0.5656 -0.6721
   24SAPC   O22 3140   2.117   0.618  10.521 -0.1759  0.6258 -0.1654
   24SAPC   C22 3141   1.962   0.602  10.333  0.1705  0.0181 -0.4854
   24SAPC   H2R 3142   1.925   0.503  10.300  1.6183 -1.4105  1.9458
   24SAPC   H2S 3143   1.886   0.678  10.359 -1.8316 -2.1344  0.2106
   24SAPC    C3 3144   2.077   0.316  10.656  0.2599 -0.4223  0.9241
   24SAPC    HX 3145   2.015   0.227  10.631  0.3054 -0.5627  1.3011
   24SAPC    HY 3146   2.116   0.292  10.757  2.2739 -1.0437  0.0108
   24SAPC   O31 3147   2.181   0.310  10.549  0.7793 -0.2293 -0.1475
   24SAPC   C31 3148   2.287   0.381  10.565 -0.4351  0.7930  0.8574
   24SAPC   O32 3149   2.320   0.427  10.667 -0.7209 -0.1154 -0.5325
   24SAPC   C32 3150   2.355   0.392  10.429  0.4630  0.3431  0.0292
   24SAPC   H2X 3151   2.452   0.439  10.458  1.1504 -0.7378 -0.5140
   24SAPC   H2Y 3152   2.299   0.467  10.369 -1.4643 -0.9724  0.1519
   24SAPC   C23 3153   2.072   0.648  10.226 -0.1528 -0.0232 -0.5042
   24SAPC   H3R 3154   2.161   0.587  10.252 -0.0617  0.3296  0.0288
   24SAPC   H3S 3155   2.095   0.754  10.253 -2.7472  1.4169 -3.6349
   24SAPC   C24 3156   2.017   0.646  10.085  0.4370 -0.4611  0.8808
   24SAPC   H4R 3157   1.916   0.690  10.100  0.5596  0.5507 -1.0630
   24SAPC   H4S 3158   1.999   0.540  10.059  1.9883 -0.4299 -0.4471
   24SAPC   C25 3159   2.091   0.709   9.970  0.7890  0.2490  0.1933
   24SAPC   H5R 3160   2.196   0.676   9.962  0.4900 -0.7132  0.1314
   24SAPC   C26 3161   2.050   0.809   9.885  0.2069  0.2791  0.1974
   24SAPC   H6R 3162   2.118   0.845   9.807 -3.4094  0.9512 -2.7930
   24SAPC   C27 3163   1.909   0.874   9.879 -0.2264 -0.0125 -0.2225
   24SAPC   H7R 3164   1.897   0.963   9.945 -0.6224 -0.3331  0.1366
   24SAPC   H7S 3165   1.835   0.808   9.928 -1.0474  1.1797  0.1545
   24SAPC   C28 3166   1.867   0.909   9.738 -0.2717  0.4376  0.6631
   24SAPC   H8R 3167   1.829   0.824   9.679  1.0454 -0.4436  1.0538
   24SAPC   C29 3168   1.899   1.025   9.672 -0.2995 -0.6919  0.3264
   24SAPC   H9R 3169   1.868   1.047   9.569 -1.8521 -1.1053  0.6893
   24SAPC  C210 3170   1.985   1.128   9.734 -0.1134  0.5202  0.5152
   24SAPC  H10R 3171   2.005   1.105   9.840  0.2648 -3.6637 -0.3791
   24SAPC  H10S 3172   1.920   1.219   9.727 -1.5922 -0.6349 -1.5129
   24SAPC  C211 3173   2.101   1.160   9.642  0.1199 -0.4519  0.0670
   24SAPC  H11R 3174   2.091   1.169   9.533  2.2253 -0.5779 -0.1661
   24SAPC  C212 3175   2.222   1.197   9.683  0.3632 -0.2902 -0.5680
   24SAPC  H12R 3176   2.303   1.215   9.610  0.1776 -0.7701 -0.8936
   24SAPC  C213 3177   2.272   1.211   9.828 -0.1629 -0.2788  0.3645
   24SAPC  H13R 3178   2.260   1.121   9.892  0.4840 -0.6944 -0.1098
   24SAPC  H13S 3179   2.203   1.276   9.887 -0.7125 -0.9748  0.5013
   24SAPC  C214 3180   2.407   1.278   9.839 -0.1631  1.0736  0.1026
   24SAPC  H14R 3181   2.402   1.388   9.841  3.3436  1.3198 -1.0210
   24SAPC  C215 3182   2.528   1.231   9.830  0.6701  0.6080  0.1190
   24SAPC  H15R 3183   2.620   1.289   9.849  0.1907  1.9888 -1.7070
   24SAPC  C216 3184   2.553   1.087   9.803 -0.7466  0.2540 -0.4555
   24SAPC  H16R 3185   2.456   1.033   9.802  0.4146 -1.8754 -0.5548
   24SAPC  H16S 3186   2.609   1.045   9.890  0.7901 -2.2681 -2.5711
   24SAPC  C217 3187   2.607   1.062   9.666 -0.4893  0.2110  0.1743
   24SAPC  H17R 3188   2.531   1.094   9.593  1.2442  0.4317 -1.5705
   24SAPC  H17S 3189   2.616   0.952   9.659 -1.7505  0.1277 -0.1174
   24SAPC  C218 3190   2.729   1.141   9.633  0.2192  0.1003  0.3078
   24SAPC  H18R 3191   2.714   1.250   9.624 -0.3801  0.1473  1.7945
   24SAPC  H18S 3192   2.760   1.107   9.532  0.4218 -0.1614  0.4568
   24SAPC  C219 3193   2.856   1.103   9.721 -0.2101  0.4335 -0.1803
   24SAPC  H19R 3194   2.836   1.143   9.822  0.6321  0.2437  0.0683
   24SAPC  H19S 3195   2.942   1.165   9.690 -1.2904  1.3082 -1.4845
   24SAPC  C220 3196   2.888   0.955   9.733 -0.8823 -0.4806  0.7558
   24SAPC  H20R 3197   2.830   0.908   9.815  0.8435 -0.6423  1.8961
   24SAPC  H20S 3198   2.993   0.948   9.767 -0.4679  1.4643 -0.0101
   24SAPC  H20T 3199   2.869   0.906   9.635 -1.2558  1.0462  0.0352
   24SAPC   C33 3200   2.360   0.260  10.343  0.0340  0.3326 -0.3387
   24SAPC   H3X 3201   2.266   0.268  10.284  0.3299  1.8559 -0.6217
   24SAPC   H3Y 3202   2.358   0.175  10.415 -3.7736 -0.0211 -0.7659
   24SAPC   C34 3203   2.475   0.249  10.251 -0.6943 -0.0097 -0.0560
   24SAPC   H4X 3204   2.471   0.150  10.202  1.4672 -1.7056  3.0343
   24SAPC   H4Y 3205   2.570   0.237  10.308 -0.4291 -2.6536 -1.0253
   24SAPC   C35 3206   2.482   0.362  10.147 -0.7280 -0.5754 -0.1108
   24SAPC   H5X 3207   2.492   0.457  10.202 -2.7822  1.0534 -2.4367
   24SAPC   H5Y 3208   2.388   0.380  10.091 -0.8173  0.7424  0.4665
   24SAPC   C36 3209   2.587   0.332  10.042  0.0233 -0.0571 -0.0831
   24SAPC   H6X 3210   2.686   0.327  10.092  0.8575  1.2763 -1.5525
   24SAPC   H6Y 3211   2.596   0.430   9.991 -3.1787 -0.7055 -2.0257
   24SAPC   C37 3212   2.555   0.211   9.953 -0.0932  0.7392 -0.4558
   24SAPC   H7X 3213   2.445   0.213   9.934 -0.3970 -4.5759 -0.0824
   24SAPC   H7Y 3214   2.571   0.113  10.004  0.0991  0.2835 -1.3747
   24SAPC   C38 3215   2.633   0.200   9.828  0.4310 -0.1474  0.2392
   24SAPC   H8X 3216   2.600   0.112   9.768  1.5976 -0.0820 -0.5072
   24SAPC   H8Y 3217   2.741   0.187   9.852  0.6729  1.5284  0.1268
   24SAPC   C39 3218   2.600   0.321   9.732  0.4628  1.0687  0.0742
   24SAPC   H9X 3219   2.649   0.412   9.772 -1.4048  1.3477  1.8331
   24SAPC   H9Y 3220   2.489   0.330   9.730  0.2507 -0.8287  1.6135
   24SAPC  C310 3221   2.644   0.308   9.589 -0.2678  0.1273  0.2770
   24SAPC  H10X 3222   2.754   0.293   9.577  0.1766 -0.1321  4.1253
   24SAPC  H10Y 3223   2.626   0.401   9.531  2.7683 -0.9880 -2.6350
   24SAPC  C311 3224   2.568   0.194   9.511  0.3322 -0.6547 -0.5288
   24SAPC  H11X 3225   2.460   0.211   9.530  1.5677  3.3180  3.7433
   24SAPC  H11Y 3226   2.608   0.101   9.557  1.0240 -1.0679 -1.9167
   24SAPC  C312 3227   2.581   0.193   9.356 -0.6721 -0.0980 -0.2398
   24SAPC  H12X 3228   2.568   0.292   9.307 -1.6074  0.8804  1.9168
   24SAPC  H12Y 3229   2.492   0.142   9.314 -1.0294  0.6192 -0.3542
   24SAPC  C313 3230   2.706   0.125   9.301 -0.0502 -0.3113 -0.5160
   24SAPC  H13X 3231   2.715   0.037   9.368  1.0981 -1.1498 -1.7695
   24SAPC  H13Y 3232   2.788   0.194   9.331  0.0604  0.4643 -2.5484
   24SAPC  C314 3233   2.704   0.084   9.155 -0.4732 -0.0964 -1.0226
   24SAPC  H14X 3234   2.697   0.172   9.087 -1.2488  0.1141 -0.6792
   24SAPC  H14Y 3235   2.611   0.027   9.133 -0.9948  0.4577 -0.2750
   24SAPC  C315 3236   2.823  -0.005   9.108  0.2896  0.2365 -0.9998
   24SAPC  H15X 3237   2.860  -0.070   9.191  1.1892  1.7735 -0.1799
   24SAPC  H15Y 3238   2.903   0.071   9.115 -1.7468  2.3676 -0.2978
   24SAPC  C316 3239   2.801  -0.065   8.972 -0.4065  0.7282  0.0278
   24SAPC  H16X 3240   2.715  -0.134   8.984 -1.0919  1.7484  1.0152
   24SAPC  H16Y 3241   2.894  -0.120   8.945 -1.4142 -1.4383  0.8555
   24SAPC  C317 3242   2.777   0.030   8.860  0.2640  0.9610  0.5445
   24SAPC  H17X 3243   2.853   0.111   8.864  2.1655 -0.7018 -1.0328
   24SAPC  H17Y 3244   2.682   0.088   8.873 -0.5429 -0.3951  0.7799
   24SAPC  C318 3245   2.792  -0.034   8.722  0.4007  0.4404  0.2860
   24SAPC  H18X 3246   2.821   0.049   8.654  2.7035  0.1689  0.8784
   24SAPC  H18Y 3247   2.697  -0.080   8.689  0.7687  1.7223 -2.7324
   24SAPC  H18Z 3248   2.878  -0.105   8.722  0.3549  0.3791  1.3891
   25SAPC     N 3249   5.252   5.578   6.210 -0.1972  0.4213 -0.9585
   25SAPC   C12 3250   5.301   5.459   6.128  0.5436 -0.5136 -0.3189
   25SAPC  H12A 3251   5.314   5.486   6.024 -0.1527  0.6621 -0.1169
   25SAPC  H12B 3252   5.229   5.379   6.136  1.4697 -1.3243 -0.0127
   25SAPC   C13 3253   5.236   5.530   6.353  0.2074  0.2579 -0.3382
   25SAPC  H13A 3254   5.334   5.512   6.396 -0.7059 -2.3336  0.7799
   25SAPC  H13B 3255   5.179   5.590   6.421  1.5098  0.8633  0.2393
   25SAPC  H13C 3256   5.187   5.433   6.349 -0.6846  0.7213 -0.8329
   25SAPC   C14 3257   5.343   5.701   6.196  0.5510  0.7037 -0.3316
   25SAPC  H14A 3258   5.316   5.755   6.106  1.5619  1.7272 -0.0397
   25SAPC  H14B 3259   5.333   5.768   6.280 -0.5861  0.5935 -0.3678
   25SAPC  H14C 3260   5.448   5.676   6.199  0.1864 -0.6899  2.1697
   25SAPC   C15 3261   5.120   5.619   6.161  0.0350  0.9204  0.1562
   25SAPC  H15A 3262   5.095   5.704   6.223 -1.6679 -0.0725  0.8519
   25SAPC  H15B 3263   5.109   5.631   6.054 -5.5799  0.3023  0.5256
   25SAPC  H15C 3264   5.050   5.540   6.184 -0.2755  0.8631 -0.9164
   25SAPC   C11 3265   5.440   5.409   6.166 -0.0810 -0.1737  0.5217
   25SAPC  H11A 3266   5.450   5.330   6.088 -2.9312  0.5837 -0.6483
   25SAPC  H11B 3267   5.443   5.361   6.266 -1.0994 -0.6216  0.3401
   25SAPC     P 3268   5.694   5.459   6.133  0.2348 -0.5520 -0.5047
   25SAPC   O13 3269   5.756   5.450   6.267  0.3098  0.0350  0.0626
   25SAPC   O14 3270   5.701   5.337   6.049 -0.8297  0.6042  0.0455
   25SAPC   O12 3271   5.544   5.504   6.150  0.4689  0.2383 -0.1414
   25SAPC   O11 3272   5.760   5.576   6.054  0.2244 -0.1881 -0.2869
   25SAPC    C1 3273   5.699   5.695   6.003 -0.2130 -0.4758 -0.2860
   25SAPC    HA 3274   5.748   5.728   5.909  0.1833 -0.3146 -0.0281
   25SAPC    HB 3275   5.589   5.681   5.996 -0.1038 -2.6504  1.5785
   25SAPC    C2 3276   5.726   5.810   6.104 -0.0929 -0.4060  0.2083
   25SAPC    HS 3277   5.831   5.805   6.141  0.3502  1.2745 -0.7586
   25SAPC   O21 3278   5.634   5.789   6.211 -0.5350  0.2713  0.2838
   25SAPC   C21 3279   5.676   5.833   6.327  0.3677  0.1204  0.0782
   25SAPC   O22 3280   5.774   5.902   6.352 -0.0901  0.4422  0.4054
   25SAPC   C22 3281   5.580   5.776   6.443 -0.3232 -1.3115 -0.2707
   25SAPC   H2R 3282   5.490   5.841   6.454  0.5938 -0.1791  0.6432
   25SAPC   H2S 3283   5.538   5.686   6.392  0.2544 -1.4278 -0.5522
   25SAPC    C3 3284   5.705   5.943   6.026  0.6316 -0.0828 -0.0532
   25SAPC    HX 3285   5.607   5.922   5.979 -0.3468 -3.3427  3.2152
   25SAPC    HY 3286   5.795   5.960   5.962 -0.4043  2.5355 -0.8635
   25SAPC   O31 3287   5.703   6.060   6.098  0.5259 -0.1045  0.0256
   25SAPC   C31 3288   5.587   6.113   6.132 -0.3000  0.2478 -0.1138
   25SAPC   O32 3289   5.482   6.063   6.099  0.0473 -0.2408  0.1708
   25SAPC   C32 3290   5.597   6.234   6.214  0.4762  0.3646 -0.8166
   25SAPC   H2X 3291   5.560   6.329   6.171 -0.2520  0.9911  1.1584
   25SAPC   H2Y 3292   5.707   6.241   6.231  0.3291 -0.4787  0.4926
   25SAPC   C23 3293   5.637   5.737   6.584  0.0494 -0.5613 -0.2933
   25SAPC   H3R 3294   5.715   5.807   6.621  0.0605 -1.7042  1.9530
   25SAPC   H3S 3295   5.694   5.645   6.559 -0.2926 -0.7532 -0.3726
   25SAPC   C24 3296   5.520   5.706   6.684 -0.2163 -0.6758  0.4909
   25SAPC   H4R 3297   5.579   5.646   6.757  2.9626  1.1684 -0.4342
   25SAPC   H4S 3298   5.449   5.638   6.632  0.6703 -0.1393 -1.5023
   25SAPC   C25 3299   5.454   5.839   6.722  0.1564 -0.2128  0.0789
   25SAPC   H5R 3300   5.432   5.909   6.639 -2.5766  0.8042  1.5885
   25SAPC   C26 3301   5.400   5.867   6.838 -0.2278  0.3517  0.3320
   25SAPC   H6R 3302   5.344   5.961   6.849 -0.8278  0.1084 -0.6473
   25SAPC   C27 3303   5.406   5.787   6.964 -0.1789 -0.1736 -0.0729
   25SAPC   H7R 3304   5.460   5.695   6.933  0.5089  0.7233 -1.6021
   25SAPC   H7S 3305   5.306   5.761   7.005 -0.4428  0.1464 -0.5159
   25SAPC   C28 3306   5.478   5.866   7.066 -0.3967  0.8246 -0.4573
   25SAPC   H8R 3307   5.541   5.951   7.035 -1.8821  2.9303  2.0954
   25SAPC   C29 3308   5.467   5.835   7.202  0.2976 -0.7586  0.6664
   25SAPC   H9R 3309   5.510   5.896   7.283 -1.1946 -1.0808  1.7402
   25SAPC  C210 3310   5.382   5.723   7.259 -0.9541  0.2338  0.2046
   25SAPC  H10R 3311   5.294   5.702   7.194 -1.9359 -0.3987  1.7160
   25SAPC  H10S 3312   5.328   5.753   7.351  0.4361  1.2472  0.7085
   25SAPC  C211 3313   5.456   5.589   7.262 -0.8212  0.9327 -0.7406
   25SAPC  H11R 3314   5.482   5.541   7.166 -1.1590 -3.9758  1.4789
   25SAPC  C212 3315   5.491   5.511   7.370 -0.2479  0.3054 -0.2498
   25SAPC  H12R 3316   5.537   5.417   7.334 -0.4293 -0.0957  0.5690
   25SAPC  C213 3317   5.474   5.544   7.512  0.2422  0.2700  0.9612
   25SAPC  H13R 3318   5.395   5.622   7.519 -0.7216 -0.0775 -4.1985
   25SAPC  H13S 3319   5.570   5.588   7.546  1.3098 -0.8499 -0.5266
   25SAPC  C214 3320   5.433   5.421   7.589 -0.0037 -0.7923 -0.1829
   25SAPC  H14R 3321   5.499   5.334   7.575  0.3131 -0.8637  1.6776
   25SAPC  C215 3322   5.326   5.412   7.667  0.1583 -0.7503  0.2461
   25SAPC  H15R 3323   5.308   5.315   7.717 -0.7967 -0.4722  0.4561
   25SAPC  C216 3324   5.220   5.520   7.691 -0.9979  0.0753  0.1919
   25SAPC  H16R 3325   5.165   5.539   7.596 -0.5178  1.6688  0.2266
   25SAPC  H16S 3326   5.255   5.620   7.723 -0.7881 -0.0716  0.4234
   25SAPC  C217 3327   5.112   5.467   7.786  0.2430 -0.0608 -0.2065
   25SAPC  H17R 3328   5.053   5.390   7.731  0.1485 -0.2982  0.2293
   25SAPC  H17S 3329   5.042   5.553   7.793  0.1969 -0.2182  1.4464
   25SAPC  C218 3330   5.170   5.422   7.926  1.0974  0.2701 -0.1697
   25SAPC  H18R 3331   5.239   5.497   7.969  0.2114 -0.1567  2.0648
   25SAPC  H18S 3332   5.212   5.320   7.915  0.8574  0.1901 -0.3596
   25SAPC  C219 3333   5.050   5.403   8.027 -1.0931  0.2172 -0.9400
   25SAPC  H19R 3334   4.968   5.353   7.972 -1.3807  0.3952 -0.6763
   25SAPC  H19S 3335   5.019   5.505   8.058 -1.2128 -0.0886 -0.0197
   25SAPC  C220 3336   5.094   5.318   8.151  0.4058  0.3412  0.5599
   25SAPC  H20R 3337   5.122   5.218   8.114 -0.6421  0.1574  0.2561
   25SAPC  H20S 3338   5.009   5.305   8.222  0.2453 -1.9357 -0.0256
   25SAPC  H20T 3339   5.182   5.361   8.203  0.2335  1.9296 -0.4294
   25SAPC   C33 3340   5.516   6.195   6.334  0.0433 -0.2963 -1.2291
   25SAPC   H3X 3341   5.545   6.101   6.384  0.1712  0.1076 -0.5339
   25SAPC   H3Y 3342   5.410   6.174   6.306 -0.8457  0.8573  1.0473
   25SAPC   C34 3343   5.493   6.316   6.435 -0.1355 -0.1406  0.7618
   25SAPC   H4X 3344   5.444   6.395   6.374 -1.3301 -0.2114  1.6088
   25SAPC   H4Y 3345   5.589   6.364   6.465  0.1914  0.3123 -0.9510
   25SAPC   C35 3346   5.418   6.272   6.556 -0.1823 -0.5382  0.0981
   25SAPC   H5X 3347   5.475   6.186   6.597  1.1472 -0.6797 -1.9662
   25SAPC   H5Y 3348   5.327   6.224   6.515  0.2448  0.4279 -2.0524
   25SAPC   C36 3349   5.361   6.380   6.647 -0.1461  0.4163 -1.0752
   25SAPC   H6X 3350   5.283   6.434   6.590 -0.5139 -0.7200 -1.6526
   25SAPC   H6Y 3351   5.443   6.449   6.678 -1.3222  1.2147  0.3448
   25SAPC   C37 3352   5.292   6.322   6.774  0.1867  0.5519 -0.2682
   25SAPC   H7X 3353   5.225   6.239   6.743 -0.2850  1.6764 -2.3828
   25SAPC   H7Y 3354   5.223   6.401   6.811 -0.7999  0.0700 -1.0649
   25SAPC   C38 3355   5.396   6.290   6.878 -0.1835 -1.3353  0.8100
   25SAPC   H8X 3356   5.464   6.377   6.863  1.4066 -2.9374 -1.5015
   25SAPC   H8Y 3357   5.458   6.201   6.857  0.8547 -0.2603 -0.8078
   25SAPC   C39 3358   5.336   6.306   7.024 -0.5162 -0.0542 -0.8849
   25SAPC   H9X 3359   5.256   6.229   7.030 -0.2865 -0.2124  0.3638
   25SAPC   H9Y 3360   5.283   6.403   7.036  1.4182  0.9989 -0.6687
   25SAPC  C310 3361   5.435   6.279   7.134 -0.0930 -0.5279 -0.3054
   25SAPC  H10X 3362   5.507   6.360   7.158 -0.8625 -0.3645  1.4771
   25SAPC  H10Y 3363   5.489   6.184   7.115  0.8424 -0.0057 -0.3418
   25SAPC  C311 3364   5.357   6.254   7.274 -0.1247 -0.4166 -0.2098
   25SAPC  H11X 3365   5.299   6.163   7.247 -1.3462  0.5465 -0.9042
   25SAPC  H11Y 3366   5.297   6.343   7.303  0.0739 -0.0226 -0.9727
   25SAPC  C312 3367   5.448   6.209   7.390  0.4732  0.2155  0.7432
   25SAPC  H12X 3368   5.485   6.292   7.454 -0.7869 -1.4646  3.7010
   25SAPC  H12Y 3369   5.538   6.157   7.350 -0.3248 -0.3599 -0.3215
   25SAPC  C313 3370   5.396   6.101   7.478  0.8105  0.0923  0.0961
   25SAPC  H13X 3371   5.384   6.006   7.422  1.2569 -0.9407  1.7165
   25SAPC  H13Y 3372   5.297   6.137   7.515  0.9184  1.0509 -0.5112
   25SAPC  C314 3373   5.484   6.070   7.593  0.4233  0.2656 -0.6156
   25SAPC  H14X 3374   5.496   6.161   7.655 -1.2227  0.8499 -1.1385
   25SAPC  H14Y 3375   5.584   6.052   7.547  1.6119  2.7437  0.8878
   25SAPC  C315 3376   5.427   5.954   7.670  0.5128 -0.0216 -0.3956
   25SAPC  H15X 3377   5.425   5.856   7.617 -0.3981 -1.1789  1.6985
   25SAPC  H15Y 3378   5.323   5.990   7.684  1.2094  2.1206 -0.4962
   25SAPC  C316 3379   5.491   5.940   7.810  0.0246  0.5274  0.2294
   25SAPC  H16X 3380   5.478   6.041   7.855  2.7074  2.7525 -3.6461
   25SAPC  H16Y 3381   5.600   5.921   7.800 -0.2366 -1.4533  0.9334
   25SAPC  C317 3382   5.425   5.830   7.901  0.6008  0.3483  0.3181
   25SAPC  H17X 3383   5.415   5.740   7.836  0.5424 -0.4575  1.4365
   25SAPC  H17Y 3384   5.320   5.863   7.917  1.1568  1.8754  0.8906
   25SAPC  C318 3385   5.483   5.791   8.036  0.4045 -0.0708  0.0655
   25SAPC  H18X 3386   5.414   5.729   8.098  0.6039  2.0673  2.5265
   25SAPC  H18Y 3387   5.524   5.872   8.100 -0.4008 -0.1925  0.7365
   25SAPC  H18Z 3388   5.576   5.735   8.009  0.1675 -0.7515  0.6377
   26SAPC     N 3389   3.864   0.595   6.126 -0.4477 -1.0274  0.2942
   26SAPC   C12 3390   3.869   0.747   6.136 -0.4791  0.2465 -0.1014
   26SAPC  H12A 3391   3.826   0.771   6.233 -2.1725 -1.7382 -0.3261
   26SAPC  H12B 3392   3.794   0.777   6.063 -0.9165  0.9090  0.6047
   26SAPC   C13 3393   3.731   0.524   6.130 -0.2542 -0.3565 -0.3689
   26SAPC  H13A 3394   3.663   0.547   6.050  0.2574  1.1784 -0.3713
   26SAPC  H13B 3395   3.736   0.416   6.118  3.7246 -0.3656  0.7517
   26SAPC  H13C 3396   3.680   0.545   6.223  2.6788  0.1214  1.2057
   26SAPC   C14 3397   3.945   0.550   6.005  0.2845  0.2646  0.4030
   26SAPC  H14A 3398   3.970   0.445   6.004  0.2924  0.2752 -1.9670
   26SAPC  H14B 3399   3.893   0.585   5.918 -0.8969  0.6726  1.2710
   26SAPC  H14C 3400   4.040   0.601   6.016  0.5599 -0.6560  2.5777
   26SAPC   C15 3401   3.944   0.534   6.239 -0.3851 -0.0362 -0.3488
   26SAPC  H15A 3402   3.892   0.528   6.333  0.3614  0.3995  0.0996
   26SAPC  H15B 3403   3.961   0.429   6.220  0.8013 -0.1438  1.2327
   26SAPC  H15C 3404   4.039   0.584   6.243 -0.7290  0.5358  0.9126
   26SAPC   C11 3405   4.003   0.816   6.124 -0.2909  0.1207  0.1648
   26SAPC  H11A 3406   3.984   0.926   6.127 -2.2445 -0.1941 -0.0337
   26SAPC  H11B 3407   4.050   0.792   6.026 -1.0402  0.8361 -0.3778
   26SAPC     P 3408   4.226   0.852   6.242  0.1014  0.6865  0.3009
   26SAPC   O13 3409   4.303   0.813   6.122  0.1528 -0.0589 -0.8358
   26SAPC   O14 3410   4.210   1.000   6.250 -0.4251  0.4517  0.2170
   26SAPC   O12 3411   4.086   0.784   6.237 -0.4030  0.2081 -0.4085
   26SAPC   O11 3412   4.291   0.801   6.373 -0.3601  0.4129 -0.6819
   26SAPC    C1 3413   4.321   0.892   6.482 -0.3231  0.1081 -0.5050
   26SAPC    HA 3414   4.386   0.973   6.444  0.8734 -1.0810 -1.0092
   26SAPC    HB 3415   4.229   0.936   6.526 -0.1525  0.0609 -0.0953
   26SAPC    C2 3416   4.401   0.823   6.596  0.8603  0.1288  0.3885
   26SAPC    HS 3417   4.500   0.790   6.555  0.2457 -0.3768 -0.7284
   26SAPC   O21 3418   4.325   0.723   6.660  0.0333  0.2016  0.3477
   26SAPC   C21 3419   4.391   0.621   6.726 -0.2964  0.2204 -0.1073
   26SAPC   O22 3420   4.511   0.604   6.711  0.3136  0.1135 -0.1300
   26SAPC   C22 3421   4.283   0.520   6.779 -0.7073  0.5607  0.6333
   26SAPC   H2R 3422   4.202   0.590   6.811  0.0886  1.3186  1.0161
   26SAPC   H2S 3423   4.248   0.457   6.694 -0.1786 -1.2433  1.7219
   26SAPC    C3 3424   4.446   0.929   6.702 -0.5794  0.4760 -0.6054
   26SAPC    HX 3425   4.363   0.951   6.772 -0.2838  0.9023 -0.3881
   26SAPC    HY 3426   4.476   1.023   6.650  2.0626  0.5971  1.0495
   26SAPC   O31 3427   4.561   0.888   6.781  1.1810  0.4547  0.1423
   26SAPC   C31 3428   4.616   0.975   6.866 -0.3237  0.7911 -0.0245
   26SAPC   O32 3429   4.566   1.085   6.884 -0.1516  0.1250  1.0618
   26SAPC   C32 3430   4.740   0.917   6.938 -0.0683 -0.0633  0.5407
   26SAPC   H2X 3431   4.768   1.001   7.005 -2.3915 -0.3903  1.9798
   26SAPC   H2Y 3432   4.826   0.902   6.870  1.6015  1.3581  2.2960
   26SAPC   C23 3433   4.347   0.418   6.867  0.1262 -0.1204 -0.2175
   26SAPC   H3R 3434   4.437   0.377   6.817 -1.0596  0.1064 -2.6007
   26SAPC   H3S 3435   4.287   0.325   6.878 -1.5803  0.9046 -0.6994
   26SAPC   C24 3436   4.391   0.475   6.998  0.0707  0.1788  0.5523
   26SAPC   H4R 3437   4.441   0.571   6.973  0.1589  0.3845  1.5043
   26SAPC   H4S 3438   4.472   0.414   7.043 -1.2031 -1.1664  1.0575
   26SAPC   C25 3439   4.276   0.480   7.097  0.4327 -0.5376 -0.1057
   26SAPC   H5R 3440   4.197   0.548   7.064 -0.8682 -1.8546  0.2134
   26SAPC   C26 3441   4.251   0.400   7.202  0.4388  0.2520 -0.0720
   26SAPC   H6R 3442   4.169   0.418   7.273  0.5505 -1.0787  0.4087
   26SAPC   C27 3443   4.333   0.285   7.257  0.5992 -0.7915  0.7144
   26SAPC   H7R 3444   4.407   0.317   7.333 -0.0445 -0.2278  1.1030
   26SAPC   H7S 3445   4.407   0.247   7.182 -1.1913 -0.2579 -1.3780
   26SAPC   C28 3446   4.248   0.169   7.307 -0.0000 -0.5706 -0.1705
   26SAPC   H8R 3447   4.213   0.102   7.228  0.7604 -2.9677  1.4707
   26SAPC   C29 3448   4.228   0.142   7.436  0.5321  0.3607 -0.2438
   26SAPC   H9R 3449   4.166   0.056   7.464 -0.3835  0.5231 -1.7348
   26SAPC  C210 3450   4.281   0.214   7.562  0.4777  0.0733 -0.4687
   26SAPC  H10R 3451   4.216   0.301   7.582  0.3223  0.4041 -2.3533
   26SAPC  H10S 3452   4.375   0.263   7.528  0.1780  1.8594  1.1660
   26SAPC  C211 3453   4.302   0.114   7.676 -0.0027 -0.9366  0.0198
   26SAPC  H11R 3454   4.331   0.013   7.643  2.4117 -0.3659  0.2605
   26SAPC  C212 3455   4.312   0.147   7.808 -0.1400 -0.0040 -0.6501
   26SAPC  H12R 3456   4.332   0.073   7.888  1.1174  0.5064 -0.4833
   26SAPC  C213 3457   4.298   0.286   7.871 -0.3408  0.8352 -0.3068
   26SAPC  H13R 3458   4.198   0.298   7.918  0.4359 -0.3427  1.6859
   26SAPC  H13S 3459   4.298   0.355   7.783  0.6951 -0.5424 -1.4095
   26SAPC  C214 3460   4.398   0.328   7.971 -0.1657  0.6156 -0.5859
   26SAPC  H14R 3461   4.493   0.339   7.916  0.1666 -0.4004 -0.2356
   26SAPC  C215 3462   4.386   0.375   8.093  0.0596  0.4149 -0.0375
   26SAPC  H15R 3463   4.483   0.397   8.140  1.0862 -0.4170 -1.7254
   26SAPC  C216 3464   4.257   0.391   8.173 -0.2585  0.0275 -0.9491
   26SAPC  H16R 3465   4.168   0.362   8.114 -0.4754  1.2314 -1.2357
   26SAPC  H16S 3466   4.238   0.500   8.186  1.4380  0.1390  0.9915
   26SAPC  C217 3467   4.251   0.321   8.315  0.0443 -0.2467  0.1907
   26SAPC  H17R 3468   4.276   0.214   8.296  0.4442 -0.3207  1.0838
   26SAPC  H17S 3469   4.145   0.306   8.346  0.2683 -1.2360  0.4882
   26SAPC  C218 3470   4.333   0.389   8.430 -0.9227 -0.1341  0.0632
   26SAPC  H18R 3471   4.434   0.400   8.384 -0.7097  1.4455  0.8724
   26SAPC  H18S 3472   4.337   0.311   8.509 -1.4044  0.9534  1.1878
   26SAPC  C219 3473   4.293   0.532   8.475  0.1528 -0.5236 -0.1389
   26SAPC  H19R 3474   4.282   0.583   8.377 -0.2287  1.0567  0.7154
   26SAPC  H19S 3475   4.382   0.568   8.531  0.6404 -0.2193 -1.0893
   26SAPC  C220 3476   4.168   0.539   8.564 -0.3570 -0.0468  0.2681
   26SAPC  H20R 3477   4.079   0.511   8.505  0.9955 -0.5701 -1.5640
   26SAPC  H20S 3478   4.160   0.640   8.611 -1.7657 -0.2061  0.3912
   26SAPC  H20T 3479   4.178   0.460   8.641  1.2106 -0.4294 -0.3000
   26SAPC   C33 3480   4.717   0.784   7.012 -1.0127 -0.2542 -0.4281
   26SAPC   H3X 3481   4.816   0.737   7.025  1.2972  3.9820 -1.7382
   26SAPC   H3Y 3482   4.658   0.721   6.941 -0.0340  0.2503 -1.7159
   26SAPC   C34 3483   4.637   0.791   7.135  0.0488  0.2547 -0.0074
   26SAPC   H4X 3484   4.611   0.688   7.167  0.4606  0.5754  1.4000
   26SAPC   H4Y 3485   4.544   0.849   7.115  2.2245  4.5005  1.5323
   26SAPC   C35 3486   4.716   0.862   7.257  0.0101  0.0775 -0.2407
   26SAPC   H5X 3487   4.738   0.968   7.234 -1.1216  0.9910  2.6695
   26SAPC   H5Y 3488   4.811   0.806   7.275 -0.5451 -1.3612 -1.5904
   26SAPC   C36 3489   4.637   0.876   7.384  0.3186 -0.1649 -0.6359
   26SAPC   H6X 3490   4.587   0.780   7.408 -0.9800  0.4489 -0.8351
   26SAPC   H6Y 3491   4.557   0.953   7.371  1.9385  1.3488 -1.8144
   26SAPC   C37 3492   4.717   0.913   7.506 -0.4254 -0.2282  0.2651
   26SAPC   H7X 3493   4.771   1.010   7.504  1.8887 -1.4795 -0.0194
   26SAPC   H7Y 3494   4.792   0.831   7.516 -0.9111 -0.6073  0.8575
   26SAPC   C38 3495   4.638   0.911   7.635 -0.1173 -0.3804 -0.4059
   26SAPC   H8X 3496   4.582   0.815   7.637 -1.3548  0.3073 -1.2007
   26SAPC   H8Y 3497   4.560   0.990   7.628 -0.9670 -1.1414  0.3736
   26SAPC   C39 3498   4.740   0.926   7.754  0.7303 -0.0601 -0.1320
   26SAPC   H9X 3499   4.795   1.022   7.761  1.6396 -0.6865  1.7608
   26SAPC   H9Y 3500   4.820   0.853   7.730  0.0123 -1.0587  0.4087
   26SAPC  C310 3501   4.690   0.890   7.897  0.3786 -0.6574  0.4268
   26SAPC  H10X 3502   4.640   0.791   7.889 -0.1997 -0.3334 -0.0406
   26SAPC  H10Y 3503   4.604   0.956   7.922 -1.8586 -1.9510 -3.5143
   26SAPC  C311 3504   4.799   0.879   8.002  0.2058 -0.3293  0.0403
   26SAPC  H11X 3505   4.858   0.972   8.014  0.3209 -0.3083 -0.6813
   26SAPC  H11Y 3506   4.867   0.799   7.966 -0.2312  0.0755 -1.6889
   26SAPC  C312 3507   4.745   0.841   8.138  0.3293 -0.5279 -0.5409
   26SAPC  H12X 3508   4.656   0.902   8.167 -0.2063 -1.8668  0.7144
   26SAPC  H12Y 3509   4.824   0.868   8.211  0.1715 -2.1195  0.2538
   26SAPC  C313 3510   4.708   0.695   8.152 -0.0676  0.6568 -0.7428
   26SAPC  H13X 3511   4.795   0.645   8.105  1.7259  0.4461  2.5972
   26SAPC  H13Y 3512   4.617   0.679   8.091 -0.3610 -2.0469  0.3434
   26SAPC  C314 3513   4.687   0.642   8.290  0.3821  0.3819  0.2517
   26SAPC  H14X 3514   4.614   0.558   8.294 -0.1563  0.8930  1.1639
   26SAPC  H14Y 3515   4.636   0.717   8.353  1.1283  1.3565 -0.2764
   26SAPC  C315 3516   4.806   0.565   8.351 -0.0363 -0.6673  1.0110
   26SAPC  H15X 3517   4.880   0.644   8.376 -0.4645 -0.3136  1.1555
   26SAPC  H15Y 3518   4.850   0.496   8.276  0.8305  0.4440  0.4748
   26SAPC  C316 3519   4.768   0.495   8.482  0.2580  0.2064 -0.2901
   26SAPC  H16X 3520   4.687   0.421   8.464  1.1863 -1.0995  0.7350
   26SAPC  H16Y 3521   4.731   0.565   8.559  1.6557 -0.4373  0.9956
   26SAPC  C317 3522   4.877   0.405   8.546 -0.5180  0.4265 -0.3907
   26SAPC  H17X 3523   4.919   0.330   8.476  1.7652 -2.1549  3.5264
   26SAPC  H17Y 3524   4.829   0.349   8.630 -1.7800  1.6928 -0.2393
   26SAPC  C318 3525   5.002   0.488   8.587 -0.5455  0.2797  0.5189
   26SAPC  H18X 3526   5.081   0.421   8.628  0.9470  2.0124  0.5047
   26SAPC  H18Y 3527   4.973   0.547   8.676 -1.1627  1.1531 -0.2561
   26SAPC  H18Z 3528   5.041   0.552   8.505  1.3182 -0.3150  0.9397
   27SAPC     N 3529   2.461   1.254   6.538 -0.1138 -0.6435 -0.1709
   27SAPC   C12 3530   2.446   1.295   6.677  0.2020  0.5150 -0.1867
   27SAPC  H12A 3531   2.460   1.212   6.744 -0.9762 -0.6474 -1.3308
   27SAPC  H12B 3532   2.348   1.333   6.702 -0.0849  1.5649 -2.7033
   27SAPC   C13 3533   2.479   1.372   6.449 -0.5437 -0.3292 -0.2300
   27SAPC  H13A 3534   2.499   1.333   6.350  2.1852 -2.1697  0.9731
   27SAPC  H13B 3535   2.393   1.438   6.444 -0.7407 -0.2614  2.9430
   27SAPC  H13C 3536   2.569   1.427   6.474  1.7784 -3.7877 -0.6476
   27SAPC   C14 3537   2.583   1.160   6.521  0.6425 -0.2209 -0.0078
   27SAPC  H14A 3538   2.665   1.210   6.570  1.0481  0.8540 -1.7402
   27SAPC  H14B 3539   2.562   1.065   6.568 -0.0780 -1.0759 -2.0210
   27SAPC  H14C 3540   2.606   1.146   6.416 -1.7139  0.2679 -0.6144
   27SAPC   C15 3541   2.344   1.179   6.509 -0.1790 -0.1835  0.4529
   27SAPC  H15A 3542   2.329   1.098   6.580  1.1060 -0.4836  0.3912
   27SAPC  H15B 3543   2.253   1.237   6.495 -0.6276 -1.2087 -0.9800
   27SAPC  H15C 3544   2.351   1.135   6.411  0.2096 -0.1520  0.4673
   27SAPC   C11 3545   2.555   1.388   6.731  0.8956  0.6081  0.2518
   27SAPC  H11A 3546   2.539   1.428   6.833 -0.0125  0.3985  0.1951
   27SAPC  H11B 3547   2.558   1.476   6.663 -1.8536 -0.1187 -0.8437
   27SAPC     P 3548   2.732   1.257   6.868  0.2148  0.2273 -0.5317
   27SAPC   O13 3549   2.839   1.162   6.828 -0.1603  0.5136 -0.1989
   27SAPC   O14 3550   2.767   1.366   6.960 -0.0652  0.0130 -0.8053
   27SAPC   O12 3551   2.686   1.330   6.735  0.4328  0.0004 -0.3895
   27SAPC   O11 3552   2.599   1.184   6.915  0.5252  0.3729  0.0731
   27SAPC    C1 3553   2.571   1.162   7.051  0.4674  0.0384  0.6593
   27SAPC    HA 3554   2.664   1.142   7.108  2.0833  0.0194 -1.9039
   27SAPC    HB 3555   2.521   1.250   7.096 -1.5584 -0.5037 -0.4759
   27SAPC    C2 3556   2.470   1.042   7.073  0.2366 -0.0715 -0.1604
   27SAPC    HS 3557   2.379   1.057   7.012  0.4519 -1.9398 -0.9762
   27SAPC   O21 3558   2.443   1.024   7.214 -0.1062  0.5511  0.7550
   27SAPC   C21 3559   2.360   1.115   7.262  0.3626  0.3218  0.4835
   27SAPC   O22 3560   2.305   1.194   7.195  0.1051  0.2691  0.5778
   27SAPC   C22 3561   2.346   1.078   7.410 -0.3789 -0.0692 -0.0908
   27SAPC   H2R 3562   2.296   0.979   7.411  1.2630 -0.9386  3.2347
   27SAPC   H2S 3563   2.450   1.072   7.448 -0.8100 -0.2537  1.0966
   27SAPC    C3 3564   2.525   0.908   7.014 -0.7260  0.0590 -0.0264
   27SAPC    HX 3565   2.611   0.868   7.071 -1.4125 -3.6073 -1.3567
   27SAPC    HY 3566   2.569   0.947   6.920  0.6493  2.0483  1.4116
   27SAPC   O31 3567   2.420   0.818   7.008  0.0086 -0.2025  0.1965
   27SAPC   C31 3568   2.451   0.698   6.980  0.4878 -0.0521 -0.0990
   27SAPC   O32 3569   2.562   0.655   6.949  0.0685 -0.4458  0.7241
   27SAPC   C32 3570   2.323   0.613   7.006 -0.6160 -0.5204 -0.4086
   27SAPC   H2X 3571   2.348   0.507   7.027  1.0133  0.2467  1.6416
   27SAPC   H2Y 3572   2.282   0.621   6.903  2.1256 -0.8292 -1.5675
   27SAPC   C23 3573   2.263   1.174   7.494  0.3777 -0.2692 -0.4882
   27SAPC   H3R 3574   2.171   1.191   7.433 -0.1666 -1.4585 -0.0098
   27SAPC   H3S 3575   2.317   1.270   7.509 -0.4886  0.5758 -2.5938
   27SAPC   C24 3576   2.197   1.135   7.625  0.2279 -0.7699  0.4513
   27SAPC   H4R 3577   2.129   1.048   7.615 -1.7499  0.7009  0.9287
   27SAPC   H4S 3578   2.145   1.226   7.661  1.4080 -0.5390  1.6202
   27SAPC   C25 3579   2.308   1.103   7.725 -0.5097  1.5271  0.3373
   27SAPC   H5R 3580   2.404   1.156   7.713 -0.0324  0.4898 -0.4719
   27SAPC   C26 3581   2.291   1.011   7.820  0.1841  0.2328  0.3916
   27SAPC   H6R 3582   2.378   0.985   7.882  0.6407 -0.4559 -0.5245
   27SAPC   C27 3583   2.161   0.932   7.848 -0.0036 -0.3535  0.0949
   27SAPC   H7R 3584   2.106   0.910   7.755 -0.0189  0.4881 -0.1014
   27SAPC   H7S 3585   2.107   1.002   7.915  2.5191  1.3574  0.4295
   27SAPC   C28 3586   2.195   0.791   7.906 -0.0774 -0.0613 -0.3803
   27SAPC   H8R 3587   2.283   0.740   7.864 -0.0020  0.9038 -1.4236
   27SAPC   C29 3588   2.146   0.733   8.024 -0.3654 -0.3833 -0.0258
   27SAPC   H9R 3589   2.179   0.638   8.069 -2.1659 -1.0280 -0.0077
   27SAPC  C210 3590   2.041   0.794   8.121  0.0476  0.0584 -0.3970
   27SAPC  H10R 3591   1.943   0.759   8.081 -0.6887  1.9592 -0.2725
   27SAPC  H10S 3592   2.046   0.904   8.116 -1.3727  0.2215  1.2374
   27SAPC  C211 3593   2.067   0.763   8.267 -0.6603 -0.1550  0.3423
   27SAPC  H11R 3594   2.150   0.818   8.314 -2.3122  2.0007  0.8217
   27SAPC  C212 3595   1.998   0.677   8.340 -0.0482 -0.6547  0.0973
   27SAPC  H12R 3596   2.028   0.674   8.445 -0.9736 -1.2932  0.3445
   27SAPC  C213 3597   1.880   0.590   8.292  0.5526 -0.1169 -0.1623
   27SAPC  H13R 3598   1.873   0.492   8.344 -2.4288  0.0369 -0.1875
   27SAPC  H13S 3599   1.905   0.568   8.186 -0.4125  1.9876 -0.8568
   27SAPC  C214 3600   1.737   0.649   8.289  0.0119 -0.1790  0.4012
   27SAPC  H14R 3601   1.735   0.748   8.241 -0.8618  0.5627  1.9248
   27SAPC  C215 3602   1.628   0.606   8.355 -0.0804 -0.4373 -0.5924
   27SAPC  H15R 3603   1.540   0.670   8.341 -0.2479 -0.2849  1.0413
   27SAPC  C216 3604   1.610   0.496   8.459  0.6166  0.9654 -0.0457
   27SAPC  H16R 3605   1.690   0.421   8.442  0.2443  0.5089  0.2119
   27SAPC  H16S 3606   1.514   0.441   8.447  2.0086 -0.7745 -3.8505
   27SAPC  C217 3607   1.621   0.535   8.606 -0.4812 -0.5825  0.5541
   27SAPC  H17R 3608   1.525   0.582   8.636 -0.3408 -1.1813  1.9728
   27SAPC  H17S 3609   1.699   0.615   8.611 -0.4275 -0.7173  1.9181
   27SAPC  C218 3610   1.636   0.416   8.698 -0.4699 -0.0815  0.0056
   27SAPC  H18R 3611   1.718   0.353   8.657 -1.0829  0.4471 -2.0925
   27SAPC  H18S 3612   1.539   0.362   8.687 -0.0329 -0.5620 -1.6120
   27SAPC  C219 3613   1.664   0.458   8.846 -0.3885  0.4190  0.2307
   27SAPC  H19R 3614   1.771   0.475   8.873 -0.5845 -0.2432  1.4546
   27SAPC  H19S 3615   1.641   0.372   8.912  0.0352 -0.9741 -1.3990
   27SAPC  C220 3616   1.569   0.570   8.898 -0.6196  0.1281  0.5954
   27SAPC  H20R 3617   1.610   0.659   8.845  1.8943 -1.5500 -0.3514
   27SAPC  H20S 3618   1.590   0.580   9.007  1.9299  0.2773  0.1127
   27SAPC  H20T 3619   1.461   0.551   8.879 -0.6434  0.0730  0.7895
   27SAPC   C33 3620   2.229   0.670   7.118 -0.4567  0.4213  0.1808
   27SAPC   H3X 3621   2.142   0.602   7.108  1.2532 -1.8761  0.5147
   27SAPC   H3Y 3622   2.199   0.776   7.103  0.3394  0.5946 -0.2155
   27SAPC   C34 3623   2.282   0.662   7.259  0.1438  0.4661  0.7209
   27SAPC   H4X 3624   2.192   0.672   7.323  0.1810  0.3240  0.7946
   27SAPC   H4Y 3625   2.341   0.752   7.286  0.1155  0.8898 -0.5854
   27SAPC   C35 3626   2.355   0.531   7.291 -0.0171 -0.1719 -0.1241
   27SAPC   H5X 3627   2.451   0.524   7.235  0.3423 -0.5384  0.5308
   27SAPC   H5Y 3628   2.292   0.447   7.256  1.1936 -1.3998  0.5923
   27SAPC   C36 3629   2.402   0.519   7.442  0.3476 -0.2290  0.5274
   27SAPC   H6X 3630   2.431   0.620   7.477 -5.2165  1.1042  1.7724
   27SAPC   H6Y 3631   2.485   0.445   7.447  1.6931  1.2662  0.5899
   27SAPC   C37 3632   2.285   0.466   7.534 -1.2288 -0.0735  0.0173
   27SAPC   H7X 3633   2.239   0.377   7.486 -0.0884 -0.2220 -0.8252
   27SAPC   H7Y 3634   2.211   0.549   7.535 -0.1418  0.9086  1.0133
   27SAPC   C38 3635   2.321   0.425   7.680 -0.0035 -0.1391  1.0072
   27SAPC   H8X 3636   2.352   0.515   7.737  0.2767 -1.0254  2.2632
   27SAPC   H8Y 3637   2.408   0.358   7.665  0.0120  0.1306 -0.1775
   27SAPC   C39 3638   2.212   0.348   7.753  0.2836  0.4554  0.5051
   27SAPC   H9X 3639   2.194   0.245   7.714  2.2155  0.4575 -0.4525
   27SAPC   H9Y 3640   2.117   0.397   7.725  0.9892  0.3629 -2.1243
   27SAPC  C310 3641   2.226   0.357   7.905 -0.5080 -0.4940 -0.2504
   27SAPC  H10X 3642   2.259   0.456   7.943  0.5989 -0.4791 -1.2042
   27SAPC  H10Y 3643   2.311   0.291   7.933  0.1594  0.9936  1.3596
   27SAPC  C311 3644   2.106   0.317   7.987 -0.4929  0.5420 -0.1810
   27SAPC  H11X 3645   2.062   0.221   7.954  1.8454 -0.9616  1.0000
   27SAPC  H11Y 3646   2.029   0.397   7.976  0.9716  2.1774  1.1768
   27SAPC  C312 3647   2.141   0.310   8.129  0.1829 -0.9095 -0.1965
   27SAPC  H12X 3648   2.129   0.412   8.171 -0.5625 -2.3153  3.1403
   27SAPC  H12Y 3649   2.250   0.288   8.140  0.1296 -1.0924 -0.0530
   27SAPC  C313 3650   2.040   0.221   8.212 -0.6326  0.1652 -0.3576
   27SAPC  H13X 3651   2.044   0.116   8.178  1.1627 -0.1391  0.7730
   27SAPC  H13Y 3652   1.936   0.261   8.209 -0.8997 -0.1397  2.8534
   27SAPC  C314 3653   2.092   0.212   8.355 -0.9018 -0.6510 -0.1680
   27SAPC  H14X 3654   2.101   0.314   8.398 -1.0228 -0.9416  0.5612
   27SAPC  H14Y 3655   2.193   0.168   8.354 -0.4617  0.3493 -0.7743
   27SAPC  C315 3656   1.989   0.147   8.449 -0.5393 -0.4468  0.6046
   27SAPC  H15X 3657   1.964   0.047   8.407 -0.8047  0.4413 -1.3889
   27SAPC  H15Y 3658   1.899   0.210   8.439  0.1037  0.1155 -2.0348
   27SAPC  C316 3659   2.035   0.133   8.600 -0.4366 -0.3337  0.1085
   27SAPC  H16X 3660   2.059   0.233   8.642  2.2439 -0.2686 -1.3954
   27SAPC  H16Y 3661   2.134   0.084   8.586  0.7919  2.6152 -2.0532
   27SAPC  C317 3662   1.936   0.053   8.686  0.1560  0.1250 -0.5471
   27SAPC  H17X 3663   1.839   0.105   8.667 -0.2896 -0.3678  0.3618
   27SAPC  H17Y 3664   1.960   0.058   8.794 -2.9212 -2.8563  0.3548
   27SAPC  C318 3665   1.915  -0.093   8.652  0.8032 -0.3568 -0.8849
   27SAPC  H18X 3666   1.881  -0.094   8.546  0.7848  0.5553 -0.8894
   27SAPC  H18Y 3667   1.827  -0.127   8.711 -0.8694 -0.9860 -3.6395
   27SAPC  H18Z 3668   2.001  -0.159   8.677 -0.9085 -1.9698  0.8531
   28SAPC     N 3669   1.888   4.996   5.850  1.1652  0.2909 -0.6822
   28SAPC   C12 3670   2.026   4.962   5.908  0.0131  0.1295  0.0258
   28SAPC  H12A 3671   2.046   5.035   5.985  1.1158 -0.7284  0.5708
   28SAPC  H12B 3672   2.099   4.989   5.833 -1.1389  2.5913 -0.2828
   28SAPC   C13 3673   1.866   4.925   5.729  0.2990 -0.3027  0.3288
   28SAPC  H13A 3674   1.776   4.945   5.674  0.9087 -0.6932 -0.8345
   28SAPC  H13B 3675   1.941   4.949   5.656 -0.4793  0.0420 -0.3634
   28SAPC  H13C 3676   1.875   4.818   5.745  1.3753 -0.1681  0.6537
   28SAPC   C14 3677   1.783   4.947   5.943 -0.2122 -0.2406 -0.1384
   28SAPC  H14A 3678   1.791   4.840   5.959 -0.2018 -0.2266 -0.0530
   28SAPC  H14B 3679   1.789   4.986   6.044 -0.7647 -2.6280  0.8781
   28SAPC  H14C 3680   1.688   4.963   5.894  0.6718 -0.0120 -1.8083
   28SAPC   C15 3681   1.877   5.146   5.825 -0.3877  0.5517 -0.0695
   28SAPC  H15A 3682   1.782   5.169   5.780 -1.0530 -1.7261  0.1169
   28SAPC  H15B 3683   1.884   5.197   5.920  2.8938  0.0230  0.0434
   28SAPC  H15C 3684   1.953   5.187   5.760  1.3873  1.1136  2.2868
   28SAPC   C11 3685   2.048   4.821   5.964 -0.4497 -0.3611 -0.1090
   28SAPC  H11A 3686   2.157   4.808   5.983 -0.5636  0.9893  1.6119
   28SAPC  H11B 3687   2.034   4.747   5.883 -2.3967  1.9191 -1.8780
   28SAPC     P 3688   1.988   4.864   6.225  0.1355 -0.1359  0.3013
   28SAPC   O13 3689   2.070   4.984   6.193  0.2796  0.3084  0.3988
   28SAPC   O14 3690   1.857   4.889   6.288  0.0631 -0.0400 -0.5319
   28SAPC   O12 3691   1.971   4.790   6.089  0.2154  0.0621 -0.0979
   28SAPC   O11 3692   2.067   4.767   6.317 -0.0148 -0.1196 -0.2247
   28SAPC    C1 3693   2.050   4.621   6.323  0.5639  0.1639 -0.1819
   28SAPC    HA 3694   1.963   4.579   6.268  0.9780  0.4478 -1.0476
   28SAPC    HB 3695   2.140   4.576   6.277  0.6309 -0.2243  0.3233
   28SAPC    C2 3696   2.048   4.577   6.473  0.1751 -0.3347 -0.6943
   28SAPC    HS 3697   2.042   4.467   6.485  1.0972 -0.3379 -0.2013
   28SAPC   O21 3698   1.930   4.636   6.530  0.1927 -0.3932 -0.1137
   28SAPC   C21 3699   1.812   4.579   6.515 -0.5973 -0.6550 -0.1409
   28SAPC   O22 3700   1.790   4.478   6.450 -0.7393 -0.2418  0.0403
   28SAPC   C22 3701   1.700   4.662   6.586  1.2051  0.0638 -0.1929
   28SAPC   H2R 3702   1.737   4.699   6.684 -0.4773 -0.1488  0.5306
   28SAPC   H2S 3703   1.682   4.747   6.516  0.8465  0.5927  0.5345
   28SAPC    C3 3704   2.168   4.630   6.550  0.1692  0.1881 -0.3237
   28SAPC    HX 3705   2.170   4.741   6.539 -4.1781  0.3464 -0.4349
   28SAPC    HY 3706   2.264   4.587   6.514  0.7900  0.6222  0.7941
   28SAPC   O31 3707   2.161   4.594   6.691  0.2111 -0.6016 -0.0278
   28SAPC   C31 3708   2.186   4.686   6.789 -0.7420 -0.1642  0.9316
   28SAPC   O32 3709   2.199   4.803   6.758 -0.0408  0.2321  0.6980
   28SAPC   C32 3710   2.191   4.615   6.921  0.0421  0.0660  0.2600
   28SAPC   H2X 3711   2.288   4.563   6.929 -0.6888 -1.6430 -1.3366
   28SAPC   H2Y 3712   2.104   4.546   6.930  2.6199 -3.0306  2.0929
   28SAPC   C23 3713   1.569   4.581   6.597  0.2264 -0.3135 -0.1227
   28SAPC   H3R 3714   1.549   4.527   6.502  0.8174  0.9448 -0.9714
   28SAPC   H3S 3715   1.484   4.651   6.612  0.5031  0.3105 -1.4521
   28SAPC   C24 3716   1.592   4.485   6.716 -0.8859  0.4837  0.3501
   28SAPC   H4R 3717   1.681   4.427   6.682 -0.7873  0.9528 -0.2092
   28SAPC   H4S 3718   1.615   4.544   6.807 -2.0088  0.5289  0.6093
   28SAPC   C25 3719   1.477   4.393   6.742  0.3803  0.1226 -0.1011
   28SAPC   H5R 3720   1.491   4.307   6.675  0.2654  1.8670 -2.4356
   28SAPC   C26 3721   1.369   4.406   6.829  0.3478 -0.3995  0.2413
   28SAPC   H6R 3722   1.277   4.347   6.817  0.8155 -0.7429 -1.7726
   28SAPC   C27 3723   1.355   4.524   6.916  0.0219 -0.5376 -0.1985
   28SAPC   H7R 3724   1.366   4.624   6.869  0.6750  0.2220  1.5129
   28SAPC   H7S 3725   1.436   4.525   6.992  0.2010 -0.9585 -0.3798
   28SAPC   C28 3726   1.223   4.520   6.987 -0.8908 -0.2748  0.5152
   28SAPC   H8R 3727   1.133   4.537   6.926  0.2135  0.6940 -0.8898
   28SAPC   C29 3728   1.200   4.490   7.119  0.7071 -0.6776  0.1005
   28SAPC   H9R 3729   1.095   4.492   7.152  0.7986 -0.1637  0.3709
   28SAPC  C210 3730   1.308   4.455   7.222  0.4952  0.2888 -0.3539
   28SAPC  H10R 3731   1.405   4.500   7.192  1.1236 -1.1778 -0.5413
   28SAPC  H10S 3732   1.318   4.345   7.220 -1.3705  0.1125 -1.6059
   28SAPC  C211 3733   1.263   4.502   7.353 -0.1139 -0.8658  0.0077
   28SAPC  H11R 3734   1.288   4.604   7.386  0.8220 -1.4805  1.2680
   28SAPC  C212 3735   1.199   4.421   7.446 -0.3798 -0.1182 -0.3810
   28SAPC  H12R 3736   1.173   4.458   7.546 -1.1351  2.3969 -1.4579
   28SAPC  C213 3737   1.167   4.276   7.435 -0.2549 -0.2866  0.3768
   28SAPC  H13R 3738   1.206   4.227   7.526  1.5604 -0.5482 -0.5285
   28SAPC  H13S 3739   1.220   4.217   7.357 -0.5172  0.5006 -0.4060
   28SAPC  C214 3740   1.017   4.264   7.413  0.8890  0.1120  0.5787
   28SAPC  H14R 3741   0.964   4.343   7.357  1.0381 -0.1845  0.0188
   28SAPC  C215 3742   0.939   4.158   7.452  0.4898 -0.1266 -0.4901
   28SAPC  H15R 3743   0.831   4.171   7.437  0.5041  1.6571  0.8322
   28SAPC  C216 3744   0.969   4.021   7.518 -0.6809  0.2609 -0.0343
   28SAPC  H16R 3745   1.062   4.003   7.575 -0.0059  0.7719 -0.9662
   28SAPC  H16S 3746   0.959   3.941   7.441  1.0134 -0.0066  0.0034
   28SAPC  C217 3747   0.851   3.981   7.603  0.2044  0.4756 -0.0882
   28SAPC  H17R 3748   0.869   3.877   7.637  1.8809  0.5630 -0.6358
   28SAPC  H17S 3749   0.756   3.975   7.547 -0.5614  0.8541  1.1343
   28SAPC  C218 3750   0.839   4.075   7.725  0.0768  0.8328  0.1822
   28SAPC  H18R 3751   0.734   4.083   7.762  1.1683 -1.3590  3.9418
   28SAPC  H18S 3752   0.867   4.181   7.704 -1.7212  1.0322 -1.3546
   28SAPC  C219 3753   0.923   4.035   7.843  0.4419 -0.4195  0.4373
   28SAPC  H19R 3754   1.011   3.981   7.802 -0.4690 -0.7007 -1.2087
   28SAPC  H19S 3755   0.861   3.957   7.892 -0.3385  1.1611  2.0096
   28SAPC  C220 3756   0.967   4.141   7.937 -0.4574  0.4455 -0.0090
   28SAPC  H20R 3757   1.002   4.102   8.035 -0.4093  0.4225 -0.0354
   28SAPC  H20S 3758   0.877   4.201   7.962  0.7215  1.9029  0.7610
   28SAPC  H20T 3759   1.039   4.209   7.886  0.8121 -1.9496 -1.4890
   28SAPC   C33 3760   2.185   4.705   7.042 -0.1364 -1.4058 -0.1671
   28SAPC   H3X 3761   2.098   4.772   7.027  0.9173 -0.0168 -0.1914
   28SAPC   H3Y 3762   2.273   4.773   7.049 -0.3451 -1.3562  2.7123
   28SAPC   C34 3763   2.175   4.622   7.175  0.5014  0.1473 -0.1652
   28SAPC   H4X 3764   2.264   4.555   7.172 -0.1765 -0.7316 -0.8491
   28SAPC   H4Y 3765   2.088   4.555   7.194  0.3774  1.1122  3.1214
   28SAPC   C35 3766   2.190   4.716   7.297  0.6004 -0.1569 -0.1230
   28SAPC   H5X 3767   2.088   4.756   7.314  0.9830 -0.4913  3.2379
   28SAPC   H5Y 3768   2.271   4.788   7.274  2.4240 -2.5265 -1.3423
   28SAPC   C36 3769   2.207   4.627   7.424 -0.0795 -0.5608  0.3295
   28SAPC   H6X 3770   2.296   4.563   7.413 -0.0207 -0.1813 -1.6855
   28SAPC   H6Y 3771   2.117   4.567   7.449 -0.3119  0.8574  3.1992
   28SAPC   C37 3772   2.229   4.703   7.551  0.0594  0.1616  0.5885
   28SAPC   H7X 3773   2.165   4.793   7.545 -1.2800 -0.8427 -0.4405
   28SAPC   H7Y 3774   2.330   4.749   7.556 -0.7321  1.7975  2.4944
   28SAPC   C38 3775   2.200   4.626   7.678 -0.2326  0.5766 -0.2354
   28SAPC   H8X 3776   2.096   4.587   7.674 -0.5699  1.6559 -4.4853
   28SAPC   H8Y 3777   2.201   4.690   7.769 -0.4021  0.5681 -0.2289
   28SAPC   C39 3778   2.287   4.506   7.695 -0.1667  0.0127  0.1154
   28SAPC   H9X 3779   2.388   4.539   7.730  0.3356  1.1851 -2.3473
   28SAPC   H9Y 3780   2.301   4.455   7.598 -0.1702 -0.2773  0.2656
   28SAPC  C310 3781   2.227   4.398   7.791  0.1556  0.2572 -0.9492
   28SAPC  H10X 3782   2.190   4.438   7.888  2.5418 -2.2565  1.0668
   28SAPC  H10Y 3783   2.304   4.323   7.819 -2.8668 -1.8970  2.0541
   28SAPC  C311 3784   2.128   4.301   7.730 -0.2047  0.3656 -0.1748
   28SAPC  H11X 3785   2.173   4.248   7.644  1.1068 -0.2213  0.8609
   28SAPC  H11Y 3786   2.034   4.352   7.699 -0.7705 -0.1893  0.6120
   28SAPC  C312 3787   2.071   4.188   7.823 -0.3317  0.4143 -0.1135
   28SAPC  H12X 3788   2.159   4.124   7.848 -0.5954 -0.3885 -1.1952
   28SAPC  H12Y 3789   1.995   4.124   7.773  0.0146 -0.9186  1.0490
   28SAPC  C313 3790   2.007   4.228   7.955  0.1919  0.3687 -0.3359
   28SAPC  H13X 3791   1.944   4.318   7.933 -3.2258 -1.7987  0.2142
   28SAPC  H13Y 3792   2.083   4.260   8.030 -1.8056  2.9019  0.7148
   28SAPC  C314 3793   1.911   4.129   8.012  0.0325 -1.1754 -0.6821
   28SAPC  H14X 3794   1.822   4.115   7.947 -1.4077 -0.6491  1.1452
   28SAPC  H14Y 3795   1.876   4.161   8.112  2.2254 -2.0566  0.4176
   28SAPC  C315 3796   1.978   3.989   8.034  0.3732 -0.0737 -0.8714
   28SAPC  H15X 3797   2.069   4.004   8.096 -0.0553 -0.6671 -0.0956
   28SAPC  H15Y 3798   2.014   3.952   7.936  1.3812  1.2473 -1.0106
   28SAPC  C316 3799   1.871   3.892   8.094 -0.4553 -0.0534 -0.5801
   28SAPC  H16X 3800   1.918   3.794   8.076 -0.0379 -0.2921  1.6561
   28SAPC  H16Y 3801   1.768   3.896   8.053 -0.5602 -0.8181 -0.3847
   28SAPC  C317 3802   1.857   3.918   8.245 -0.3851 -0.2258  0.2716
   28SAPC  H17X 3803   1.831   4.026   8.248  0.3712  0.0232 -1.6463
   28SAPC  H17Y 3804   1.953   3.904   8.299 -0.4567  0.5473  0.5967
   28SAPC  C318 3805   1.757   3.829   8.320 -0.3385  0.3966  0.5463
   28SAPC  H18X 3806   1.774   3.724   8.289  1.3051  1.0923 -1.0081
   28SAPC  H18Y 3807   1.658   3.873   8.295  0.3914  0.5939 -2.1194
   28SAPC  H18Z 3808   1.769   3.827   8.431 -2.0793 -1.3556  0.7269
   29SAPC     N 3809   4.308   1.504   6.188 -0.4895 -0.6627  0.3253
   29SAPC   C12 3810   4.255   1.483   6.338  0.4507  0.4074 -0.7886
   29SAPC  H12A 3811   4.337   1.501   6.406 -0.1225 -0.1904  0.0706
   29SAPC  H12B 3812   4.226   1.379   6.339 -1.0066  0.7944 -2.0473
   29SAPC   C13 3813   4.365   1.648   6.181 -0.2416 -0.1214 -0.2621
   29SAPC  H13A 3814   4.293   1.710   6.234  0.3324  0.6183 -0.3352
   29SAPC  H13B 3815   4.453   1.666   6.241  0.3984 -0.8979 -0.9771
   29SAPC  H13C 3816   4.377   1.670   6.076 -1.7368  1.9139 -0.0532
   29SAPC   C14 3817   4.410   1.400   6.155 -0.0491 -0.5530  1.0359
   29SAPC  H14A 3818   4.379   1.297   6.146  0.1200 -0.4368 -1.0912
   29SAPC  H14B 3819   4.452   1.423   6.058  1.0142 -0.5541  1.4783
   29SAPC  H14C 3820   4.494   1.398   6.224  1.0556 -3.1024 -0.3207
   29SAPC   C15 3821   4.198   1.502   6.088  0.1787 -0.4788 -0.3210
   29SAPC  H15A 3822   4.143   1.410   6.103 -2.6931  1.2618  0.1298
   29SAPC  H15B 3823   4.127   1.581   6.107  0.7963 -0.2770  1.1618
   29SAPC  H15C 3824   4.237   1.494   5.987 -1.4929  2.3728 -1.2577
   29SAPC   C11 3825   4.147   1.589   6.387  0.3542 -0.2863  0.5501
   29SAPC  H11A 3826   4.185   1.693   6.384 -0.0354 -0.1433  0.5516
   29SAPC  H11B 3827   4.127   1.578   6.496 -1.2409 -0.6141  0.2403
   29SAPC     P 3828   3.914   1.474   6.352 -0.2792  0.0851  0.3033
   29SAPC   O13 3829   3.793   1.492   6.270  0.1820 -0.3456 -0.5440
   29SAPC   O14 3830   3.969   1.336   6.350  0.5774 -0.2405 -0.3134
   29SAPC   O12 3831   4.027   1.577   6.315 -0.1584 -0.1284  0.5338
   29SAPC   O11 3832   3.889   1.508   6.504 -0.2625  0.4121  0.2797
   29SAPC    C1 3833   3.813   1.630   6.522  0.3800 -0.2480 -0.3775
   29SAPC    HA 3834   3.857   1.722   6.478  2.9951 -0.4643  1.6690
   29SAPC    HB 3835   3.709   1.626   6.483  0.5449  0.6747 -0.9257
   29SAPC    C2 3836   3.805   1.658   6.678  0.2657  0.2302  0.4384
   29SAPC    HS 3837   3.745   1.748   6.702 -0.9463  0.1590 -2.2534
   29SAPC   O21 3838   3.934   1.670   6.745  0.0376  0.0132  0.5175
   29SAPC   C21 3839   3.996   1.778   6.711  0.5050  0.4215  0.0545
   29SAPC   O22 3840   3.953   1.865   6.640  0.0049 -0.4310  0.2181
   29SAPC   C22 3841   4.127   1.778   6.787  0.3309 -0.2697  0.3992
   29SAPC   H2R 3842   4.120   1.790   6.897  2.5121  4.4838  0.1658
   29SAPC   H2S 3843   4.184   1.696   6.738  1.6080  1.0307 -0.3187
   29SAPC    C3 3844   3.719   1.545   6.746 -0.4593 -0.1144  0.1191
   29SAPC    HX 3845   3.762   1.446   6.719 -1.0742 -0.1296 -0.8134
   29SAPC    HY 3846   3.618   1.556   6.702 -1.1675 -2.3124  1.1751
   29SAPC   O31 3847   3.729   1.570   6.887 -0.3304  0.3535  0.5097
   29SAPC   C31 3848   3.808   1.491   6.961 -0.3051  0.1730  0.2317
   29SAPC   O32 3849   3.892   1.415   6.916 -0.2737  0.3288 -1.0050
   29SAPC   C32 3850   3.783   1.508   7.112 -0.4569  0.6696  1.2317
   29SAPC   H2X 3851   3.673   1.514   7.128 -0.5787 -1.2351  1.2997
   29SAPC   H2Y 3852   3.840   1.600   7.138  1.5335  0.4397 -2.0683
   29SAPC   C23 3853   4.214   1.901   6.747  1.4489  0.6490  0.5441
   29SAPC   H3R 3854   4.183   1.998   6.792 -1.5742  0.1563 -0.3389
   29SAPC   H3S 3855   4.217   1.915   6.637  0.4840  1.2887  0.5913
   29SAPC   C24 3856   4.359   1.874   6.801 -0.5872 -0.4331  0.2873
   29SAPC   H4R 3857   4.366   1.876   6.912  2.6995  2.0189  0.0862
   29SAPC   H4S 3858   4.423   1.957   6.766  1.6642 -1.6966  1.3199
   29SAPC   C25 3859   4.428   1.746   6.751  0.1409  0.3400  0.1186
   29SAPC   H5R 3860   4.477   1.755   6.653 -0.3468  2.7788  0.0504
   29SAPC   C26 3861   4.437   1.631   6.812 -0.5604  0.0019 -0.0552
   29SAPC   H6R 3862   4.482   1.543   6.763 -0.8187  0.1915 -0.6334
   29SAPC   C27 3863   4.377   1.599   6.944  0.6921  0.1800  0.2283
   29SAPC   H7R 3864   4.338   1.687   6.999 -0.4828 -0.9644  1.2546
   29SAPC   H7S 3865   4.458   1.550   7.001 -0.3802 -0.9338  0.8390
   29SAPC   C28 3866   4.262   1.500   6.941 -0.2395  0.1784  0.7389
   29SAPC   H8R 3867   4.192   1.503   6.856 -1.6835 -1.6367  1.8314
   29SAPC   C29 3868   4.235   1.412   7.034  0.8299 -0.5063  0.0903
   29SAPC   H9R 3869   4.147   1.354   7.000  0.7585  0.3887 -1.2917
   29SAPC  C210 3870   4.303   1.384   7.172 -0.2884 -0.4350  0.5207
   29SAPC  H10R 3871   4.226   1.368   7.250 -0.3375  1.4272  0.8862
   29SAPC  H10S 3872   4.364   1.469   7.209  0.1060 -1.4548  2.2514
   29SAPC  C211 3873   4.389   1.263   7.149 -0.2134  0.5531 -0.1973
   29SAPC  H11R 3874   4.416   1.249   7.043 -1.2319 -2.4351 -0.0948
   29SAPC  C212 3875   4.454   1.196   7.242  0.6129  0.0253 -0.3730
   29SAPC  H12R 3876   4.519   1.112   7.212  0.8681 -0.5295  1.6574
   29SAPC  C213 3877   4.438   1.216   7.387 -0.0633  0.1686 -0.1499
   29SAPC  H13R 3878   4.449   1.325   7.406 -1.2007  0.1727  0.4911
   29SAPC  H13S 3879   4.520   1.156   7.433 -0.5847 -1.5433 -1.3902
   29SAPC  C214 3880   4.300   1.166   7.432  0.2289 -0.3291 -0.0535
   29SAPC  H14R 3881   4.253   1.120   7.344  0.2746 -0.7147  0.1195
   29SAPC  C215 3882   4.255   1.145   7.555  0.7442 -0.4963  0.1939
   29SAPC  H15R 3883   4.157   1.099   7.574 -0.3147  1.3959 -0.5356
   29SAPC  C216 3884   4.334   1.174   7.683  1.1875 -0.5539 -0.2543
   29SAPC  H16R 3885   4.293   1.270   7.721  1.0899 -0.7529  0.1521
   29SAPC  H16S 3886   4.442   1.166   7.658  1.4423  0.6466  0.4023
   29SAPC  C217 3887   4.307   1.066   7.795 -0.3841  0.2880  0.1127
   29SAPC  H17R 3888   4.363   0.975   7.765 -0.1964  1.0589 -2.0070
   29SAPC  H17S 3889   4.198   1.045   7.802  0.2036 -2.7013  1.1741
   29SAPC  C218 3890   4.348   1.117   7.933 -0.1667  0.9574  0.1298
   29SAPC  H18R 3891   4.301   1.217   7.946 -0.5506  0.4163  3.1613
   29SAPC  H18S 3892   4.457   1.110   7.952 -0.4335 -3.2136  0.6365
   29SAPC  C219 3893   4.286   1.030   8.049  0.5230 -0.4469 -0.4697
   29SAPC  H19R 3894   4.177   1.024   8.028  0.1414 -3.9480  2.0560
   29SAPC  H19S 3895   4.301   1.083   8.145  0.6292 -0.5215 -0.4449
   29SAPC  C220 3896   4.325   0.877   8.066  0.3480  0.4485  0.0531
   29SAPC  H20R 3897   4.432   0.868   8.094  0.0435  0.1597  1.1531
   29SAPC  H20S 3898   4.318   0.829   7.966  1.3675  0.1180  0.1284
   29SAPC  H20T 3899   4.256   0.833   8.141  0.4360 -1.7365 -1.0999
   29SAPC   C33 3900   3.848   1.391   7.176  0.2304 -0.6679 -0.7476
   29SAPC   H3X 3901   3.959   1.397   7.169 -0.0314  3.1792 -2.2507
   29SAPC   H3Y 3902   3.808   1.291   7.149 -3.6292  0.4248  0.5621
   29SAPC   C34 3903   3.807   1.402   7.326  0.0070  0.6498 -0.2154
   29SAPC   H4X 3904   3.696   1.402   7.328  0.0027  1.2317 -0.1314
   29SAPC   H4Y 3905   3.820   1.504   7.369  2.7305 -0.3532  1.4306
   29SAPC   C35 3906   3.860   1.290   7.422  0.2069 -0.1289 -0.2440
   29SAPC   H5X 3907   3.970   1.292   7.435  0.2884 -2.0976 -0.4589
   29SAPC   H5Y 3908   3.826   1.194   7.377 -1.6364  1.4058 -2.2796
   29SAPC   C36 3909   3.802   1.299   7.562 -0.3077 -0.1433  0.0637
   29SAPC   H6X 3910   3.693   1.319   7.560 -0.6969 -2.1670 -1.5480
   29SAPC   H6Y 3911   3.839   1.389   7.615  1.5578 -0.2289 -1.0297
   29SAPC   C37 3912   3.830   1.178   7.653 -0.5155 -0.1832  0.6226
   29SAPC   H7X 3913   3.928   1.128   7.636 -1.4383 -1.8490  0.0100
   29SAPC   H7Y 3914   3.762   1.093   7.628  1.0048 -0.8708 -1.3199
   29SAPC   C38 3915   3.809   1.220   7.797  0.1398 -0.1978 -0.5772
   29SAPC   H8X 3916   3.703   1.243   7.823  0.4744 -1.0393  1.6066
   29SAPC   H8Y 3917   3.868   1.313   7.817  0.4088 -0.3250 -0.7802
   29SAPC   C39 3918   3.861   1.106   7.891 -0.7543 -0.0733  1.2202
   29SAPC   H9X 3919   3.971   1.116   7.880 -0.9444 -1.2228 -2.2008
   29SAPC   H9Y 3920   3.826   1.012   7.843  0.7864 -0.1939  0.3050
   29SAPC  C310 3921   3.811   1.119   8.034  0.0938  0.1880 -0.3017
   29SAPC  H10X 3922   3.706   1.090   8.058 -0.3252  1.9159  0.0240
   29SAPC  H10Y 3923   3.810   1.228   8.051  1.1345  0.5291 -2.3087
   29SAPC  C311 3924   3.898   1.049   8.136 -0.4442 -0.0672  0.2751
   29SAPC  H11X 3925   3.999   1.094   8.122 -1.2013  1.2122 -1.2812
   29SAPC  H11Y 3926   3.898   0.941   8.110 -2.8288  0.2750 -1.3070
   29SAPC  C312 3927   3.858   1.062   8.279 -0.2096 -0.0975 -0.4763
   29SAPC  H12X 3928   3.748   1.054   8.291 -0.2246  0.4011 -0.2578
   29SAPC  H12Y 3929   3.879   1.169   8.300 -0.8186 -0.0132 -0.2940
   29SAPC  C313 3930   3.934   0.961   8.369 -0.6685  0.5661 -0.0154
   29SAPC  H13X 3931   3.934   0.857   8.331  1.3875  0.3333  0.5493
   29SAPC  H13Y 3932   3.886   0.961   8.469  1.0703 -0.7035  0.8653
   29SAPC  C314 3933   4.082   1.006   8.395 -0.6945  0.4903 -0.2731
   29SAPC  H14X 3934   4.060   1.105   8.439 -1.2847  0.5426 -0.6785
   29SAPC  H14Y 3935   4.137   1.024   8.300 -3.0920  0.3172 -1.7265
   29SAPC  C315 3936   4.169   0.910   8.482  0.4592  0.2600  0.0342
   29SAPC  H15X 3937   4.191   0.825   8.414  0.0143 -0.7150  1.0985
   29SAPC  H15Y 3938   4.104   0.896   8.571 -0.6422 -1.3584 -1.0155
   29SAPC  C316 3939   4.310   0.963   8.512  0.5888 -0.4073 -0.0485
   29SAPC  H16X 3940   4.301   1.056   8.573 -1.3188 -0.3815 -0.3478
   29SAPC  H16Y 3941   4.348   0.980   8.409  0.8226  2.3078  0.4449
   29SAPC  C317 3942   4.406   0.870   8.584 -0.6953  0.2377 -0.4979
   29SAPC  H17X 3943   4.497   0.930   8.605 -0.9893  0.0004  1.4800
   29SAPC  H17Y 3944   4.428   0.785   8.516 -0.9524  1.2101 -1.8326
   29SAPC  C318 3945   4.369   0.819   8.725  0.7825 -0.3237  0.0761
   29SAPC  H18X 3946   4.313   0.725   8.706 -0.8901  0.5617  0.5038
   29SAPC  H18Y 3947   4.305   0.897   8.773  0.8000 -0.2567 -0.0105
   29SAPC  H18Z 3948   4.453   0.807   8.797 -0.2938 -0.4115  1.3502
   30SAPC     N 3949   5.173   1.105   6.046 -0.1295  0.6060 -0.4455
   30SAPC   C12 3950   5.059   1.206   6.044 -0.3321  0.5708 -0.0717
   30SAPC  H12A 3951   5.015   1.224   6.141 -1.4643 -0.8890 -0.2785
   30SAPC  H12B 3952   4.982   1.162   5.982  0.1430 -0.9623  0.3838
   30SAPC   C13 3953   5.246   1.105   5.917  0.2528  0.3207 -0.4257
   30SAPC  H13A 3954   5.322   1.181   5.910 -1.1729  1.7604 -0.6768
   30SAPC  H13B 3955   5.288   1.006   5.917 -0.0244  0.2018  0.3252
   30SAPC  H13C 3956   5.178   1.116   5.834  3.0337 -0.5570 -2.8917
   30SAPC   C14 3957   5.270   1.125   6.155  0.3276 -0.2028  0.3834
   30SAPC  H14A 3958   5.366   1.078   6.141  1.8956  2.5629  1.5763
   30SAPC  H14B 3959   5.294   1.228   6.178  0.7557 -0.4210  0.8993
   30SAPC  H14C 3960   5.248   1.072   6.246  0.5122 -0.6406  0.1748
   30SAPC   C15 3961   5.110   0.967   6.062  0.0935 -0.0070  0.7140
   30SAPC  H15A 3962   5.187   0.893   6.079 -1.1360 -1.4722 -0.0193
   30SAPC  H15B 3963   5.043   0.966   6.146 -0.5691 -1.5116  0.1644
   30SAPC  H15C 3964   5.057   0.936   5.974 -1.1405  1.7749  0.8112
   30SAPC   C11 3965   5.088   1.355   5.999 -0.1026 -0.7885  0.7651
   30SAPC  H11A 3966   4.994   1.406   5.969  0.4348 -0.1065  0.2128
   30SAPC  H11B 3967   5.149   1.357   5.906  2.8595  2.1180  2.6479
   30SAPC     P 3968   5.104   1.517   6.193 -0.0640 -0.5083  0.1228
   30SAPC   O13 3969   5.064   1.643   6.132  0.5056  0.8951  0.1829
   30SAPC   O14 3970   4.999   1.443   6.268  0.4420 -0.9534  0.0735
   30SAPC   O12 3971   5.173   1.427   6.087 -0.3384 -0.8136 -0.0676
   30SAPC   O11 3972   5.220   1.536   6.302  0.5220 -0.0339 -0.3705
   30SAPC    C1 3973   5.330   1.618   6.265 -0.5623 -0.1083  0.0054
   30SAPC    HA 3974   5.421   1.554   6.254  0.9885  1.5272  2.7789
   30SAPC    HB 3975   5.324   1.681   6.174 -0.5147 -0.5072 -0.2752
   30SAPC    C2 3976   5.369   1.726   6.377 -1.3520  0.5625  0.1428
   30SAPC    HS 3977   5.467   1.769   6.349 -1.1846 -0.2499 -0.5226
   30SAPC   O21 3978   5.379   1.681   6.511  0.2800 -0.6581  0.0067
   30SAPC   C21 3979   5.489   1.643   6.556 -0.3149  0.8429  0.1765
   30SAPC   O22 3980   5.592   1.627   6.495 -0.1199  0.3584 -0.0902
   30SAPC   C22 3981   5.460   1.596   6.704 -0.2573 -0.5625 -0.0970
   30SAPC   H2R 3982   5.403   1.681   6.748 -0.0550 -0.2204 -0.4932
   30SAPC   H2S 3983   5.394   1.508   6.686 -1.0012  0.2026 -1.2192
   30SAPC    C3 3984   5.263   1.841   6.382  0.7928 -0.2795 -0.2711
   30SAPC    HX 3985   5.168   1.787   6.400 -1.6433  4.2106  1.2727
   30SAPC    HY 3986   5.249   1.900   6.289 -1.5688 -1.8483 -0.9599
   30SAPC   O31 3987   5.278   1.933   6.494 -0.3304 -0.2989  0.3120
   30SAPC   C31 3988   5.374   2.020   6.479  0.7465  0.2010 -1.5080
   30SAPC   O32 3989   5.430   2.036   6.374  0.0365 -0.1612 -0.4116
   30SAPC   C32 3990   5.394   2.100   6.617 -0.0057  0.0545 -0.1616
   30SAPC   H2X 3991   5.306   2.166   6.627  0.0096 -0.1827  1.8045
   30SAPC   H2Y 3992   5.484   2.163   6.628 -1.1150  1.2212  2.7406
   30SAPC   C23 3993   5.586   1.568   6.792  0.0549 -0.1381 -0.3602
   30SAPC   H3R 3994   5.678   1.610   6.748  0.7358  0.7882  1.8652
   30SAPC   H3S 3995   5.600   1.458   6.784  1.7010  0.0322  0.0313
   30SAPC   C24 3996   5.562   1.589   6.949 -0.5653  0.1629  0.7456
   30SAPC   H4R 3997   5.474   1.529   6.979 -1.6031  2.5224  2.5915
   30SAPC   H4S 3998   5.526   1.694   6.957 -0.0769  0.3578  0.4281
   30SAPC   C25 3999   5.686   1.548   7.027  0.1092 -0.4433 -0.3523
   30SAPC   H5R 4000   5.783   1.557   6.977  0.1330 -1.0795 -0.4167
   30SAPC   C26 4001   5.692   1.485   7.148  0.6350  0.2933  0.1042
   30SAPC   H6R 4002   5.785   1.459   7.200 -0.1880 -0.5074  1.2182
   30SAPC   C27 4003   5.576   1.452   7.235 -0.3462  0.3786  0.0400
   30SAPC   H7R 4004   5.575   1.343   7.258  0.3289  0.3597 -0.0054
   30SAPC   H7S 4005   5.472   1.464   7.199 -0.5873 -1.3301  0.1364
   30SAPC   C28 4006   5.582   1.516   7.367  0.8371  0.3449  0.1103
   30SAPC   H8R 4007   5.571   1.625   7.370  0.3314  0.3997 -2.6279
   30SAPC   C29 4008   5.640   1.457   7.479 -0.2338  0.3007  0.3307
   30SAPC   H9R 4009   5.626   1.512   7.573 -0.4474 -1.6320  1.4569
   30SAPC  C210 4010   5.689   1.309   7.487  0.0297 -0.3704  0.4267
   30SAPC  H10R 4011   5.755   1.283   7.402 -2.0797 -1.0083 -1.0538
   30SAPC  H10S 4012   5.599   1.245   7.472 -0.8018  0.9911 -0.4916
   30SAPC  C211 4013   5.762   1.271   7.611 -0.2262 -0.5148 -0.3623
   30SAPC  H11R 4014   5.853   1.325   7.643  0.7520 -2.6641  0.5795
   30SAPC  C212 4015   5.706   1.188   7.703 -0.0375 -0.2691 -0.5364
   30SAPC  H12R 4016   5.767   1.180   7.795 -0.2970 -0.1232 -0.3520
   30SAPC  C213 4017   5.568   1.121   7.698 -0.3681 -0.2410 -0.0101
   30SAPC  H13R 4018   5.578   1.010   7.694  1.9750 -0.1708  2.3838
   30SAPC  H13S 4019   5.505   1.161   7.616  0.0470 -2.8012 -1.6099
   30SAPC  C214 4020   5.504   1.164   7.833 -0.7336  0.0204 -0.7147
   30SAPC  H14R 4021   5.445   1.257   7.831 -1.7337 -0.5284  1.6169
   30SAPC  C215 4022   5.519   1.096   7.949  0.1176 -0.5851  0.6362
   30SAPC  H15R 4023   5.466   1.121   8.042  1.6065 -1.1890  1.6655
   30SAPC  C216 4024   5.589   0.961   7.964 -0.1042  0.7587 -1.0270
   30SAPC  H16R 4025   5.649   0.927   7.876  0.5852  0.2573 -0.3688
   30SAPC  H16S 4026   5.503   0.891   7.963 -1.2691  2.1522 -2.8069
   30SAPC  C217 4027   5.683   0.920   8.080 -0.2238 -0.6825 -0.7369
   30SAPC  H17R 4028   5.700   0.810   8.078  0.4431 -0.6051  0.2602
   30SAPC  H17S 4029   5.632   0.939   8.176  0.0555 -1.5528 -0.4109
   30SAPC  C218 4030   5.811   1.006   8.083 -0.1032  0.5820  0.3352
   30SAPC  H18R 4031   5.782   1.113   8.079  0.3412  0.6139 -2.7246
   30SAPC  H18S 4032   5.859   0.982   7.986 -0.9148  0.9416 -0.1631
   30SAPC  C219 4033   5.906   0.990   8.204 -0.2071 -0.1505 -0.0258
   30SAPC  H19R 4034   5.975   1.077   8.203  1.0286 -1.1149 -0.5584
   30SAPC  H19S 4035   5.961   0.898   8.176 -2.0650 -0.7983 -1.6762
   30SAPC  C220 4036   5.850   0.994   8.350  0.4610  0.3064  0.2866
   30SAPC  H20R 4037   5.794   1.087   8.373  0.1643  0.3497 -0.6024
   30SAPC  H20S 4038   5.935   0.993   8.422 -0.8967  1.9694  1.9805
   30SAPC  H20T 4039   5.780   0.909   8.368 -0.2915  1.1082  1.2184
   30SAPC   C33 4040   5.412   2.008   6.736  0.0360  0.9424  0.2157
   30SAPC   H3X 4041   5.516   1.972   6.729  0.1712  1.1160  1.1535
   30SAPC   H3Y 4042   5.338   1.925   6.733 -2.2943  2.9588 -0.0427
   30SAPC   C34 4043   5.407   2.070   6.870 -0.2461 -0.0255  0.1635
   30SAPC   H4X 4044   5.307   2.118   6.876  1.0690  2.9024 -0.5833
   30SAPC   H4Y 4045   5.493   2.138   6.882 -1.4075  1.4149  0.4001
   30SAPC   C35 4046   5.410   1.962   6.981 -0.4127  0.3374 -0.0174
   30SAPC   H5X 4047   5.505   1.905   6.971 -0.2756  0.7335 -0.9620
   30SAPC   H5Y 4048   5.332   1.884   6.965 -2.1116  2.1809 -0.9137
   30SAPC   C36 4049   5.402   2.002   7.129  0.2798  0.0768 -0.4475
   30SAPC   H6X 4050   5.310   2.063   7.133  0.6232  0.6808 -1.5544
   30SAPC   H6Y 4051   5.487   2.072   7.141  0.3476  0.0381 -0.6802
   30SAPC   C37 4052   5.387   1.895   7.227 -0.5091 -0.0204  0.5834
   30SAPC   H7X 4053   5.468   1.823   7.203 -1.8956 -1.7514  1.0050
   30SAPC   H7Y 4054   5.292   1.842   7.201 -0.7961  0.2643  1.0547
   30SAPC   C38 4055   5.368   1.946   7.372 -0.1187  0.1839 -0.2306
   30SAPC   H8X 4056   5.277   2.010   7.371  0.9771  1.7630 -1.7263
   30SAPC   H8Y 4057   5.455   2.004   7.406 -0.4119 -0.6331  1.9872
   30SAPC   C39 4058   5.345   1.833   7.470 -1.0095 -0.3643  0.6134
   30SAPC   H9X 4059   5.441   1.783   7.493 -1.0889 -0.4945  0.6575
   30SAPC   H9Y 4060   5.274   1.765   7.419 -0.5788  0.1253 -0.6703
   30SAPC  C310 4061   5.279   1.872   7.603  0.2035 -0.4504  0.4969
   30SAPC  H10X 4062   5.178   1.911   7.579 -0.3160 -2.1399 -0.1601
   30SAPC  H10Y 4063   5.340   1.948   7.657  2.6679 -1.5619 -0.6753
   30SAPC  C311 4064   5.276   1.754   7.700  0.7938 -0.1706 -0.5511
   30SAPC  H11X 4065   5.236   1.665   7.647  0.1304 -0.6764  0.7861
   30SAPC  H11Y 4066   5.199   1.779   7.775  0.2774  1.2581 -1.5361
   30SAPC  C312 4067   5.411   1.731   7.780 -0.0876 -0.5376 -0.1592
   30SAPC  H12X 4068   5.435   1.825   7.833 -0.3951 -1.0090  0.8308
   30SAPC  H12Y 4069   5.495   1.704   7.712  1.3774  1.4598  0.8050
   30SAPC  C313 4070   5.390   1.626   7.890 -0.7047 -0.2782 -0.1604
   30SAPC  H13X 4071   5.387   1.533   7.829  1.3130  0.2204 -1.0566
   30SAPC  H13Y 4072   5.299   1.645   7.952 -1.4956  0.0990 -1.4178
   30SAPC  C314 4073   5.508   1.614   7.980 -0.8227 -0.5432  0.3457
   30SAPC  H14X 4074   5.500   1.682   8.068 -0.4503 -1.7323  1.3053
   30SAPC  H14Y 4075   5.601   1.629   7.921 -0.4531 -0.9697  0.8052
   30SAPC  C315 4076   5.527   1.478   8.054 -0.7315 -0.2949 -0.3693
   30SAPC  H15X 4077   5.566   1.399   7.986  0.0728  0.0290 -0.2917
   30SAPC  H15Y 4078   5.428   1.440   8.086  0.3321 -0.9750  2.3322
   30SAPC  C316 4079   5.612   1.499   8.174  0.2846  0.5994  0.1241
   30SAPC  H16X 4080   5.551   1.544   8.256  1.6073  0.3444  1.2626
   30SAPC  H16Y 4081   5.710   1.551   8.166  2.0465 -2.3522  1.5264
   30SAPC  C317 4082   5.642   1.356   8.228 -0.5803  0.2877  0.2653
   30SAPC  H17X 4083   5.718   1.305   8.164  0.1350  0.2919  1.1069
   30SAPC  H17Y 4084   5.558   1.284   8.218 -0.0222 -0.4016  0.4468
   30SAPC  C318 4085   5.683   1.343   8.377  0.3264 -0.4835 -0.1675
   30SAPC  H18X 4086   5.782   1.389   8.399 -0.6057  1.0732  0.8769
   30SAPC  H18Y 4087   5.680   1.236   8.407  1.3270 -1.3157 -2.8031
   30SAPC  H18Z 4088   5.601   1.397   8.428 -1.0095 -0.8951 -1.8428
   31SAPC     N 4089   6.565   2.548   6.101  0.1506 -0.0419 -0.6808
   31SAPC   C12 4090   6.676   2.437   6.084  0.7334 -0.8672  0.5868
   31SAPC  H12A 4091   6.749   2.460   6.160  1.0999 -1.0121  0.2769
   31SAPC  H12B 4092   6.731   2.448   5.992 -0.7611  0.5278 -0.1743
   31SAPC   C13 4093   6.447   2.510   6.021  0.0403  0.0181  0.0644
   31SAPC  H13A 4094   6.368   2.583   6.037 -0.1044  0.5957 -2.9738
   31SAPC  H13B 4095   6.472   2.495   5.917 -1.6863 -3.2428  0.0555
   31SAPC  H13C 4096   6.404   2.422   6.067  1.9719 -1.3319 -0.6978
   31SAPC   C14 4097   6.527   2.561   6.241  0.2911  0.1900 -0.2703
   31SAPC  H14A 4098   6.606   2.603   6.302 -0.3118 -0.6955  1.1438
   31SAPC  H14B 4099   6.439   2.623   6.250  0.2720  0.5211 -2.4360
   31SAPC  H14C 4100   6.506   2.465   6.284 -0.5118 -0.2697 -1.6811
   31SAPC   C15 4101   6.618   2.678   6.052  0.0918 -1.2285 -0.8075
   31SAPC  H15A 4102   6.691   2.726   6.115 -1.8220 -0.1418  0.6322
   31SAPC  H15B 4103   6.654   2.669   5.950 -1.3052 -0.3711 -1.3858
   31SAPC  H15C 4104   6.528   2.735   6.035 -0.3298 -1.8351 -0.6110
   31SAPC   C11 4105   6.629   2.289   6.088  0.3527  0.4546  0.3424
   31SAPC  H11A 4106   6.714   2.222   6.063  1.1903  1.4242  0.5736
   31SAPC  H11B 4107   6.554   2.263   6.010  0.7567 -0.0626  0.1239
   31SAPC     P 4108   6.449   2.195   6.252  0.2660 -0.5660  0.0140
   31SAPC   O13 4109   6.343   2.289   6.205  0.0472  0.0379  0.2725
   31SAPC   O14 4110   6.444   2.054   6.208  0.8560  0.3045  0.0758
   31SAPC   O12 4111   6.595   2.252   6.219 -0.1519 -0.1974  0.1301
   31SAPC   O11 4112   6.452   2.206   6.410  0.6423 -0.4580  0.5758
   31SAPC    C1 4113   6.565   2.138   6.472 -0.5860  0.0430 -0.6135
   31SAPC    HA 4114   6.602   2.048   6.420  0.4999  0.6540 -0.9102
   31SAPC    HB 4115   6.645   2.215   6.474 -1.3142  0.8488 -1.8933
   31SAPC    C2 4116   6.530   2.117   6.623 -0.0669  0.3608  1.0464
   31SAPC    HS 4117   6.629   2.094   6.668 -0.4539 -0.9041  1.2925
   31SAPC   O21 4118   6.437   2.011   6.640 -0.2948 -0.1803  0.1212
   31SAPC   C21 4119   6.479   1.894   6.613 -0.8436 -0.1747  0.1111
   31SAPC   O22 4120   6.593   1.864   6.584  0.0001  0.2559  0.0744
   31SAPC   C22 4121   6.361   1.793   6.626  0.4128 -0.1051  0.3953
   31SAPC   H2R 4122   6.266   1.847   6.605 -0.0215 -0.5455  1.2124
   31SAPC   H2S 4123   6.376   1.711   6.553 -2.5384 -0.8718  0.5881
   31SAPC    C3 4124   6.472   2.245   6.690  0.6563  0.0229  0.4716
   31SAPC    HX 4125   6.379   2.288   6.648 -1.3488 -1.6375  3.0838
   31SAPC    HY 4126   6.552   2.322   6.677 -1.3951  2.3905  1.4631
   31SAPC   O31 4127   6.448   2.216   6.831 -0.2661 -0.3450  0.5912
   31SAPC   C31 4128   6.556   2.204   6.912 -0.2569  0.1432  0.2271
   31SAPC   O32 4129   6.670   2.223   6.876 -0.1851  0.2339 -0.5221
   31SAPC   C32 4130   6.500   2.153   7.041  0.3360 -0.2789 -0.2509
   31SAPC   H2X 4131   6.480   2.044   7.032 -2.0808 -0.0341  1.4949
   31SAPC   H2Y 4132   6.396   2.191   7.054  0.8943  1.3971 -0.6333
   31SAPC   C23 4133   6.346   1.731   6.765  0.2968  0.4845  1.1880
   31SAPC   H3R 4134   6.240   1.701   6.764  0.0875  1.2078  0.8895
   31SAPC   H3S 4135   6.351   1.808   6.845  0.6347  2.1978 -0.4141
   31SAPC   C24 4136   6.440   1.622   6.795 -0.0604 -0.5761  0.0524
   31SAPC   H4R 4137   6.544   1.662   6.796 -0.3809  0.3038 -1.1046
   31SAPC   H4S 4138   6.445   1.545   6.715  0.8060  0.7106 -1.1594
   31SAPC   C25 4139   6.426   1.555   6.931  0.4772 -0.3213 -0.2440
   31SAPC   H5R 4140   6.360   1.467   6.928  2.3274 -1.7647  0.7886
   31SAPC   C26 4141   6.480   1.595   7.049  0.4333  1.0452  0.3403
   31SAPC   H6R 4142   6.483   1.519   7.129 -2.3583 -1.0580 -1.4444
   31SAPC   C27 4143   6.563   1.720   7.073  0.0554  0.1442 -0.5810
   31SAPC   H7R 4144   6.491   1.791   7.118 -1.9749 -1.4636 -1.1949
   31SAPC   H7S 4145   6.605   1.764   6.981 -0.6510  1.8634 -0.0887
   31SAPC   C28 4146   6.678   1.695   7.168 -0.5740  0.3943 -0.0514
   31SAPC   H8R 4147   6.770   1.656   7.122  0.0435  1.0835  0.5832
   31SAPC   C29 4148   6.681   1.692   7.300  0.0195 -0.3267  0.8566
   31SAPC   H9R 4149   6.780   1.671   7.343 -0.0011  0.2102  1.1708
   31SAPC  C210 4150   6.562   1.707   7.395 -0.2502  0.0303 -0.0359
   31SAPC  H10R 4151   6.470   1.705   7.333 -0.4192  0.9700  0.1777
   31SAPC  H10S 4152   6.572   1.808   7.440 -0.2725  0.2898 -0.6104
   31SAPC  C211 4153   6.566   1.594   7.486 -0.8309 -0.6893 -0.4770
   31SAPC  H11R 4154   6.506   1.508   7.451  1.1323 -2.9297  1.4304
   31SAPC  C212 4155   6.621   1.586   7.605 -1.0796 -0.6218  0.2269
   31SAPC  H12R 4156   6.613   1.495   7.666 -1.8074  0.3783  1.6827
   31SAPC  C213 4157   6.694   1.703   7.670  0.7248 -0.0018  0.1252
   31SAPC  H13R 4158   6.639   1.729   7.763  1.8179 -2.1573  1.4128
   31SAPC  H13S 4159   6.693   1.789   7.599 -1.2889 -2.3783 -2.8858
   31SAPC  C214 4160   6.840   1.690   7.709 -0.3935  0.1257  0.3005
   31SAPC  H14R 4161   6.908   1.749   7.646  0.8599  0.0255  1.5386
   31SAPC  C215 4162   6.896   1.630   7.817  0.1170  0.0725  0.1261
   31SAPC  H15R 4163   7.004   1.643   7.828  0.1026  0.8773 -0.6239
   31SAPC  C216 4164   6.820   1.563   7.929 -0.1150  0.1407 -0.1122
   31SAPC  H16R 4165   6.861   1.462   7.952  0.5702 -0.1171 -2.3222
   31SAPC  H16S 4166   6.714   1.545   7.902  0.2939 -2.5798 -0.0222
   31SAPC  C217 4167   6.818   1.646   8.058  0.1146 -0.5321  0.2531
   31SAPC  H17R 4168   6.775   1.746   8.035  1.9905  0.3581  0.5116
   31SAPC  H17S 4169   6.922   1.674   8.088 -0.9513  3.9910  0.1931
   31SAPC  C218 4170   6.754   1.586   8.181  0.2767 -0.5850  1.0333
   31SAPC  H18R 4171   6.715   1.488   8.146  2.4363 -1.0425 -0.2000
   31SAPC  H18S 4172   6.661   1.639   8.211 -0.0889 -1.1231  0.8607
   31SAPC  C219 4173   6.849   1.550   8.297  0.2576  0.2798 -0.4349
   31SAPC  H19R 4174   6.795   1.510   8.385 -0.1742 -0.0844 -0.8681
   31SAPC  H19S 4175   6.890   1.645   8.338 -0.8739 -0.2364  1.9125
   31SAPC  C220 4176   6.954   1.449   8.248 -0.5479 -0.3152 -0.1905
   31SAPC  H20R 4177   6.896   1.357   8.228 -0.7785 -0.3292  0.5199
   31SAPC  H20S 4178   7.011   1.423   8.341 -1.8978 -0.7378  0.5306
   31SAPC  H20T 4179   7.016   1.487   8.164  0.9211 -1.8444  0.1746
   31SAPC   C33 4180   6.589   2.163   7.167  0.3061 -0.1797 -0.0045
   31SAPC   H3X 4181   6.663   2.246   7.158 -0.0708  0.0905 -0.6090
   31SAPC   H3Y 4182   6.662   2.080   7.161  0.4620  0.0581 -1.6124
   31SAPC   C34 4183   6.512   2.170   7.300  0.2947  0.6118 -0.3611
   31SAPC   H4X 4184   6.449   2.079   7.288  0.2404  0.3290  1.9170
   31SAPC   H4Y 4185   6.464   2.270   7.304 -1.0986 -0.0382 -0.7320
   31SAPC   C35 4186   6.602   2.145   7.425  0.8508 -0.0110 -0.5998
   31SAPC   H5X 4187   6.689   2.213   7.414 -0.0446  0.9120 -2.2409
   31SAPC   H5Y 4188   6.629   2.038   7.424 -0.4846 -0.3654 -2.7975
   31SAPC   C36 4189   6.527   2.164   7.558  0.4475 -0.2124 -0.1220
   31SAPC   H6X 4190   6.445   2.093   7.581 -1.4406  0.8542 -3.2111
   31SAPC   H6Y 4191   6.492   2.270   7.565 -1.0780 -0.8163  1.9943
   31SAPC   C37 4192   6.630   2.154   7.669  0.8608 -0.2983  0.6626
   31SAPC   H7X 4193   6.708   2.232   7.681  1.8819 -1.4450  1.6051
   31SAPC   H7Y 4194   6.687   2.060   7.656  0.6182 -0.6573  2.1616
   31SAPC   C38 4195   6.569   2.139   7.814  0.1701 -0.3197  0.5390
   31SAPC   H8X 4196   6.497   2.223   7.825 -0.2640 -0.6778  0.4387
   31SAPC   H8Y 4197   6.655   2.160   7.882  0.8160 -1.5912  0.1238
   31SAPC   C39 4198   6.491   2.006   7.844 -0.0790  0.5396  0.2830
   31SAPC   H9X 4199   6.557   1.920   7.821 -1.3484  0.4077 -3.0797
   31SAPC   H9Y 4200   6.397   2.004   7.786 -0.3062 -2.5426  0.7079
   31SAPC  C310 4201   6.458   1.996   7.991  0.4760 -0.5605  0.1212
   31SAPC  H10X 4202   6.429   2.100   8.016  2.2888  0.2219 -0.8807
   31SAPC  H10Y 4203   6.553   1.956   8.033  0.2476 -0.3782  0.7991
   31SAPC  C311 4204   6.359   1.885   8.030  0.2110  0.4732 -0.1889
   31SAPC  H11X 4205   6.409   1.787   8.015  2.0836  1.5513 -1.2319
   31SAPC  H11Y 4206   6.273   1.909   7.963 -1.5970 -0.4517  1.7423
   31SAPC  C312 4207   6.330   1.886   8.183 -0.2052  0.5357  0.8068
   31SAPC  H12X 4208   6.415   1.922   8.245  2.4033  1.2088 -2.9186
   31SAPC  H12Y 4209   6.321   1.783   8.221  0.3516  0.1637 -0.0389
   31SAPC  C313 4210   6.203   1.963   8.206 -0.0145 -0.0534 -0.5547
   31SAPC  H13X 4211   6.116   1.922   8.149 -1.0469  2.2790 -0.7175
   31SAPC  H13Y 4212   6.222   2.066   8.170 -2.1207  1.8746  3.5335
   31SAPC  C314 4213   6.157   1.970   8.348 -0.2666 -0.3343 -0.3802
   31SAPC  H14X 4214   6.240   2.004   8.413  0.4133 -2.7130  0.0155
   31SAPC  H14Y 4215   6.116   1.871   8.377 -0.7765 -0.5350 -1.7493
   31SAPC  C315 4216   6.043   2.076   8.358  0.2279 -0.5339  0.3910
   31SAPC  H15X 4217   5.947   2.039   8.315  0.7506 -1.4696  0.0123
   31SAPC  H15Y 4218   6.080   2.166   8.304 -0.1884 -1.1889 -1.0157
   31SAPC  C316 4219   6.016   2.106   8.507  0.2511  0.1823 -0.5718
   31SAPC  H16X 4220   6.109   2.139   8.560 -0.7002 -0.4772  1.5679
   31SAPC  H16Y 4221   5.994   2.010   8.558  0.4080 -0.3545 -1.5052
   31SAPC  C317 4222   5.902   2.200   8.542 -0.4566 -0.7496 -0.7361
   31SAPC  H17X 4223   5.812   2.160   8.490 -0.6826  2.0731 -2.5980
   31SAPC  H17Y 4224   5.929   2.299   8.500  0.6348 -0.2698  1.0439
   31SAPC  C318 4225   5.876   2.207   8.693  0.0226 -0.2679  0.7562
   31SAPC  H18X 4226   5.801   2.137   8.737 -0.4403 -0.8278 -0.9046
   31SAPC  H18Y 4227   5.848   2.310   8.725  2.7258  0.4308  1.0002
   31SAPC  H18Z 4228   5.970   2.186   8.747 -0.3818 -1.8285  0.8565
   32SAPC     N 4229   0.540   2.708   5.920 -0.5032  0.2744 -0.6316
   32SAPC   C12 4230   0.617   2.660   6.038  0.4650 -0.0522 -0.4136
   32SAPC  H12A 4231   0.707   2.608   6.009 -0.0039 -1.4990  0.6725
   32SAPC  H12B 4232   0.559   2.586   6.091  0.3883  0.3450  0.0655
   32SAPC   C13 4233   0.497   2.596   5.836  0.0268  0.5535 -0.2983
   32SAPC  H13A 4234   0.419   2.537   5.882  1.4841  1.3385  3.3718
   32SAPC  H13B 4235   0.458   2.617   5.738 -0.9620 -0.1337 -0.0510
   32SAPC  H13C 4236   0.583   2.535   5.813 -0.3971  0.1340 -0.7755
   32SAPC   C14 4237   0.418   2.771   5.970  0.2776  0.3031  0.4539
   32SAPC  H14A 4238   0.448   2.838   6.050  0.1848  2.0362 -0.9407
   32SAPC  H14B 4239   0.369   2.825   5.890  1.0982  1.2941  0.6059
   32SAPC  H14C 4240   0.355   2.699   6.021 -1.0602  0.8928 -0.3448
   32SAPC   C15 4241   0.615   2.806   5.842 -0.1010 -0.3014 -0.6195
   32SAPC  H15A 4242   0.648   2.892   5.899 -0.6764  0.1789 -1.0008
   32SAPC  H15B 4243   0.704   2.758   5.804 -0.8466 -0.1068 -2.7230
   32SAPC  H15C 4244   0.554   2.843   5.760 -0.0992  0.4378 -0.2962
   32SAPC   C11 4245   0.670   2.760   6.147 -0.4554 -0.5525 -0.0106
   32SAPC  H11A 4246   0.733   2.710   6.224 -0.1760  0.9402  0.7411
   32SAPC  H11B 4247   0.584   2.805   6.201  0.3706  3.7504 -2.0783
   32SAPC     P 4248   0.900   2.874   6.099  0.1721  0.2909  0.0733
   32SAPC   O13 4249   0.949   2.740   6.056  0.2056 -0.5888  0.4218
   32SAPC   O14 4250   0.963   2.991   6.032 -0.4150  0.6626  0.0592
   32SAPC   O12 4251   0.740   2.873   6.086  0.1647 -0.2704 -0.2214
   32SAPC   O11 4252   0.926   2.876   6.252 -0.0357  0.0016  0.1268
   32SAPC    C1 4253   0.900   2.996   6.322  0.6445 -0.7552 -0.6483
   32SAPC    HA 4254   0.990   3.061   6.318  0.6762 -0.6656  1.0616
   32SAPC    HB 4255   0.822   3.053   6.268 -0.5584 -0.9392  0.8569
   32SAPC    C2 4256   0.847   2.984   6.467  0.3911 -0.1190  0.4189
   32SAPC    HS 4257   0.803   3.080   6.503  1.4539  2.3195 -4.3602
   32SAPC   O21 4258   0.963   2.942   6.549 -0.0789  0.2720  0.0344
   32SAPC   C21 4259   0.973   3.014   6.659 -0.2938 -0.0469 -0.3738
   32SAPC   O22 4260   0.899   3.111   6.697 -0.5905 -0.6402  0.5491
   32SAPC   C22 4261   1.093   2.966   6.745 -0.1486  0.4217 -0.0545
   32SAPC   H2R 4262   1.121   2.862   6.722  1.8732  0.4236  2.2584
   32SAPC   H2S 4263   1.183   3.028   6.724 -0.5467  2.1308  3.0544
   32SAPC    C3 4264   0.733   2.882   6.476  0.0035  0.6521 -0.4041
   32SAPC    HX 4265   0.775   2.781   6.457  1.2523  1.1656 -0.4613
   32SAPC    HY 4266   0.653   2.898   6.401 -0.5908 -0.8092 -0.1023
   32SAPC   O31 4267   0.677   2.886   6.612  0.4986  0.1300  0.1975
   32SAPC   C31 4268   0.552   2.924   6.615  0.7889 -0.0300  0.2116
   32SAPC   O32 4269   0.485   2.953   6.515 -0.0508 -0.2821 -0.6113
   32SAPC   C32 4270   0.502   2.948   6.761  0.0693 -0.4736 -0.4104
   32SAPC   H2X 4271   0.408   2.888   6.759 -1.2790  1.6476 -1.8721
   32SAPC   H2Y 4272   0.477   3.056   6.760 -0.4698 -0.5782  0.5028
   32SAPC   C23 4273   1.055   2.969   6.894 -0.3147 -0.0976 -0.0211
   32SAPC   H3R 4274   0.986   2.883   6.905  0.1925 -0.4685  0.2673
   32SAPC   H3S 4275   1.002   3.065   6.913 -1.6853 -0.6692 -0.8653
   32SAPC   C24 4276   1.177   2.966   6.983  0.3586  0.5169 -0.5319
   32SAPC   H4R 4277   1.253   3.033   6.938 -0.5426  3.5375  2.2445
   32SAPC   H4S 4278   1.223   2.866   6.973  1.5194  1.0069 -0.1671
   32SAPC   C25 4279   1.146   2.989   7.121  0.1006  0.0655  0.3094
   32SAPC   H5R 4280   1.045   2.950   7.140  0.2083 -1.7433 -2.4678
   32SAPC   C26 4281   1.225   3.030   7.224 -0.7585 -0.3272 -0.2822
   32SAPC   H6R 4282   1.183   3.028   7.326 -0.1873  1.6184  0.0171
   32SAPC   C27 4283   1.368   3.066   7.211  0.1172  0.9026 -0.6533
   32SAPC   H7R 4284   1.410   3.021   7.119  1.4644  0.6112  0.0878
   32SAPC   H7S 4285   1.424   3.010   7.289 -2.9075 -0.9411  0.3036
   32SAPC   C28 4286   1.393   3.212   7.217 -0.1430 -0.0316 -0.0639
   32SAPC   H8R 4287   1.358   3.282   7.140  1.1936 -2.1468 -2.7253
   32SAPC   C29 4288   1.461   3.271   7.321  0.3569 -0.9299  0.3507
   32SAPC   H9R 4289   1.482   3.378   7.325 -3.3799 -0.0916 -0.4865
   32SAPC  C210 4290   1.520   3.205   7.438 -0.5105 -0.4175 -0.6194
   32SAPC  H10R 4291   1.452   3.124   7.471 -0.2634  0.1761  1.4662
   32SAPC  H10S 4292   1.515   3.270   7.528 -0.1871 -0.0477 -0.8663
   32SAPC  C211 4293   1.662   3.149   7.424 -0.2863  0.6751 -0.0403
   32SAPC  H11R 4294   1.676   3.040   7.428  2.5210  1.0014 -0.3132
   32SAPC  C212 4295   1.784   3.214   7.405 -0.3609 -0.9377 -0.3220
   32SAPC  H12R 4296   1.875   3.155   7.419  0.3811 -0.1399 -1.6748
   32SAPC  C213 4297   1.812   3.367   7.390 -0.2223 -0.6255 -0.1835
   32SAPC  H13R 4298   1.839   3.391   7.495 -0.6637 -0.9142 -0.0056
   32SAPC  H13S 4299   1.713   3.410   7.367  0.5976  1.3809 -0.0992
   32SAPC  C214 4300   1.911   3.412   7.290  0.3209 -0.7681 -0.0157
   32SAPC  H14R 4301   2.011   3.367   7.291  0.3419 -0.8740 -2.8288
   32SAPC  C215 4302   1.892   3.515   7.199  0.0034 -0.1721  0.1762
   32SAPC  H15R 4303   1.975   3.551   7.137  1.1998 -0.7868  1.3985
   32SAPC  C216 4304   1.772   3.610   7.179  0.2634 -0.0687  0.3972
   32SAPC  H16R 4305   1.747   3.680   7.262 -2.3767  0.5004 -0.8390
   32SAPC  H16S 4306   1.686   3.540   7.175 -1.2104  1.7314  0.0974
   32SAPC  C217 4307   1.775   3.694   7.050 -0.7287  0.3074 -0.6474
   32SAPC  H17R 4308   1.816   3.638   6.963  0.2316 -1.3190  0.8185
   32SAPC  H17S 4309   1.846   3.778   7.066  2.3921 -2.5641  1.4516
   32SAPC  C218 4310   1.634   3.746   7.019 -0.3952 -0.1231 -0.1006
   32SAPC  H18R 4311   1.599   3.812   7.100 -1.6092  0.6540 -1.2297
   32SAPC  H18S 4312   1.569   3.656   7.008  1.1790 -1.5531  1.9095
   32SAPC  C219 4313   1.642   3.816   6.879  0.3132 -0.1861  0.1350
   32SAPC  H19R 4314   1.638   3.738   6.800 -0.1316 -0.1639  0.1362
   32SAPC  H19S 4315   1.743   3.862   6.885 -0.2888  1.1363  0.2854
   32SAPC  C220 4316   1.541   3.927   6.839 -0.6723  0.1528 -0.1518
   32SAPC  H20R 4317   1.439   3.883   6.845 -0.0436 -1.1974  0.9702
   32SAPC  H20S 4318   1.555   3.964   6.735 -1.2861  1.4230  0.2136
   32SAPC  H20T 4319   1.551   4.013   6.908 -0.0719  0.3433 -0.4687
   32SAPC   C33 4320   0.605   2.917   6.873 -0.3692 -0.3418 -0.4003
   32SAPC   H3X 4321   0.701   2.969   6.854 -0.6582  0.0031 -0.9361
   32SAPC   H3Y 4322   0.628   2.808   6.880  0.5503 -0.0725  0.8980
   32SAPC   C34 4323   0.555   2.953   7.014 -0.1991  0.2925 -0.0356
   32SAPC   H4X 4324   0.453   2.912   7.023  0.7845 -3.0857 -2.9773
   32SAPC   H4Y 4325   0.548   3.064   7.016  0.7909  0.3609  0.3593
   32SAPC   C35 4326   0.644   2.918   7.132 -0.9086  0.6578  0.5038
   32SAPC   H5X 4327   0.742   2.971   7.126 -0.4939 -0.0987  0.6152
   32SAPC   H5Y 4328   0.663   2.809   7.141  0.6642  1.0449  1.9866
   32SAPC   C36 4329   0.578   2.956   7.263  0.9437 -0.1382  0.1558
   32SAPC   H6X 4330   0.468   2.943   7.253  1.0805 -0.2596 -1.2808
   32SAPC   H6Y 4331   0.583   3.067   7.269 -1.8514 -0.0132  0.6234
   32SAPC   C37 4332   0.625   2.875   7.387  0.5076 -0.2938 -0.0378
   32SAPC   H7X 4333   0.736   2.879   7.390  0.4502  1.7821  0.2278
   32SAPC   H7Y 4334   0.600   2.770   7.363 -0.2188  0.2234 -1.6280
   32SAPC   C38 4335   0.562   2.922   7.518  0.1092  0.8198 -0.5132
   32SAPC   H8X 4336   0.452   2.919   7.535  0.2507 -0.1751  0.3236
   32SAPC   H8Y 4337   0.586   3.028   7.536 -3.1949  1.3629  1.1688
   32SAPC   C39 4338   0.632   2.840   7.633 -1.1437 -0.5704 -0.2071
   32SAPC   H9X 4339   0.742   2.855   7.634 -1.0643 -1.0882 -0.8249
   32SAPC   H9Y 4340   0.618   2.732   7.612  2.3383 -1.1580  0.1615
   32SAPC  C310 4341   0.555   2.852   7.769  0.5940 -1.1820 -0.2597
   32SAPC  H10X 4342   0.449   2.861   7.738  0.9512 -1.3554 -1.5663
   32SAPC  H10Y 4343   0.594   2.942   7.822 -2.7892 -0.0463  0.3817
   32SAPC  C311 4344   0.568   2.746   7.877  0.5155 -0.2973 -0.1019
   32SAPC  H11X 4345   0.669   2.701   7.879  1.8743  2.4831 -2.0207
   32SAPC  H11Y 4346   0.506   2.658   7.849  0.8618 -1.0414  1.4511
   32SAPC  C312 4347   0.532   2.797   8.020  0.3906  0.2149 -0.0427
   32SAPC  H12X 4348   0.433   2.847   8.021  0.5557  0.5641  2.4456
   32SAPC  H12Y 4349   0.614   2.865   8.053 -0.4961  0.3708  1.8884
   32SAPC  C313 4350   0.541   2.680   8.123  0.3756 -0.8751  0.4291
   32SAPC  H13X 4351   0.646   2.646   8.114 -0.0428 -2.5928  1.8544
   32SAPC  H13Y 4352   0.477   2.595   8.089  0.2099 -0.0010 -1.5491
   32SAPC  C314 4353   0.504   2.713   8.271 -0.0538 -0.3121 -0.7571
   32SAPC  H14X 4354   0.545   2.628   8.330  0.6847  0.3140 -0.3617
   32SAPC  H14Y 4355   0.396   2.703   8.294  0.3314 -1.9686  0.4058
   32SAPC  C315 4356   0.541   2.852   8.330 -0.1427  0.5327 -0.3404
   32SAPC  H15X 4357   0.461   2.923   8.300 -0.2157  0.6016  0.0209
   32SAPC  H15Y 4358   0.637   2.876   8.278  0.3170 -0.1559  0.1726
   32SAPC  C316 4359   0.550   2.839   8.489 -0.3311  0.1821 -0.6801
   32SAPC  H16X 4360   0.558   2.938   8.539  3.2589 -0.4913  0.2071
   32SAPC  H16Y 4361   0.652   2.807   8.520  0.6563  2.8035 -1.0601
   32SAPC  C317 4362   0.430   2.772   8.551 -0.2736 -0.1095 -0.6141
   32SAPC  H17X 4363   0.438   2.662   8.563 -1.9191 -0.0092  1.7630
   32SAPC  H17Y 4364   0.336   2.802   8.501 -1.3118  0.5440  1.6871
   32SAPC  C318 4365   0.425   2.833   8.694  0.2291 -0.0691  0.0179
   32SAPC  H18X 4366   0.400   2.942   8.694  0.9194  0.0973 -0.3707
   32SAPC  H18Y 4367   0.525   2.804   8.734 -0.5507 -1.6430  0.8449
   32SAPC  H18Z 4368   0.357   2.773   8.758  0.2206  2.2155  2.2317
   33POPC     N 4369   5.030   3.866  10.697 -0.6310  0.3139  0.1773
   33POPC   C12 4370   5.142   3.837  10.597  0.3153 -0.9460  0.0882
   33POPC  H12A 4371   5.107   3.755  10.535  2.1374 -2.4374  0.9844
   33POPC  H12B 4372   5.229   3.803  10.652  1.4876  0.6305 -0.7432
   33POPC   C13 4373   5.003   3.739  10.786 -0.4879  0.2660 -0.1129
   33POPC  H13A 4374   4.965   3.662  10.719  2.7628  0.3788 -2.2115
   33POPC  H13B 4375   5.093   3.710  10.837  0.2481 -0.3535 -1.7109
   33POPC  H13C 4376   4.926   3.757  10.859  1.8553 -0.4285  2.6048
   33POPC   C14 4377   5.080   3.976  10.787 -0.4093  0.1757  0.1790
   33POPC  H14A 4378   5.111   4.065  10.734 -1.6474  1.9718  2.3766
   33POPC  H14B 4379   4.997   4.009  10.847 -0.9144 -1.0605  0.1757
   33POPC  H14C 4380   5.160   3.943  10.851 -1.3354  0.1212  1.3287
   33POPC   C15 4381   4.906   3.917  10.628  0.2206  0.6438  0.4200
   33POPC  H15A 4382   4.933   4.010  10.579  3.6343 -0.2711  0.4140
   33POPC  H15B 4383   4.818   3.940  10.686  1.2782  1.5163  1.6996
   33POPC  H15C 4384   4.874   3.843  10.556 -0.6125 -1.5334  2.9562
   33POPC   C11 4385   5.193   3.951  10.502 -1.1703 -0.0601 -0.5370
   33POPC  H11A 4386   5.098   3.987  10.458 -0.7408  2.2233  0.3063
   33POPC  H11B 4387   5.244   3.906  10.414  3.2613  1.1049  1.2797
   33POPC     P 4388   5.309   4.167  10.476 -0.1262  0.2061 -0.1988
   33POPC   O13 4389   5.438   4.212  10.536  0.3178 -0.3343  0.7556
   33POPC   O14 4390   5.194   4.262  10.479 -0.2692 -0.0324  0.4247
   33POPC   O12 4391   5.271   4.047  10.571 -0.3407  0.3348  0.1800
   33POPC   O11 4392   5.330   4.108  10.331  1.0896 -0.3795 -0.0705
   33POPC    C1 4393   5.435   4.023  10.304 -0.2322 -0.0729  0.7171
   33POPC    HA 4394   5.521   4.026  10.374  1.2189 -0.6296 -0.9872
   33POPC    HB 4395   5.404   3.919  10.278 -3.4045  0.9202  0.3433
   33POPC    C2 4396   5.494   4.082  10.172 -0.2902 -0.2791 -1.0185
   33POPC    HS 4397   5.490   4.191  10.193  0.7685 -0.7083  1.6356
   33POPC   O21 4398   5.403   4.056  10.060 -0.5001  0.3018  0.0539
   33POPC   C21 4399   5.351   4.163   9.998 -1.2709  0.6779 -0.2847
   33POPC   O22 4400   5.389   4.277  10.016  0.3511 -0.2475 -0.0330
   33POPC   C22 4401   5.246   4.112   9.901 -0.3613 -0.3257 -1.1466
   33POPC   H2R 4402   5.225   4.011   9.944 -1.5909  1.4646  2.7318
   33POPC   H2S 4403   5.290   4.100   9.800  0.3404 -0.9742 -0.7710
   33POPC    C3 4404   5.637   4.041  10.145  0.1640 -0.2831 -0.4162
   33POPC    HX 4405   5.636   3.930  10.131  0.9224  0.0218 -3.0314
   33POPC    HY 4406   5.687   4.058  10.243 -1.3836  0.1802  0.3031
   33POPC   O31 4407   5.695   4.110  10.043  0.2105 -0.1554 -0.2665
   33POPC   C31 4408   5.714   4.046   9.930  0.1934  0.2582 -0.2396
   33POPC   O32 4409   5.698   3.928   9.909  0.3580 -0.5674  0.4508
   33POPC   C32 4410   5.761   4.146   9.824  0.1244 -0.5074  0.3995
   33POPC   H2X 4411   5.849   4.202   9.860  0.7154 -0.5720 -0.9118
   33POPC   H2Y 4412   5.686   4.227   9.805  0.5808 -0.5773 -1.9424
   33POPC   C23 4413   5.125   4.215   9.909  1.1895  0.8265  0.4919
   33POPC   H3R 4414   5.137   4.302   9.841 -1.6989  0.0962 -1.0413
   33POPC   H3S 4415   5.122   4.266  10.008 -0.3356 -0.0616  0.9165
   33POPC   C24 4416   4.987   4.160   9.893 -0.2226  1.0509 -0.4989
   33POPC   H4R 4417   4.914   4.243   9.883  0.7264  1.9514 -0.0527
   33POPC   H4S 4418   4.970   4.093   9.980 -1.5455  0.6799 -1.0361
   33POPC   C25 4419   4.981   4.058   9.775  0.0539  0.2239  0.4303
   33POPC   H5R 4420   5.062   3.983   9.789 -0.5529 -0.6846 -0.7933
   33POPC   H5S 4421   5.005   4.112   9.681 -0.3048 -0.0084  0.2039
   33POPC   C26 4422   4.836   3.988   9.764 -0.2405 -0.2987  0.1257
   33POPC   H6R 4423   4.776   4.082   9.761  0.0203 -0.0646  1.6874
   33POPC   H6S 4424   4.811   3.945   9.863 -1.1370 -1.0635 -0.4277
   33POPC   C27 4425   4.818   3.895   9.639  0.0141 -0.3624  0.5179
   33POPC   H7R 4426   4.901   3.820   9.638  1.3001  0.9619  3.7378
   33POPC   H7S 4427   4.818   3.953   9.544 -1.8167 -2.8404 -1.0636
   33POPC   C28 4428   4.686   3.815   9.656  0.6168 -0.2822 -0.4850
   33POPC   H8R 4429   4.702   3.740   9.737  0.7185  0.9066  0.6152
   33POPC   H8S 4430   4.684   3.741   9.573  0.8982  0.6883 -1.3623
   33POPC   C29 4431   4.562   3.897   9.657  0.4042 -0.2947  0.6877
   33POPC   H91 4432   4.514   3.914   9.755  0.8796 -1.7546  1.1971
   33POPC  C210 4433   4.505   3.946   9.546 -0.5699 -0.4354 -0.2797
   33POPC  H101 4434   4.408   3.996   9.555 -0.1099  0.6533 -1.1708
   33POPC  C211 4435   4.561   3.925   9.411  0.1175  0.3758 -0.3963
   33POPC  H11R 4436   4.582   3.818   9.391  3.8272  1.2452 -1.6201
   33POPC  H11S 4437   4.662   3.970   9.402 -0.2366  1.3481  0.3505
   33POPC  C212 4438   4.469   3.943   9.286  0.9365 -0.4900  0.4548
   33POPC  H12R 4439   4.436   4.049   9.294  0.3623 -0.6677  0.4479
   33POPC  H12S 4440   4.380   3.876   9.287  0.8253 -0.4655 -3.0311
   33POPC  C213 4441   4.537   3.901   9.155  0.7837 -0.5632  0.2901
   33POPC  H13R 4442   4.552   3.792   9.148 -3.5659 -1.3154  1.0817
   33POPC  H13S 4443   4.640   3.943   9.160  1.0231 -1.1854  0.5225
   33POPC  C214 4444   4.465   3.931   9.018 -0.1952 -0.9333 -0.1985
   33POPC  H14R 4445   4.458   4.042   9.012 -1.9948 -1.1255 -1.8451
   33POPC  H14S 4446   4.359   3.899   9.020 -0.4423 -0.2051 -1.0589
   33POPC  C215 4447   4.531   3.885   8.889 -0.3682 -0.6107 -1.3027
   33POPC  H15R 4448   4.540   3.775   8.878  0.0965 -0.4883 -2.2009
   33POPC  H15S 4449   4.629   3.936   8.879 -0.1094 -0.7383  0.3873
   33POPC  C216 4450   4.444   3.920   8.772  0.4837 -0.5701  0.4133
   33POPC  H16R 4451   4.439   4.030   8.756  0.4371 -0.8514 -1.7317
   33POPC  H16S 4452   4.339   3.886   8.782  0.4070 -1.1799 -1.9891
   33POPC  C217 4453   4.488   3.867   8.634 -0.2576  0.2041 -0.4131
   33POPC  H17R 4454   4.542   3.771   8.645  0.3617  0.4942 -0.8697
   33POPC  H17S 4455   4.574   3.927   8.595  0.5253 -0.3346  0.4587
   33POPC  C218 4456   4.386   3.864   8.521 -0.7872 -0.3667  0.2467
   33POPC  H18R 4457   4.434   3.816   8.433 -1.3341 -1.3991  0.5033
   33POPC  H18S 4458   4.372   3.968   8.485 -0.0529 -0.9299 -1.7700
   33POPC  H18T 4459   4.298   3.802   8.548 -1.3214  0.8698  1.4029
   33POPC   C33 4460   5.780   4.082   9.684 -0.5370 -0.8989  0.9690
   33POPC   H3X 4461   5.848   3.994   9.687  0.0083 -0.4834  0.8846
   33POPC   H3Y 4462   5.833   4.156   9.619 -0.9377 -0.7799  0.7814
   33POPC   C34 4463   5.662   4.027   9.603  0.2839 -0.5856 -0.1945
   33POPC   H4X 4464   5.643   3.933   9.658 -1.4886 -0.5854 -0.7769
   33POPC   H4Y 4465   5.713   3.994   9.509  1.6206  0.3300  0.1908
   33POPC   C35 4466   5.542   4.117   9.579 -0.1479  0.1686 -0.1422
   33POPC   H5X 4467   5.567   4.215   9.532 -3.3127  0.0101 -2.3481
   33POPC   H5Y 4468   5.501   4.142   9.679  2.0382 -0.7884  1.0165
   33POPC   C36 4469   5.432   4.068   9.485  0.1763 -1.0143  0.2988
   33POPC   H6X 4470   5.431   3.958   9.471  0.2502 -0.8431 -1.1505
   33POPC   H6Y 4471   5.464   4.107   9.386  0.0807 -1.8481 -0.0604
   33POPC   C37 4472   5.293   4.135   9.501  0.0922 -0.6569  0.4280
   33POPC   H7X 4473   5.300   4.246   9.492  1.0139 -0.8789 -1.9735
   33POPC   H7Y 4474   5.248   4.110   9.599 -0.4723  0.5838  0.4961
   33POPC   C38 4475   5.190   4.078   9.395  0.3036  0.4441  0.0302
   33POPC   H8X 4476   5.247   4.096   9.301  2.8968 -0.3293  1.4027
   33POPC   H8Y 4477   5.093   4.132   9.387  1.8034  2.7798 -3.9527
   33POPC   C39 4478   5.154   3.928   9.410  0.4448  0.1217  0.5062
   33POPC   H9X 4479   5.115   3.911   9.512 -2.4698 -1.0751 -0.7467
   33POPC   H9Y 4480   5.239   3.857   9.396 -0.2125  0.1080 -4.1114
   33POPC  C310 4481   5.034   3.882   9.317 -0.8696  0.0438  0.1948
   33POPC  H10X 4482   5.052   3.914   9.212 -1.6852  0.8223  0.2895
   33POPC  H10Y 4483   4.949   3.932   9.366 -2.2450 -1.5553 -0.5115
   33POPC  C311 4484   5.009   3.729   9.314 -0.6667  0.0649  0.4926
   33POPC  H11X 4485   5.000   3.692   9.418  0.5943  0.7270  0.8541
   33POPC  H11Y 4486   5.098   3.679   9.269 -1.5109 -0.4228 -0.6488
   33POPC  C312 4487   4.878   3.685   9.234  0.2594 -0.2536  0.0083
   33POPC  H12X 4488   4.798   3.734   9.295  1.9035  0.2530  1.8297
   33POPC  H12Y 4489   4.882   3.574   9.232  0.0464 -0.2494 -1.0335
   33POPC  C313 4490   4.868   3.736   9.088  0.6456 -0.3864 -0.2295
   33POPC  H13X 4491   4.863   3.846   9.081  0.3004 -0.4254 -0.7072
   33POPC  H13Y 4492   4.767   3.703   9.054  0.4590  0.2500 -0.2885
   33POPC  C314 4493   4.966   3.680   8.981  0.2873  0.8757 -0.2092
   33POPC  H14X 4494   4.971   3.569   8.978 -0.4321  0.8481 -0.4524
   33POPC  H14Y 4495   5.067   3.724   8.996 -0.6178  3.0916 -0.4953
   33POPC  C315 4496   4.923   3.718   8.839 -0.0206 -0.1649 -0.1597
   33POPC  H15X 4497   4.945   3.827   8.827 -0.9307 -0.1298 -1.6256
   33POPC  H15Y 4498   4.814   3.706   8.826  0.0059 -0.8175  0.1906
   33POPC  C316 4499   4.992   3.644   8.727 -0.6582  0.0695 -0.2561
   33POPC  H16X 4500   5.103   3.652   8.733 -0.6708 -0.5611  1.0344
   33POPC  H16Y 4501   4.964   3.689   8.630 -0.2429 -0.2633 -0.5317
   33POPC  H16Z 4502   4.973   3.535   8.719  2.4193 -0.3889 -2.1610
   34POPC     N 4503   4.344   4.117  11.002 -0.2267  0.1293  0.5258
   34POPC   C12 4504   4.261   4.197  10.907 -0.0798  0.2698 -0.8276
   34POPC  H12A 4505   4.272   4.303  10.920 -0.0893  0.1813 -0.0951
   34POPC  H12B 4506   4.157   4.174  10.927  0.4014 -1.0089  0.2066
   34POPC   C13 4507   4.310   4.142  11.145 -0.0289  0.7627 -0.1089
   34POPC  H13A 4508   4.310   4.246  11.175 -0.3485  0.4977  0.8356
   34POPC  H13B 4509   4.214   4.098  11.167 -0.0925  1.2496  0.5952
   34POPC  H13C 4510   4.373   4.088  11.215  0.4804  0.3009 -0.9196
   34POPC   C14 4511   4.306   3.973  10.971 -0.2879  0.0589  0.2884
   34POPC  H14A 4512   4.356   3.901  11.033 -0.6282 -0.6537 -0.2547
   34POPC  H14B 4513   4.198   3.962  10.977 -1.1704  4.5767 -3.9345
   34POPC  H14C 4514   4.334   3.953  10.869  0.5163  0.9168  0.3403
   34POPC   C15 4515   4.493   4.140  10.977 -0.0197  0.6338 -0.1567
   34POPC  H15A 4516   4.517   4.244  10.997 -3.5755  1.3097  0.8300
   34POPC  H15B 4517   4.531   4.095  10.886 -0.5106  0.3688 -0.2309
   34POPC  H15C 4518   4.552   4.085  11.048  0.7099  1.9800  0.3141
   34POPC   C11 4519   4.282   4.182  10.752  0.8010  0.3421  0.3684
   34POPC  H11A 4520   4.193   4.223  10.700  0.4695 -2.0010 -0.9680
   34POPC  H11B 4521   4.273   4.077  10.717 -0.0950 -0.0358  1.6580
   34POPC     P 4522   4.424   4.398  10.701  0.1713 -0.1693 -0.1132
   34POPC   O13 4523   4.561   4.430  10.743 -0.3244  0.4887  0.2469
   34POPC   O14 4524   4.313   4.468  10.774 -0.1231  0.4185  0.4425
   34POPC   O12 4525   4.398   4.245  10.710  0.3807 -0.0194  0.1409
   34POPC   O11 4526   4.406   4.437  10.547  0.4391  0.7314 -0.3184
   34POPC    C1 4527   4.471   4.361  10.446 -0.2480  0.2295 -0.5824
   34POPC    HA 4528   4.572   4.329  10.479  0.0656  0.3280 -1.4208
   34POPC    HB 4529   4.482   4.425  10.356  1.4110 -0.9708 -1.2628
   34POPC    C2 4530   4.402   4.236  10.390 -0.0940  0.3612  0.1249
   34POPC    HS 4531   4.391   4.164  10.474  1.8515 -0.7421 -0.5143
   34POPC   O21 4532   4.469   4.187  10.265  0.1188 -0.9200  0.5581
   34POPC   C21 4533   4.547   4.084  10.291  0.1631  0.1253 -0.3080
   34POPC   O22 4534   4.566   4.038  10.406  0.2779  0.3415  0.4001
   34POPC   C22 4535   4.599   4.016  10.162  0.1945 -0.7846  0.1034
   34POPC   H2R 4536   4.656   4.089  10.100  1.7560 -2.8187 -0.9204
   34POPC   H2S 4537   4.507   3.979  10.111  0.0636  0.0253 -0.2598
   34POPC    C3 4538   4.256   4.282  10.355 -0.8785  0.2066  0.1475
   34POPC    HX 4539   4.210   4.325  10.446 -0.3016  0.3249  0.3771
   34POPC    HY 4540   4.207   4.190  10.317 -1.3277  1.1766 -1.6753
   34POPC   O31 4541   4.261   4.391  10.251  0.0818  0.3243 -0.2628
   34POPC   C31 4542   4.140   4.427  10.204  0.5603  0.1559 -0.2423
   34POPC   O32 4543   4.034   4.375  10.240  0.6851 -0.4484  0.7627
   34POPC   C32 4544   4.160   4.528  10.089  0.1428  0.3106 -0.5753
   34POPC   H2X 4545   4.209   4.478  10.003  1.6965  0.2528  0.3259
   34POPC   H2Y 4546   4.239   4.599  10.121 -0.5951  2.7771 -3.9693
   34POPC   C23 4547   4.686   3.897  10.191  0.1893  0.9025  0.2164
   34POPC   H3R 4548   4.708   3.842  10.097  3.4087  0.6097  1.0823
   34POPC   H3S 4549   4.630   3.828  10.258 -0.7495  0.7370 -0.7139
   34POPC   C24 4550   4.826   3.934  10.245 -0.2135 -0.2269 -0.0012
   34POPC   H4R 4551   4.819   4.004  10.331  1.0299 -0.2860  0.1620
   34POPC   H4S 4552   4.876   3.998  10.170  0.1971  1.3433  1.5593
   34POPC   C25 4553   4.895   3.800  10.285  0.0584  0.0334  0.2766
   34POPC   H5R 4554   4.811   3.745  10.333  0.6284  0.5936  1.9335
   34POPC   H5S 4555   4.983   3.818  10.349 -0.9977  0.1436  1.7240
   34POPC   C26 4556   4.949   3.714  10.169 -0.5148  0.1143 -0.2022
   34POPC   H6R 4557   4.875   3.688  10.090 -0.6795  0.2485 -0.0926
   34POPC   H6S 4558   4.988   3.628  10.227  1.3162  0.3414 -1.0433
   34POPC   C27 4559   5.074   3.778  10.105  1.0195 -0.4332 -0.0476
   34POPC   H7R 4560   5.149   3.786  10.187  1.0312  1.8126 -0.2415
   34POPC   H7S 4561   5.053   3.882  10.070  1.2293  0.2385  1.7226
   34POPC   C28 4562   5.142   3.692   9.997  0.3734 -0.1320  0.2828
   34POPC   H8R 4563   5.069   3.708   9.914 -0.7004 -1.5830  0.9252
   34POPC   H8S 4564   5.126   3.591  10.039  1.8579 -1.3222 -1.9119
   34POPC   C29 4565   5.286   3.720   9.972 -0.2422 -0.3137 -0.1656
   34POPC   H91 4566   5.347   3.724  10.063  1.7988  0.0360 -1.5096
   34POPC  C210 4567   5.339   3.769   9.857  0.3667 -0.0087 -0.6622
   34POPC  H101 4568   5.448   3.778   9.854  0.2901  1.2481 -0.2732
   34POPC  C211 4569   5.265   3.780   9.728 -0.1571  0.3300 -0.5345
   34POPC  H11R 4570   5.314   3.855   9.661  0.8978  0.7940  0.7343
   34POPC  H11S 4571   5.159   3.809   9.747 -0.0398 -0.7890  1.9348
   34POPC  C212 4572   5.273   3.656   9.639 -0.6396  0.0355  0.6833
   34POPC  H12R 4573   5.219   3.683   9.547 -2.0886 -1.9407  0.9076
   34POPC  H12S 4574   5.221   3.564   9.675  1.2510 -0.9055  1.0898
   34POPC  C213 4575   5.411   3.613   9.591  0.0893  0.2150 -0.3088
   34POPC  H13R 4576   5.477   3.584   9.676 -0.8465  0.9437  0.6773
   34POPC  H13S 4577   5.471   3.692   9.540  1.7810 -0.4067  0.7027
   34POPC  C214 4578   5.419   3.480   9.505  0.0447  0.2134 -0.1816
   34POPC  H14R 4579   5.364   3.397   9.554  0.4347  0.8779  1.4142
   34POPC  H14S 4580   5.526   3.452   9.497 -0.1307 -0.6294  0.4845
   34POPC  C215 4581   5.354   3.499   9.366  0.3102  0.0813  0.1819
   34POPC  H15R 4582   5.395   3.586   9.310 -0.7802  0.5333  0.0744
   34POPC  H15S 4583   5.244   3.504   9.377  0.5006  3.6309  0.9321
   34POPC  C216 4584   5.386   3.386   9.262 -0.0880  0.1318  0.3011
   34POPC  H16R 4585   5.373   3.290   9.316  1.3589  0.1141  0.6168
   34POPC  H16S 4586   5.490   3.389   9.224 -0.1762 -1.3340 -0.1088
   34POPC  C217 4587   5.309   3.391   9.130  0.1219  0.5496  0.4310
   34POPC  H17R 4588   5.306   3.496   9.095 -1.6068 -0.0125 -1.2096
   34POPC  H17S 4589   5.206   3.354   9.152 -0.2967  1.1532 -0.4684
   34POPC  C218 4590   5.377   3.311   9.016  0.4155 -0.3659 -0.5096
   34POPC  H18R 4591   5.378   3.206   9.052  0.1703  0.3340  1.6038
   34POPC  H18S 4592   5.482   3.346   9.008  0.0761  0.5259 -1.0803
   34POPC  H18T 4593   5.327   3.329   8.919  3.1541 -1.3605 -2.1533
   34POPC   C33 4594   4.032   4.609  10.055 -0.1582 -0.8429 -1.5366
   34POPC   H3X 4595   4.076   4.696  10.003 -1.5817  0.7590 -0.0988
   34POPC   H3Y 4596   3.990   4.641  10.152  0.6982 -2.3803 -0.6298
   34POPC   C34 4597   3.924   4.537   9.973  0.0000 -0.1659  0.4459
   34POPC   H4X 4598   3.884   4.456  10.037  1.1243  0.0429  1.4315
   34POPC   H4Y 4599   3.971   4.503   9.878 -0.0923  1.8208 -0.3387
   34POPC   C35 4600   3.809   4.633   9.930 -0.2223 -0.1337 -0.3631
   34POPC   H5X 4601   3.846   4.714   9.863  2.5159 -1.5875 -0.6838
   34POPC   H5Y 4602   3.770   4.679  10.023  1.9198  0.5384  0.2293
   34POPC   C36 4603   3.700   4.558   9.854  0.3294 -0.1620 -0.0513
   34POPC   H6X 4604   3.621   4.631   9.826  0.8234  2.4894  4.7843
   34POPC   H6Y 4605   3.650   4.471   9.901 -2.5350  1.0018 -0.8573
   34POPC   C37 4606   3.748   4.503   9.721 -0.2333 -0.2038 -1.3144
   34POPC   H7X 4607   3.839   4.438   9.724 -0.0109  0.1362 -0.6204
   34POPC   H7Y 4608   3.765   4.588   9.651 -0.9339 -0.2997 -1.5993
   34POPC   C38 4609   3.638   4.419   9.655 -0.0005  0.1100  0.0361
   34POPC   H8X 4610   3.551   4.478   9.619 -0.1039  1.4509  2.3676
   34POPC   H8Y 4611   3.594   4.340   9.720 -1.1420 -1.9653 -3.1571
   34POPC   C39 4612   3.683   4.339   9.534  0.2837 -0.7322  0.1311
   34POPC   H9X 4613   3.751   4.261   9.575  0.9912 -0.8308 -1.2031
   34POPC   H9Y 4614   3.734   4.409   9.465  0.3281  0.6533  1.5588
   34POPC  C310 4615   3.570   4.266   9.454 -0.2610 -0.5729  0.2175
   34POPC  H10X 4616   3.527   4.337   9.381 -0.5727 -0.5449  0.4271
   34POPC  H10Y 4617   3.485   4.237   9.519  1.2184 -1.3686  1.8777
   34POPC  C311 4618   3.630   4.140   9.383 -0.0143  0.7036  0.5202
   34POPC  H11X 4619   3.732   4.161   9.344 -0.1485  1.9942  0.8480
   34POPC  H11Y 4620   3.574   4.102   9.296  0.0118 -3.9608  2.3944
   34POPC  C312 4621   3.644   4.016   9.479  0.1044  0.1039 -0.5958
   34POPC  H12X 4622   3.573   4.021   9.563  4.8834 -0.3017  3.7065
   34POPC  H12Y 4623   3.742   4.015   9.531  0.8882 -1.6885 -2.0200
   34POPC  C313 4624   3.626   3.890   9.407  0.5548  0.2209  0.3003
   34POPC  H13X 4625   3.706   3.882   9.331  1.3187 -1.0897  1.2386
   34POPC  H13Y 4626   3.532   3.894   9.347  0.0886  1.1228  1.0685
   34POPC  C314 4627   3.626   3.769   9.504  0.5446 -0.2535  0.1374
   34POPC  H14X 4628   3.562   3.791   9.592  0.7019 -0.3550  0.2781
   34POPC  H14Y 4629   3.728   3.750   9.545  0.8520 -1.1250 -0.9946
   34POPC  C315 4630   3.564   3.643   9.454  0.3733 -0.3087  0.6003
   34POPC  H15X 4631   3.601   3.629   9.350 -0.0427  0.5076  0.3324
   34POPC  H15Y 4632   3.456   3.669   9.442  0.8922  0.9959 -1.6007
   34POPC  C316 4633   3.593   3.525   9.551  0.4382  0.6501 -0.2591
   34POPC  H16X 4634   3.566   3.554   9.655  2.1217 -2.4810  1.1370
   34POPC  H16Y 4635   3.702   3.503   9.547  0.3567 -0.2921  1.8697
   34POPC  H16Z 4636   3.537   3.433   9.524  1.3847 -0.1144  0.3568
   35POPC     N 4637   3.247   2.225  11.361 -0.6186  0.0527 -0.1043
   35POPC   C12 4638   3.331   2.190  11.234 -0.4851  0.7037 -0.4441
   35POPC  H12A 4639   3.400   2.123  11.285 -0.8821 -1.2326 -2.3684
   35POPC  H12B 4640   3.377   2.276  11.188  0.9761 -0.8619 -2.0011
   35POPC   C13 4641   3.336   2.304  11.450  0.0866  0.0393 -0.5685
   35POPC  H13A 4642   3.295   2.308  11.550  0.6999  0.7954 -0.3414
   35POPC  H13B 4643   3.429   2.249  11.452  0.3818  0.5472  0.5293
   35POPC  H13C 4644   3.354   2.406  11.419  0.8410  0.5432  1.4347
   35POPC   C14 4645   3.126   2.300  11.334  0.1015  0.4164  0.2905
   35POPC  H14A 4646   3.057   2.330  11.412 -2.0372 -1.5409 -0.7701
   35POPC  H14B 4647   3.142   2.371  11.255  3.1889 -0.0204  0.4688
   35POPC  H14C 4648   3.058   2.229  11.288  0.2754  0.5709 -0.2071
   35POPC   C15 4649   3.221   2.097  11.442 -0.4288  0.1072  0.1975
   35POPC  H15A 4650   3.150   2.121  11.520  1.2884  0.5035  1.6598
   35POPC  H15B 4651   3.315   2.056  11.475  0.2403  1.1750 -0.3590
   35POPC  H15C 4652   3.174   2.026  11.375 -2.0146  1.1173  0.2009
   35POPC   C11 4653   3.254   2.120  11.117 -0.4234 -0.5513  0.5607
   35POPC  H11A 4654   3.326   2.121  11.033  0.4864 -1.2955  1.3223
   35POPC  H11B 4655   3.163   2.174  11.084  0.0527  0.7322  1.3136
   35POPC     P 4656   3.299   1.860  11.172 -0.0778  0.2607 -0.4189
   35POPC   O13 4657   3.215   1.745  11.208 -0.3862  0.2698 -0.0921
   35POPC   O14 4658   3.417   1.889  11.255 -0.2415  0.5234  0.1299
   35POPC   O12 4659   3.206   1.987  11.155  0.1008  0.3421 -0.1960
   35POPC   O11 4660   3.347   1.836  11.026 -0.4510  0.1306  0.6230
   35POPC    C1 4661   3.250   1.839  10.919 -0.4324  0.3231  0.1098
   35POPC    HA 4662   3.166   1.912  10.922  1.1611  2.4528 -3.8341
   35POPC    HB 4663   3.213   1.736  10.901  0.8883 -0.0528 -0.4689
   35POPC    C2 4664   3.303   1.877  10.780  1.0637 -0.5872  0.2002
   35POPC    HS 4665   3.218   1.884  10.709  2.1383  0.1207 -1.0370
   35POPC   O21 4666   3.396   1.765  10.759  0.6308  0.1253  0.5171
   35POPC   C21 4667   3.387   1.692  10.647  0.5593 -0.0155  0.2176
   35POPC   O22 4668   3.288   1.685  10.574 -0.0797  0.0147  0.1349
   35POPC   C22 4669   3.521   1.627  10.616 -0.7653 -0.4754 -0.9067
   35POPC   H2R 4670   3.539   1.572  10.710  1.1102  0.8908 -0.4307
   35POPC   H2S 4671   3.602   1.704  10.614  0.0360 -1.3246 -1.9190
   35POPC    C3 4672   3.368   2.019  10.763 -0.4949  0.0715  0.8178
   35POPC    HX 4673   3.460   2.053  10.814 -0.9554  2.4332  0.1357
   35POPC    HY 4674   3.292   2.085  10.810 -0.5899 -0.2042  1.0516
   35POPC   O31 4675   3.372   2.061  10.625  0.4893  0.1740 -0.3166
   35POPC   C31 4676   3.488   2.027  10.565  0.7299 -0.8662 -0.5903
   35POPC   O32 4677   3.580   1.965  10.621  0.5689  0.4012  0.1668
   35POPC   C32 4678   3.481   2.082  10.421  0.3021  0.8639  0.7792
   35POPC   H2X 4679   3.542   2.175  10.422 -0.5895  1.4464  3.0890
   35POPC   H2Y 4680   3.375   2.110  10.404  0.4904  0.8468 -0.4333
   35POPC   C23 4681   3.517   1.541  10.493 -0.5696 -0.0303  0.5391
   35POPC   H3R 4682   3.430   1.473  10.486 -0.6330  0.0760  0.2754
   35POPC   H3S 4683   3.612   1.485  10.484  0.9264  2.4316  0.2977
   35POPC   C24 4684   3.507   1.626  10.372  0.0356 -0.2004  0.3939
   35POPC   H4R 4685   3.571   1.717  10.367 -0.3406 -0.0087 -1.5553
   35POPC   H4S 4686   3.399   1.651  10.361 -0.7539 -3.1850  0.8705
   35POPC   C25 4687   3.526   1.546  10.238 -0.7970 -0.3305  0.1937
   35POPC   H5R 4688   3.464   1.454  10.239 -1.9417  0.4330  0.3472
   35POPC   H5S 4689   3.636   1.534  10.228 -0.8878  0.0164 -1.2390
   35POPC   C26 4690   3.493   1.628  10.104 -0.2738  0.2328  1.0015
   35POPC   H6R 4691   3.553   1.721  10.114 -3.3660  2.1581  2.2005
   35POPC   H6S 4692   3.385   1.650  10.112 -0.4942  0.3195 -1.7548
   35POPC   C27 4693   3.511   1.555   9.969  0.1112 -0.4054  0.7611
   35POPC   H7R 4694   3.443   1.469   9.954  0.0500 -0.1375 -0.5771
   35POPC   H7S 4695   3.604   1.496   9.960  1.5392  1.5564  2.3901
   35POPC   C28 4696   3.498   1.650   9.845 -0.0901 -0.5574 -0.1510
   35POPC   H8R 4697   3.534   1.753   9.866 -0.0701 -0.6766  0.4075
   35POPC   H8S 4698   3.389   1.659   9.827 -0.5257 -3.9792  0.3673
   35POPC   C29 4699   3.579   1.592   9.732  0.3725 -0.0996 -0.2187
   35POPC   H91 4700   3.649   1.515   9.767 -0.5233 -0.8204 -0.0002
   35POPC  C210 4701   3.565   1.621   9.601 -0.1088  0.2224  0.7581
   35POPC  H101 4702   3.634   1.581   9.525 -0.2731 -2.4551  1.9624
   35POPC  C211 4703   3.471   1.723   9.539  0.1131  0.6247  0.1465
   35POPC  H11R 4704   3.533   1.803   9.494  1.2620  0.2883  1.0992
   35POPC  H11S 4705   3.392   1.760   9.607  0.2632 -0.0145  0.6786
   35POPC  C212 4706   3.397   1.662   9.416  0.1974  0.1851  0.2675
   35POPC  H12R 4707   3.336   1.739   9.363 -1.3147 -1.0187  0.2130
   35POPC  H12S 4708   3.325   1.582   9.443  0.9686 -0.6345 -0.0944
   35POPC  C213 4709   3.491   1.587   9.313  0.1826 -0.7392 -0.0296
   35POPC  H13R 4710   3.547   1.500   9.354  0.2957  0.2399  1.9485
   35POPC  H13S 4711   3.553   1.662   9.260 -1.0289 -0.1009 -0.5522
   35POPC  C214 4712   3.406   1.520   9.201 -0.4324  0.0358 -1.0888
   35POPC  H14R 4713   3.310   1.481   9.241 -0.3189 -1.2878 -2.0582
   35POPC  H14S 4714   3.465   1.437   9.157 -0.5286  0.5220 -2.1526
   35POPC  C215 4715   3.368   1.625   9.093  0.0171 -0.0197  0.3702
   35POPC  H15R 4716   3.463   1.652   9.041  0.0646 -1.2593 -0.2007
   35POPC  H15S 4717   3.339   1.720   9.143  1.8165  2.1078 -2.4895
   35POPC  C216 4718   3.256   1.582   8.994 -0.1132  0.0820  0.4725
   35POPC  H16R 4719   3.236   1.657   8.914  0.0175 -0.2566  0.1193
   35POPC  H16S 4720   3.167   1.578   9.062 -1.5057 -0.3455 -1.3327
   35POPC  C217 4721   3.284   1.447   8.929  0.0090 -0.4610 -0.2088
   35POPC  H17R 4722   3.298   1.370   9.009 -1.2755 -2.3306 -1.7388
   35POPC  H17S 4723   3.377   1.432   8.871 -0.3071 -0.7664 -0.6418
   35POPC  C218 4724   3.167   1.399   8.843 -0.3940 -0.4569 -0.5709
   35POPC  H18R 4725   3.150   1.479   8.767 -0.6246  1.5079  1.4770
   35POPC  H18S 4726   3.071   1.393   8.899 -0.1248 -0.3660 -0.0966
   35POPC  H18T 4727   3.192   1.306   8.787  0.4869  0.7728 -2.2753
   35POPC   C33 4728   3.524   1.977  10.314  0.1527  0.4575  0.2736
   35POPC   H3X 4729   3.445   1.902  10.294 -0.0674  0.3246  1.6557
   35POPC   H3Y 4730   3.610   1.915  10.349 -0.2065  0.0189  0.3759
   35POPC   C34 4731   3.563   2.042  10.185  0.6073 -0.1478 -0.1904
   35POPC   H4X 4732   3.663   2.003  10.152  0.8602  1.5464 -1.5039
   35POPC   H4Y 4733   3.593   2.148  10.200  0.6065 -0.2649  0.6297
   35POPC   C35 4734   3.461   2.047  10.073  0.4375  0.3346  0.4587
   35POPC   H5X 4735   3.364   2.086  10.112 -0.7772  0.3931 -2.5055
   35POPC   H5Y 4736   3.436   1.946  10.034 -1.0266  1.0619 -0.5188
   35POPC   C36 4737   3.508   2.126   9.944 -0.2092  0.6860 -0.4321
   35POPC   H6X 4738   3.586   2.063   9.895  0.5282  0.9052  0.4446
   35POPC   H6Y 4739   3.548   2.224   9.976  0.9289 -0.0349  0.3708
   35POPC   C37 4740   3.398   2.144   9.842  0.1515  0.0430 -0.1739
   35POPC   H7X 4741   3.320   2.217   9.873  0.6700  0.0648  1.1193
   35POPC   H7Y 4742   3.353   2.046   9.815  1.6585 -1.0449  1.1883
   35POPC   C38 4743   3.467   2.204   9.713  0.6183  0.2218 -0.4069
   35POPC   H8X 4744   3.555   2.144   9.682 -0.1975 -0.7934 -0.7955
   35POPC   H8Y 4745   3.485   2.314   9.716 -1.8632  0.6116  1.9592
   35POPC   C39 4746   3.363   2.185   9.604  0.5551  0.1712 -0.3630
   35POPC   H9X 4747   3.281   2.249   9.643 -0.3404 -1.6846  0.8550
   35POPC   H9Y 4748   3.320   2.083   9.597  0.2471  0.2663  0.0904
   35POPC  C310 4749   3.411   2.228   9.470  0.5250 -0.7800  0.2707
   35POPC  H10X 4750   3.513   2.269   9.483 -0.3464  1.6344 -0.1464
   35POPC  H10Y 4751   3.346   2.312   9.435  1.8919  0.5234  0.7975
   35POPC  C311 4752   3.422   2.108   9.381  0.1157 -0.2635  0.1622
   35POPC  H11X 4753   3.332   2.043   9.378  0.0774 -0.1504 -1.7163
   35POPC  H11Y 4754   3.510   2.058   9.426 -0.2137 -1.4580 -0.5073
   35POPC  C312 4755   3.458   2.148   9.233 -0.1667  0.5804  0.8083
   35POPC  H12X 4756   3.554   2.204   9.229 -0.2387  0.5898 -2.5595
   35POPC  H12Y 4757   3.380   2.218   9.194 -0.5384  1.0624  2.3966
   35POPC  C313 4758   3.469   2.022   9.147  0.0494  0.0078 -0.0546
   35POPC  H13X 4759   3.372   1.967   9.151 -1.0498  1.9921  2.4406
   35POPC  H13Y 4760   3.555   1.969   9.192  0.5546  1.5852  0.8830
   35POPC  C314 4761   3.493   2.050   9.001 -0.4036 -0.7397 -0.5458
   35POPC  H14X 4762   3.582   2.116   8.990 -1.7136  1.5493  2.0730
   35POPC  H14Y 4763   3.414   2.114   8.957 -1.3723 -1.6611 -0.1787
   35POPC  C315 4764   3.521   1.926   8.916  0.2052  0.4792  0.1947
   35POPC  H15X 4765   3.433   1.861   8.898  0.7083 -0.1459 -0.0153
   35POPC  H15Y 4766   3.603   1.868   8.963  1.2210  2.6815  1.2255
   35POPC  C316 4767   3.560   1.962   8.765  0.2903  0.1261  0.3273
   35POPC  H16X 4768   3.640   2.039   8.770  0.2827  0.1203  0.5729
   35POPC  H16Y 4769   3.471   2.012   8.722  0.5854  0.1444 -0.2697
   35POPC  H16Z 4770   3.587   1.870   8.710  0.9365 -0.3591  1.4303
   36POPC     N 4771   3.939   0.852  11.033 -0.2624  0.0161  0.5467
   36POPC   C12 4772   4.076   0.839  10.977 -0.0667 -0.5740  0.3160
   36POPC  H12A 4773   4.118   0.935  10.951  1.3841 -1.5211 -0.9780
   36POPC  H12B 4774   4.076   0.781  10.885  0.2762  1.8161 -1.2382
   36POPC   C13 4775   3.955   0.933  11.157  0.1620  0.4883 -0.1305
   36POPC  H13A 4776   3.996   0.877  11.240 -1.2646  4.1679  3.2252
   36POPC  H13B 4777   4.011   1.024  11.144 -0.9084  1.2308  0.4436
   36POPC  H13C 4778   3.856   0.964  11.185 -0.6736 -1.2320 -1.0921
   36POPC   C14 4779   3.850   0.931  10.934 -0.2555  0.0881 -0.5725
   36POPC  H14A 4780   3.762   0.967  10.984  0.3525 -0.1354  0.6725
   36POPC  H14B 4781   3.894   1.024  10.900 -1.0526 -0.9480 -4.6741
   36POPC  H14C 4782   3.823   0.878  10.844  0.3517 -1.6501  0.2490
   36POPC   C15 4783   3.873   0.717  11.058 -0.1082 -0.1487  0.3205
   36POPC  H15A 4784   3.836   0.674  10.966  0.2001 -1.3088  0.7309
   36POPC  H15B 4785   3.793   0.713  11.131  0.8680  0.2544  1.4204
   36POPC  H15C 4786   3.941   0.650  11.108 -0.4698 -0.9708 -0.2774
   36POPC   C11 4787   4.172   0.759  11.076 -0.3957 -0.0682 -0.4368
   36POPC  H11A 4788   4.109   0.681  11.122  0.2721 -0.7297 -0.6290
   36POPC  H11B 4789   4.216   0.825  11.154 -1.9168 -1.9610  2.0548
   36POPC     P 4790   4.289   0.577  10.911 -0.1179 -0.2235  0.0275
   36POPC   O13 4791   4.240   0.455  10.979  0.4956 -0.1958  0.4384
   36POPC   O14 4792   4.422   0.562  10.843 -0.4881 -0.4010  0.1652
   36POPC   O12 4793   4.287   0.703  11.003  0.2425 -0.2422 -0.2495
   36POPC   O11 4794   4.190   0.610  10.801  0.3687 -0.0019  0.1400
   36POPC    C1 4795   4.067   0.539  10.773  0.0503  0.0506  0.5867
   36POPC    HA 4796   3.998   0.605  10.717 -0.6631 -1.9602 -0.9782
   36POPC    HB 4797   4.031   0.506  10.873 -0.1874 -0.7648  0.2379
   36POPC    C2 4798   4.096   0.410  10.693  0.1459 -0.4286  0.0987
   36POPC    HS 4799   4.160   0.345  10.757 -1.7855 -2.1546  0.3493
   36POPC   O21 4800   4.169   0.463  10.578 -0.4223  0.3723 -0.2004
   36POPC   C21 4801   4.260   0.380  10.523 -0.3391  0.0245  0.6276
   36POPC   O22 4802   4.279   0.263  10.548  0.1690 -0.1781 -0.1496
   36POPC   C22 4803   4.338   0.441  10.402  0.7229  0.8840  0.1408
   36POPC   H2R 4804   4.448   0.426  10.415  0.7413  0.1227 -0.8897
   36POPC   H2S 4805   4.319   0.550  10.399  2.4940  1.2794  1.9565
   36POPC    C3 4806   3.968   0.319  10.664 -0.1804  0.2350  0.6989
   36POPC    HX 4807   3.931   0.278  10.760  1.5225 -1.6100  0.5853
   36POPC    HY 4808   4.005   0.229  10.611 -1.7469 -0.6874  1.1558
   36POPC   O31 4809   3.858   0.374  10.596  0.4333  0.2452 -0.2547
   36POPC   C31 4810   3.865   0.377  10.465  0.1663  0.5387 -0.4050
   36POPC   O32 4811   3.964   0.337  10.396 -0.4176 -0.1338 -0.3397
   36POPC   C32 4812   3.745   0.447  10.411  0.2248 -0.2942 -0.2260
   36POPC   H2X 4813   3.763   0.556  10.427  0.0207 -0.3481  0.3517
   36POPC   H2Y 4814   3.652   0.427  10.467  0.3926 -0.9046 -0.1638
   36POPC   C23 4815   4.296   0.371  10.266  0.1383 -0.1515 -0.2555
   36POPC   H3R 4816   4.188   0.395  10.254 -0.0939  0.0302  1.9783
   36POPC   H3S 4817   4.313   0.261  10.269 -2.6603 -0.6383 -0.6814
   36POPC   C24 4818   4.372   0.416  10.140 -0.4130 -0.2228 -0.1043
   36POPC   H4R 4819   4.482   0.402  10.142 -0.4267 -0.4294  3.2310
   36POPC   H4S 4820   4.373   0.527  10.144 -0.3546 -0.1795 -1.2135
   36POPC   C25 4821   4.321   0.352  10.010  0.0111  0.0595 -0.3039
   36POPC   H5R 4822   4.211   0.367  10.017 -0.3951 -0.7128 -4.0395
   36POPC   H5S 4823   4.344   0.244  10.010 -1.6178 -0.3384 -2.8289
   36POPC   C26 4824   4.375   0.406   9.877 -0.0801  0.2367 -0.4461
   36POPC   H6R 4825   4.484   0.387   9.874 -0.4352 -2.3537  1.4006
   36POPC   H6S 4826   4.359   0.516   9.876  1.0125  0.3898 -1.3657
   36POPC   C27 4827   4.303   0.346   9.754  0.3851 -0.4740 -0.4117
   36POPC   H7R 4828   4.199   0.384   9.747  0.7948  0.9918  1.0445
   36POPC   H7S 4829   4.295   0.238   9.777  0.3378  0.1257  2.6867
   36POPC   C28 4830   4.377   0.371   9.621 -0.2686 -0.4661  0.1741
   36POPC   H8R 4831   4.476   0.321   9.634 -1.2387 -2.4204  0.2474
   36POPC   H8S 4832   4.396   0.479   9.604 -2.6055  0.6210  3.6746
   36POPC   C29 4833   4.314   0.294   9.510 -0.2278 -0.2035 -0.7239
   36POPC   H91 4834   4.308   0.185   9.521 -0.0528 -0.3798 -2.2561
   36POPC  C210 4835   4.263   0.347   9.400 -0.1932  0.1403 -1.0764
   36POPC  H101 4836   4.229   0.272   9.326  2.3192 -1.0645 -1.0843
   36POPC  C211 4837   4.264   0.493   9.358 -0.0768 -0.0108 -0.3662
   36POPC  H11R 4838   4.322   0.559   9.426 -2.9645  1.7654  0.4219
   36POPC  H11S 4839   4.158   0.526   9.356  0.1680  0.7782 -0.7364
   36POPC  C212 4840   4.331   0.512   9.218 -0.0653  0.1983  0.1442
   36POPC  H12R 4841   4.428   0.459   9.225 -0.4333 -0.8907 -2.7125
   36POPC  H12S 4842   4.342   0.621   9.196  0.3520 -0.3038 -2.2024
   36POPC  C213 4843   4.238   0.457   9.111  0.1581  0.0815  0.1674
   36POPC  H13R 4844   4.143   0.513   9.108 -0.9215 -1.7728 -2.8902
   36POPC  H13S 4845   4.201   0.354   9.130 -0.1650  0.5787  2.3069
   36POPC  C214 4846   4.307   0.440   8.974  0.1976 -0.5157 -0.3230
   36POPC  H14R 4847   4.338   0.544   8.947  1.9506 -0.4618  1.7780
   36POPC  H14S 4848   4.227   0.414   8.902 -0.9874  2.3781 -0.1175
   36POPC  C215 4849   4.425   0.346   8.968 -0.1040  0.2616 -0.1119
   36POPC  H15R 4850   4.418   0.242   9.005  2.6686 -0.0714 -0.3804
   36POPC  H15S 4851   4.512   0.389   9.022  0.1004  0.4444 -0.5855
   36POPC  C216 4852   4.472   0.327   8.824 -0.2466 -0.5702  0.7030
   36POPC  H16R 4853   4.514   0.425   8.793  0.0613 -1.0261 -0.3294
   36POPC  H16S 4854   4.378   0.312   8.767 -1.0458  1.9460  1.3221
   36POPC  C217 4855   4.582   0.218   8.787  0.2712  0.4418  0.0817
   36POPC  H17R 4856   4.606   0.227   8.679 -2.7657 -1.4728 -0.8271
   36POPC  H17S 4857   4.518   0.127   8.798 -0.7702  1.0074 -1.1747
   36POPC  C218 4858   4.710   0.202   8.871  0.4680  0.0796 -0.4617
   36POPC  H18R 4859   4.770   0.111   8.849  0.5852  0.2796 -0.9634
   36POPC  H18S 4860   4.671   0.170   8.970 -2.8870  0.3369 -1.6288
   36POPC  H18T 4861   4.765   0.296   8.895 -1.8125  1.0863  1.0094
   36POPC   C33 4862   3.728   0.419  10.262  0.2411 -0.2821 -0.4674
   36POPC   H3X 4863   3.730   0.310  10.242  1.6550 -0.6356  1.4747
   36POPC   H3Y 4864   3.809   0.461  10.199 -1.0495  0.4670 -1.6551
   36POPC   C34 4865   3.611   0.499  10.193  0.2984  0.0711  0.0740
   36POPC   H4X 4866   3.634   0.608  10.188  1.5178 -0.0612  2.3893
   36POPC   H4Y 4867   3.522   0.506  10.260  1.9018 -3.5436  2.6927
   36POPC   C35 4868   3.572   0.443  10.058 -0.0973 -0.7257 -0.1739
   36POPC   H5X 4869   3.514   0.348  10.063 -0.2884 -0.5772  0.4585
   36POPC   H5Y 4870   3.663   0.410  10.004  1.1705  0.7170  1.0222
   36POPC   C36 4871   3.491   0.548   9.987  0.2616  0.1198  0.0542
   36POPC   H6X 4872   3.546   0.642   9.967  1.0897 -0.1497  1.0294
   36POPC   H6Y 4873   3.406   0.574  10.053  1.6028 -0.0425  1.9015
   36POPC   C37 4874   3.452   0.495   9.842 -0.3490  0.1839  0.3513
   36POPC   H7X 4875   3.358   0.436   9.850 -0.1962  0.0103  0.9046
   36POPC   H7Y 4876   3.538   0.432   9.810  1.3344  2.0860  1.0452
   36POPC   C38 4877   3.421   0.599   9.741 -0.3108 -0.7438  0.4187
   36POPC   H8X 4878   3.481   0.691   9.756 -0.3305 -1.0280  2.3764
   36POPC   H8Y 4879   3.325   0.655   9.745  1.0304  1.5313  1.5271
   36POPC   C39 4880   3.449   0.565   9.594  0.0078  0.6599 -0.2532
   36POPC   H9X 4881   3.382   0.484   9.558  1.4921  0.3527 -2.4177
   36POPC   H9Y 4882   3.553   0.526   9.584  0.3040  0.8903  1.8051
   36POPC  C310 4883   3.416   0.676   9.491 -0.0401  0.4482  0.1671
   36POPC  H10X 4884   3.479   0.766   9.505  0.5859  0.2815 -1.4674
   36POPC  H10Y 4885   3.314   0.716   9.513 -1.0878 -0.4856 -2.7255
   36POPC  C311 4886   3.410   0.631   9.341 -0.4570 -0.7451 -0.6432
   36POPC  H11X 4887   3.347   0.540   9.341 -2.6331  0.7431  0.1901
   36POPC  H11Y 4888   3.516   0.604   9.317 -0.1961  0.6934 -1.1380
   36POPC  C312 4889   3.362   0.739   9.242 -0.1301  0.0415  0.7558
   36POPC  H12X 4890   3.430   0.827   9.245  1.4590 -1.1842  0.6774
   36POPC  H12Y 4891   3.260   0.783   9.257 -0.3745  0.4594 -1.8575
   36POPC  C313 4892   3.345   0.678   9.101 -0.4825  0.2317  0.6580
   36POPC  H13X 4893   3.268   0.597   9.100  0.0456 -0.2761  1.1204
   36POPC  H13Y 4894   3.438   0.628   9.067 -0.7519 -0.4845  0.9576
   36POPC  C314 4895   3.313   0.784   8.991 -0.2470  1.0053 -0.7326
   36POPC  H14X 4896   3.206   0.814   8.999  0.1189  1.7210  2.1756
   36POPC  H14Y 4897   3.324   0.735   8.892  1.1117 -1.2149  0.4942
   36POPC  C315 4898   3.414   0.898   8.996 -0.0351  0.2154 -0.1321
   36POPC  H15X 4899   3.517   0.864   9.022 -0.5012 -0.4892  0.8007
   36POPC  H15Y 4900   3.383   0.967   9.077 -0.5854  0.3590 -0.4635
   36POPC  C316 4901   3.419   0.962   8.856 -0.3712  0.4776  0.4727
   36POPC  H16X 4902   3.317   0.984   8.818 -1.2387 -1.6007  1.5124
   36POPC  H16Y 4903   3.482   0.909   8.781 -1.4502  1.0053 -0.8173
   36POPC  H16Z 4904   3.470   1.057   8.881  2.3031 -1.2825  1.9688
   37POPC     N 4905   2.609   3.863   6.503 -0.5049  0.4311 -0.2756
   37POPC   C12 4906   2.549   3.921   6.630 -0.9621  0.5414  0.9163
   37POPC  H12A 4907   2.487   4.000   6.590  1.0924  1.4148 -0.5744
   37POPC  H12B 4908   2.624   3.980   6.681  0.4548 -2.3766  2.3616
   37POPC   C13 4909   2.502   3.827   6.406  0.4418  0.0696  0.2174
   37POPC  H13A 4910   2.548   3.777   6.323  3.7245  0.5523  1.6691
   37POPC  H13B 4911   2.436   3.749   6.441  1.9263 -0.7878  1.1621
   37POPC  H13C 4912   2.439   3.909   6.375  3.5406  2.8645  1.0738
   37POPC   C14 4913   2.696   3.966   6.443 -0.5989 -0.0742 -0.0361
   37POPC  H14A 4914   2.723   3.937   6.342 -0.8218  0.6554 -0.3039
   37POPC  H14B 4915   2.633   4.052   6.432  0.7732  0.8875 -0.5407
   37POPC  H14C 4916   2.793   3.977   6.490 -1.2182 -0.0793  1.2441
   37POPC   C15 4917   2.689   3.738   6.540  0.0299 -0.2019 -0.0518
   37POPC  H15A 4918   2.747   3.752   6.630 -3.7351 -0.7507  2.5717
   37POPC  H15B 4919   2.741   3.699   6.453 -2.0781 -1.8092 -0.6451
   37POPC  H15C 4920   2.617   3.669   6.582  0.1236  0.3818  1.0734
   37POPC   C11 4921   2.467   3.828   6.727  0.2409  0.5318 -0.0232
   37POPC  H11A 4922   2.440   3.888   6.817  0.2233  1.6062 -0.7372
   37POPC  H11B 4923   2.530   3.746   6.768  0.4571  1.7860  2.2960
   37POPC     P 4924   2.290   3.643   6.689 -0.1018  0.2747 -0.0797
   37POPC   O13 4925   2.257   3.578   6.554 -0.3032  0.2067 -0.6449
   37POPC   O14 4926   2.171   3.660   6.775  0.1824 -0.2745 -0.1983
   37POPC   O12 4927   2.353   3.786   6.656 -0.0382 -0.5099 -0.0029
   37POPC   O11 4928   2.397   3.563   6.772 -0.4177 -0.2006  0.1636
   37POPC    C1 4929   2.368   3.484   6.890 -0.0348 -0.1526 -0.4074
   37POPC    HA 4930   2.448   3.409   6.907  1.2609  1.7996  2.4746
   37POPC    HB 4931   2.273   3.431   6.870  0.8896 -2.4635  1.0636
   37POPC    C2 4932   2.378   3.562   7.024  0.5648  0.6022 -0.9015
   37POPC    HS 4933   2.289   3.627   7.023 -0.8686 -1.3180 -1.2423
   37POPC   O21 4934   2.494   3.651   7.018 -0.1168  0.6510 -0.3044
   37POPC   C21 4935   2.493   3.749   7.115  0.2283  0.2425  0.1165
   37POPC   O22 4936   2.395   3.772   7.186  0.3714  0.0326 -0.7658
   37POPC   C22 4937   2.623   3.833   7.118  0.4593 -0.0402  0.2856
   37POPC   H2R 4938   2.636   3.866   7.013  0.6882  1.7284  0.8486
   37POPC   H2S 4939   2.710   3.766   7.136 -1.5883 -2.7914  0.2106
   37POPC    C3 4940   2.367   3.465   7.150  0.1777  0.3455  0.4923
   37POPC    HX 4941   2.417   3.373   7.113  1.1092  1.1669 -0.3294
   37POPC    HY 4942   2.259   3.447   7.166  0.0341  0.4973 -0.3013
   37POPC   O31 4943   2.438   3.519   7.265  0.2076  0.7283  0.3156
   37POPC   C31 4944   2.370   3.525   7.385 -0.1312  0.0155  0.4170
   37POPC   O32 4945   2.261   3.484   7.404  0.8819 -0.7649 -0.6053
   37POPC   C32 4946   2.464   3.582   7.493 -0.2006  0.1454 -0.3729
   37POPC   H2X 4947   2.481   3.688   7.464 -0.7213  0.9517  2.0878
   37POPC   H2Y 4948   2.566   3.539   7.493 -1.1989 -2.4994  3.0443
   37POPC   C23 4949   2.621   3.951   7.207 -0.1025 -0.1386 -0.6689
   37POPC   H3R 4950   2.620   3.915   7.312  1.0367  2.9280  0.4469
   37POPC   H3S 4951   2.528   4.007   7.180 -0.0413  0.3491  0.1105
   37POPC   C24 4952   2.739   4.044   7.189 -0.1183  0.2728  0.9048
   37POPC   H4R 4953   2.728   4.140   7.244 -0.6088  1.0344 -0.5094
   37POPC   H4S 4954   2.748   4.065   7.080 -1.4585  0.2304  0.7793
   37POPC   C25 4955   2.870   3.985   7.246  0.2332 -0.4708 -0.3486
   37POPC   H5R 4956   2.953   4.053   7.219  1.1800 -2.3510 -2.3127
   37POPC   H5S 4957   2.886   3.883   7.204 -2.1273 -0.1341 -2.1269
   37POPC   C26 4958   2.875   3.975   7.403  0.1552 -0.5804 -0.1188
   37POPC   H6R 4959   2.807   3.901   7.449  0.2822  0.3296  1.5752
   37POPC   H6S 4960   2.851   4.070   7.455  2.0518 -1.2882  2.1826
   37POPC   C27 4961   3.015   3.944   7.443  1.0019  0.0529  0.5477
   37POPC   H7R 4962   3.065   4.043   7.449  1.3004  0.0368 -1.2574
   37POPC   H7S 4963   3.079   3.894   7.367  2.8188  2.6009  0.3582
   37POPC   C28 4964   3.019   3.882   7.583 -0.2155  0.1690 -0.3278
   37POPC   H8R 4965   2.953   3.944   7.647 -0.0063 -0.8122  0.8645
   37POPC   H8S 4966   3.127   3.895   7.608 -0.7354 -0.1262  2.2018
   37POPC   C29 4967   2.984   3.741   7.581  0.7263  0.4371  0.3809
   37POPC   H91 4968   3.003   3.693   7.484  0.5807  0.3189  0.4121
   37POPC  C210 4969   2.926   3.667   7.670  0.3120 -0.2971 -0.3795
   37POPC  H101 4970   2.911   3.559   7.653  0.1918 -0.3102 -0.1856
   37POPC  C211 4971   2.905   3.728   7.806 -0.3936 -0.0893 -0.1739
   37POPC  H11R 4972   2.834   3.660   7.858 -0.0088  0.8288  1.6048
   37POPC  H11S 4973   2.859   3.829   7.808 -0.6697 -0.2194  2.5443
   37POPC  C212 4974   3.038   3.726   7.886 -0.1695  0.1403 -0.4137
   37POPC  H12R 4975   3.098   3.809   7.842  0.5239  0.3346  0.8505
   37POPC  H12S 4976   3.107   3.639   7.886  0.1606  0.3921  0.3292
   37POPC  C213 4977   3.004   3.769   8.033 -0.7227  0.1696 -0.2799
   37POPC  H13R 4978   2.921   3.706   8.071  0.0699 -1.0832 -0.6105
   37POPC  H13S 4979   2.964   3.873   8.027  1.9368  1.3385  1.2881
   37POPC  C214 4980   3.117   3.739   8.130 -0.0197 -0.4804  0.2034
   37POPC  H14R 4981   3.206   3.801   8.106  1.2871 -2.2292  0.3940
   37POPC  H14S 4982   3.143   3.635   8.099 -1.2118 -0.8858  0.5325
   37POPC  C215 4983   3.091   3.748   8.276  0.2364 -0.2561 -0.8447
   37POPC  H15R 4984   3.002   3.686   8.299  0.0069 -0.0447 -1.1523
   37POPC  H15S 4985   3.062   3.856   8.280 -0.1360 -0.3856  0.0151
   37POPC  C216 4986   3.202   3.714   8.370 -0.0057  0.3316  0.2220
   37POPC  H16R 4987   3.175   3.758   8.469  0.0223 -0.9310  0.7991
   37POPC  H16S 4988   3.293   3.764   8.330 -0.2290 -1.2313 -2.3573
   37POPC  C217 4989   3.235   3.565   8.374  0.4871  0.4690  0.1713
   37POPC  H17R 4990   3.239   3.520   8.272 -0.3833  0.1573  0.2771
   37POPC  H17S 4991   3.171   3.501   8.437  0.9240  0.7044  0.8611
   37POPC  C218 4992   3.380   3.559   8.415  0.4392  0.1171 -0.0156
   37POPC  H18R 4993   3.435   3.632   8.352 -0.5835  0.2562 -0.7724
   37POPC  H18S 4994   3.431   3.461   8.400 -1.3717 -0.4265 -3.2263
   37POPC  H18T 4995   3.383   3.605   8.516  0.2405  1.1165 -0.4603
   37POPC   C33 4996   2.413   3.583   7.641  0.2910 -0.1244 -0.1018
   37POPC   H3X 4997   2.394   3.479   7.673  0.7482 -0.8624 -2.1229
   37POPC   H3Y 4998   2.312   3.630   7.643 -1.0925 -2.9119 -1.3806
   37POPC   C34 4999   2.514   3.659   7.738 -0.3028  0.1351  0.5905
   37POPC   H4X 5000   2.613   3.610   7.728 -0.6145 -0.6402  1.1925
   37POPC   H4Y 5001   2.476   3.655   7.842 -0.6738  0.5092  0.4698
   37POPC   C35 5002   2.520   3.807   7.708  0.6156  0.1848  0.6145
   37POPC   H5X 5003   2.570   3.808   7.608  0.2057  2.5152  0.3965
   37POPC   H5Y 5004   2.583   3.856   7.785 -0.0652 -0.1949  1.4116
   37POPC   C36 5005   2.393   3.883   7.711 -0.4490  0.1131  0.0352
   37POPC   H6X 5006   2.329   3.852   7.797 -0.8474 -1.1942 -0.7112
   37POPC   H6Y 5007   2.333   3.854   7.622 -0.6767 -0.8254  0.4844
   37POPC   C37 5008   2.416   4.029   7.702  0.7627  0.7751 -0.9031
   37POPC   H7X 5009   2.459   4.064   7.799  1.4782  2.0384 -1.6639
   37POPC   H7Y 5010   2.315   4.070   7.682  0.1024 -0.4910 -0.2660
   37POPC   C38 5011   2.519   4.083   7.595  0.2903 -0.1247 -0.1700
   37POPC   H8X 5012   2.486   4.052   7.494 -0.5967 -0.2313  0.1416
   37POPC   H8Y 5013   2.616   4.034   7.619 -0.6054 -1.7051  0.3128
   37POPC   C39 5014   2.531   4.238   7.592  0.4758  0.5099 -0.4942
   37POPC   H9X 5015   2.547   4.275   7.695  0.6748 -0.3626 -0.2024
   37POPC   H9Y 5016   2.427   4.270   7.568  0.1282  0.4677  0.9162
   37POPC  C310 5017   2.631   4.303   7.500  0.6731  0.9953  0.0173
   37POPC  H10X 5018   2.612   4.274   7.395  2.9323  2.2465 -0.7845
   37POPC  H10Y 5019   2.729   4.270   7.540  0.7299  2.1712  0.8687
   37POPC  C311 5020   2.637   4.461   7.513 -0.0030 -0.7271  0.1382
   37POPC  H11X 5021   2.678   4.478   7.615  1.3033  0.1835 -0.5355
   37POPC  H11Y 5022   2.532   4.497   7.514  0.1963 -0.1160 -1.2085
   37POPC  C312 5023   2.726   4.539   7.413  0.7027  0.3272 -0.2257
   37POPC  H12X 5024   2.828   4.497   7.418  0.4036 -0.3027  0.9150
   37POPC  H12Y 5025   2.732   4.647   7.439 -0.0005  1.2873 -3.8446
   37POPC  C313 5026   2.684   4.529   7.269  0.3540  0.4038 -0.9004
   37POPC  H13X 5027   2.657   4.425   7.244 -2.4908  1.4359 -2.3755
   37POPC  H13Y 5028   2.771   4.550   7.203  2.7163 -1.2179  1.5915
   37POPC  C314 5029   2.580   4.642   7.230  0.0021  0.3357 -0.0915
   37POPC  H14X 5030   2.597   4.730   7.295  1.2246  0.5650 -0.7175
   37POPC  H14Y 5031   2.474   4.615   7.253 -0.0495 -0.4409 -1.2228
   37POPC  C315 5032   2.589   4.689   7.087  0.3100 -0.2103  0.1779
   37POPC  H15X 5033   2.686   4.743   7.080  1.8578 -2.4589  3.1194
   37POPC  H15Y 5034   2.506   4.762   7.069 -1.5582 -2.7511 -1.8571
   37POPC  C316 5035   2.580   4.581   6.985  0.6547 -0.1243 -0.1099
   37POPC  H16X 5036   2.486   4.522   6.993  0.8453 -0.3193  0.7354
   37POPC  H16Y 5037   2.663   4.508   6.994 -0.4771 -1.2610  1.3389
   37POPC  H16Z 5038   2.599   4.614   6.880  0.1456  2.3144  0.5480
   38POPC     N 5039   4.610   0.604   6.217 -0.0275 -0.0645 -0.4156
   38POPC   C12 5040   4.510   0.583   6.329  0.7423 -0.1016  0.3029
   38POPC  H12A 5041   4.412   0.596   6.285 -0.6572 -2.9786  2.3953
   38POPC  H12B 5042   4.522   0.658   6.406 -0.7323 -2.1429  2.5909
   38POPC   C13 5043   4.579   0.509   6.104  0.3695 -0.0804  0.1762
   38POPC  H13A 5044   4.594   0.405   6.128 -1.9910 -0.8363 -1.4358
   38POPC  H13B 5045   4.479   0.511   6.063  1.3996  0.7872 -2.4050
   38POPC  H13C 5046   4.652   0.523   6.025  0.7530  0.0736  0.5534
   38POPC   C14 5047   4.615   0.750   6.179  0.5155 -0.3731  0.5012
   38POPC  H14A 5048   4.683   0.766   6.096 -0.5766  1.6878 -0.0153
   38POPC  H14B 5049   4.520   0.787   6.144  0.4993  0.0767  1.0214
   38POPC  H14C 5050   4.646   0.808   6.264  1.4733 -0.5336  0.2651
   38POPC   C15 5051   4.744   0.572   6.266 -0.8119  0.3028  0.1568
   38POPC  H15A 5052   4.758   0.469   6.296  3.1767  1.0937  1.3761
   38POPC  H15B 5053   4.763   0.638   6.350  2.7791  1.1512 -1.2140
   38POPC  H15C 5054   4.812   0.601   6.187 -0.1783  2.2654  1.3618
   38POPC   C11 5055   4.512   0.447   6.405  0.6526  0.0725 -0.5017
   38POPC  H11A 5056   4.454   0.469   6.497  1.3992  1.9405 -0.4679
   38POPC  H11B 5057   4.610   0.424   6.453 -0.7402  1.1292  3.0389
   38POPC     P 5058   4.314   0.303   6.318 -0.7151  0.4505  0.3289
   38POPC   O13 5059   4.302   0.168   6.251 -0.3281  0.0930 -0.1063
   38POPC   O14 5060   4.241   0.414   6.256  0.1707 -0.3422  0.0761
   38POPC   O12 5061   4.472   0.331   6.333  0.3446 -0.1356  0.4571
   38POPC   O11 5062   4.265   0.282   6.464  0.0479 -0.4641  0.3361
   38POPC    C1 5063   4.333   0.205   6.558  1.0702  0.1086  0.9737
   38POPC    HA 5064   4.320   0.247   6.660  0.3980 -0.9179  1.3116
   38POPC    HB 5065   4.443   0.202   6.539  1.0260  0.0635  0.7229
   38POPC    C2 5066   4.268   0.065   6.561  0.1344 -0.7479 -0.1393
   38POPC    HS 5067   4.223   0.036   6.464 -2.9480 -2.2890  1.6930
   38POPC   O21 5068   4.163   0.063   6.660  0.4446  0.4288  0.2955
   38POPC   C21 5069   4.067  -0.032   6.639  0.2072 -0.1452 -0.0687
   38POPC   O22 5070   4.059  -0.102   6.537 -0.1055 -0.1827  0.1912
   38POPC   C22 5071   3.948  -0.026   6.736  0.3058  0.0123 -0.2680
   38POPC   H2R 5072   3.927  -0.123   6.785  1.6557  0.1954  0.6858
   38POPC   H2S 5073   3.858   0.015   6.683  0.1914 -1.3435 -1.1448
   38POPC    C3 5074   4.371  -0.051   6.588  0.0728 -0.4005 -0.2653
   38POPC    HX 5075   4.441  -0.038   6.502  0.0104  2.1256  0.0068
   38POPC    HY 5076   4.325  -0.150   6.608  0.4939 -0.4052  0.6767
   38POPC   O31 5077   4.454  -0.021   6.702 -0.2083  0.1350 -0.1087
   38POPC   C31 5078   4.402  -0.063   6.817  0.3723 -0.7061 -0.5728
   38POPC   O32 5079   4.294  -0.109   6.840 -0.4475  0.0492  0.0467
   38POPC   C32 5080   4.510  -0.065   6.925  0.2896 -0.6026  0.4755
   38POPC   H2X 5081   4.605  -0.097   6.878 -1.5973 -2.8733 -1.9382
   38POPC   H2Y 5082   4.480  -0.146   6.995 -1.4058  0.4296  0.9886
   38POPC   C23 5083   3.978   0.077   6.858  0.0069  0.2986 -0.2185
   38POPC   H3R 5084   3.979   0.178   6.812 -2.1794 -0.2196 -1.5102
   38POPC   H3S 5085   4.076   0.049   6.901 -0.4878 -0.8915  0.1469
   38POPC   C24 5086   3.878   0.071   6.969 -0.1266  0.2897 -0.1962
   38POPC   H4R 5087   3.891  -0.033   7.007 -0.6799 -0.0780 -1.0163
   38POPC   H4S 5088   3.781   0.081   6.917 -0.8027  1.4093  1.2503
   38POPC   C25 5089   3.895   0.175   7.086 -0.4041 -0.1270 -0.2612
   38POPC   H5R 5090   3.878   0.276   7.041  1.5577  0.0149 -0.7421
   38POPC   H5S 5091   3.995   0.169   7.133 -0.4208  3.2137  0.3542
   38POPC   C26 5092   3.793   0.162   7.204 -0.0461  0.3235  0.0554
   38POPC   H6R 5093   3.795   0.057   7.239  0.0739 -0.0214 -0.9499
   38POPC   H6S 5094   3.687   0.186   7.179 -0.9686 -2.1891  1.3720
   38POPC   C27 5095   3.831   0.248   7.321 -0.2589  0.1819 -0.8216
   38POPC   H7R 5096   3.805   0.355   7.305  1.2985  0.6686 -0.1786
   38POPC   H7S 5097   3.942   0.249   7.316 -0.2855  1.3797 -1.3175
   38POPC   C28 5098   3.772   0.189   7.450 -0.1487  0.0017 -0.1581
   38POPC   H8R 5099   3.671   0.151   7.422 -0.1193 -0.0688 -0.1681
   38POPC   H8S 5100   3.758   0.269   7.526  0.9784 -1.0555  1.1706
   38POPC   C29 5101   3.852   0.074   7.515 -0.3265 -0.3671  0.4133
   38POPC   H91 5102   3.853  -0.010   7.445  3.0520  0.2951 -0.4311
   38POPC  C210 5103   3.924   0.070   7.627 -0.1596 -0.3127  0.1271
   38POPC  H101 5104   3.973  -0.026   7.647 -0.1648  0.1664  2.6218
   38POPC  C211 5105   3.933   0.187   7.726 -0.0196 -0.7189 -0.4987
   38POPC  H11R 5106   3.876   0.277   7.695  0.4552  0.7851  2.8271
   38POPC  H11S 5107   4.036   0.220   7.747  0.1369 -0.0041 -2.3174
   38POPC  C212 5108   3.878   0.139   7.859 -0.5210 -0.0734  0.8134
   38POPC  H12R 5109   3.944   0.056   7.893  2.4003  1.2287 -1.4063
   38POPC  H12S 5110   3.773   0.105   7.857 -0.1046 -1.3434  0.2447
   38POPC  C213 5111   3.893   0.231   7.981 -0.1816  0.9394 -1.1322
   38POPC  H13R 5112   3.814   0.309   7.988 -1.7973 -0.7448 -0.3326
   38POPC  H13S 5113   3.996   0.272   7.969  0.8157 -1.2984 -0.5008
   38POPC  C214 5114   3.892   0.159   8.118 -0.1140  0.2640 -0.2994
   38POPC  H14R 5115   3.943   0.229   8.188 -2.6249  1.9339 -0.1015
   38POPC  H14S 5116   3.956   0.068   8.108  1.0882  1.2445 -1.9236
   38POPC  C215 5117   3.752   0.123   8.158 -0.4407  0.5739  0.2074
   38POPC  H15R 5118   3.686   0.077   8.082 -1.0579 -0.1260  1.1482
   38POPC  H15S 5119   3.704   0.218   8.189 -0.6838  0.5093  0.0262
   38POPC  C216 5120   3.757   0.034   8.283  0.3335  0.4310 -0.4747
   38POPC  H16R 5121   3.845   0.058   8.346 -0.9175 -0.4140  1.6476
   38POPC  H16S 5122   3.767  -0.075   8.262 -1.5240  0.0723  0.4752
   38POPC  C217 5123   3.621   0.047   8.357  0.1181 -0.3033  0.0061
   38POPC  H17R 5124   3.536   0.033   8.286  2.3398 -1.0852 -2.5977
   38POPC  H17S 5125   3.615   0.146   8.406 -1.3831 -0.8508  0.9679
   38POPC  C218 5126   3.601  -0.065   8.466 -0.1406 -0.1330  0.2056
   38POPC  H18R 5127   3.494  -0.086   8.485  0.6081 -3.1593  1.4822
   38POPC  H18S 5128   3.647  -0.027   8.560 -0.8883  0.3952  0.3616
   38POPC  H18T 5129   3.647  -0.160   8.432 -1.6247  0.1828 -2.7889
   38POPC   C33 5130   4.518   0.071   6.997 -0.1489  0.3959  0.7410
   38POPC   H3X 5131   4.421   0.115   7.029 -1.1527 -0.1199 -1.4986
   38POPC   H3Y 5132   4.554   0.142   6.919  0.0003  0.3521  0.7707
   38POPC   C34 5133   4.621   0.081   7.110  0.2542  0.1677 -1.1606
   38POPC   H4X 5134   4.614   0.183   7.153  1.1165  0.2109 -1.1103
   38POPC   H4Y 5135   4.729   0.065   7.089  0.0739 -0.1586 -1.8407
   38POPC   C35 5136   4.586  -0.014   7.225  0.3869  0.7369  0.4251
   38POPC   H5X 5137   4.631  -0.114   7.205 -2.0527 -0.1628 -0.7963
   38POPC   H5Y 5138   4.476  -0.019   7.241  0.1572  0.2443 -1.2203
   38POPC   C36 5139   4.650   0.029   7.359  0.0015 -0.5255 -0.3271
   38POPC   H6X 5140   4.601   0.120   7.399 -0.3629 -1.2175  0.8456
   38POPC   H6Y 5141   4.752   0.069   7.339  0.1706 -0.7047  0.1618
   38POPC   C37 5142   4.648  -0.078   7.476 -0.3962  0.2221  0.6378
   38POPC   H7X 5143   4.670  -0.183   7.447 -2.2667 -0.8977  3.0666
   38POPC   H7Y 5144   4.545  -0.087   7.518  0.4674  0.2048  2.8206
   38POPC   C38 5145   4.755  -0.046   7.581 -0.0239 -1.0423  0.1445
   38POPC   H8X 5146   4.746   0.056   7.625  0.4480 -1.1260  0.4394
   38POPC   H8Y 5147   4.856  -0.054   7.534  0.7274  0.2191  1.4945
   38POPC   C39 5148   4.749  -0.136   7.702  0.6410  0.1328  0.4423
   38POPC   H9X 5149   4.750  -0.243   7.671  1.4342  0.8298 -2.0931
   38POPC   H9Y 5150   4.659  -0.109   7.761 -0.2678 -0.9280 -0.4477
   38POPC  C310 5151   4.869  -0.116   7.796 -0.0848 -0.2755 -0.7565
   38POPC  H10X 5152   4.866  -0.010   7.829 -2.9508 -0.6286  0.2833
   38POPC  H10Y 5153   4.964  -0.126   7.740  0.6614  0.6574  0.3216
   38POPC  C311 5154   4.865  -0.209   7.914 -0.8574 -0.7254  0.3572
   38POPC  H11X 5155   4.832  -0.306   7.871 -0.0147 -1.6314  1.6918
   38POPC  H11Y 5156   4.778  -0.179   7.976 -0.6759  0.0613  0.2363
   38POPC  C312 5157   4.990  -0.218   8.001  0.1719  0.2240 -0.4223
   38POPC  H12X 5158   5.022  -0.115   8.030  0.9217 -0.3665  0.8909
   38POPC  H12Y 5159   5.078  -0.248   7.940  0.9366  0.7416  0.4028
   38POPC  C313 5160   4.984  -0.299   8.127  0.0411 -0.1495 -0.5723
   38POPC  H13X 5161   4.919  -0.245   8.198  0.0748 -1.6611  0.6254
   38POPC  H13Y 5162   5.087  -0.288   8.167  0.4463  2.4861 -2.1682
   38POPC  C314 5163   4.947  -0.442   8.116 -0.7281  0.9532 -0.6894
   38POPC  H14X 5164   4.973  -0.487   8.018 -1.9310 -1.0993 -0.0951
   38POPC  H14Y 5165   4.839  -0.457   8.136 -0.8065  2.3879  0.0403
   38POPC  C315 5166   5.021  -0.534   8.211  0.0146 -0.2436 -0.0248
   38POPC  H15X 5167   5.120  -0.547   8.163 -0.6000 -0.2029 -1.3562
   38POPC  H15Y 5168   4.970  -0.632   8.198 -1.6964  0.7507 -1.0757
   38POPC  C316 5169   5.025  -0.490   8.357  0.2145  1.5174 -0.3648
   38POPC  H16X 5170   5.029  -0.579   8.422 -0.8698  1.2324 -0.6649
   38POPC  H16Y 5171   4.937  -0.423   8.370 -1.8216 -0.5362 -3.0063
   38POPC  H16Z 5172   5.112  -0.422   8.373  0.7629  0.8277 -0.4177
   39POPC     N 5173   0.477   3.860   6.016 -0.1969 -0.1445 -0.4806
   39POPC   C12 5174   0.467   4.011   6.013 -0.0573 -0.4378 -0.2432
   39POPC  H12A 5175   0.413   4.039   6.103 -2.8602 -0.1999 -1.9620
   39POPC  H12B 5176   0.412   4.033   5.924 -1.7549 -1.6574  0.4914
   39POPC   C13 5177   0.533   3.823   6.148  0.6184  0.3427 -0.2291
   39POPC  H13A 5178   0.553   3.717   6.145  0.6927  0.3863 -3.0653
   39POPC  H13B 5179   0.631   3.868   6.159  1.0665 -0.9775  1.4052
   39POPC  H13C 5180   0.468   3.842   6.232  0.2677 -3.6180  0.4825
   39POPC   C14 5181   0.343   3.801   5.985  0.8225 -0.2795 -0.4751
   39POPC  H14A 5182   0.353   3.696   6.009  0.5337 -0.2552 -0.2336
   39POPC  H14B 5183   0.265   3.850   6.042 -0.3281 -1.6626 -0.8128
   39POPC  H14C 5184   0.331   3.797   5.878 -0.0762  0.8444 -0.4212
   39POPC   C15 5185   0.571   3.811   5.912 -0.2093 -0.1573 -0.6865
   39POPC  H15A 5186   0.581   3.705   5.931 -0.2603 -0.3782 -1.8724
   39POPC  H15B 5187   0.663   3.866   5.922 -2.0252  2.5618  1.9666
   39POPC  H15C 5188   0.524   3.824   5.815 -1.7270  1.7819  0.2618
   39POPC   C11 5189   0.599   4.102   6.002 -0.8415  0.5103 -0.3180
   39POPC  H11A 5190   0.568   4.207   6.018 -0.5659  0.2523  1.9617
   39POPC  H11B 5191   0.643   4.089   5.900  0.9395 -1.5943  0.6830
   39POPC     P 5192   0.831   4.153   6.110  0.0795  0.0281 -0.3948
   39POPC   O13 5193   0.800   4.295   6.078 -0.2729 -0.1959  0.6160
   39POPC   O14 5194   0.946   4.085   6.043  0.2313  0.5791  0.3150
   39POPC   O12 5195   0.701   4.059   6.098 -0.0920 -0.1055  0.3233
   39POPC   O11 5196   0.862   4.143   6.271  0.5150  0.0438  0.0587
   39POPC    C1 5197   0.859   4.021   6.342  1.2313  0.2958 -0.0837
   39POPC    HA 5198   0.910   3.940   6.285  0.2674 -1.3052  1.2824
   39POPC    HB 5199   0.756   3.979   6.342  0.2047  2.7181 -0.1223
   39POPC    C2 5200   0.894   4.023   6.493 -0.1450 -0.1191 -0.0730
   39POPC    HS 5201   0.924   3.921   6.526  1.8094  0.2962 -0.4984
   39POPC   O21 5202   0.797   4.085   6.577 -0.2852  0.1751 -0.9097
   39POPC   C21 5203   0.767   4.038   6.699 -0.3150  0.1257 -1.1366
   39POPC   O22 5204   0.821   3.941   6.748  0.1648 -0.3615 -0.6909
   39POPC   C22 5205   0.659   4.127   6.764 -1.1116  0.9142 -0.3074
   39POPC   H2R 5206   0.566   4.081   6.726 -0.7926 -0.1428  0.1536
   39POPC   H2S 5207   0.659   4.224   6.709  0.1470  0.4663 -1.1246
   39POPC    C3 5208   1.019   4.110   6.511  0.1260 -0.0861  0.5749
   39POPC    HX 5209   0.988   4.216   6.527 -1.2440 -0.2613 -0.7913
   39POPC    HY 5210   1.082   4.102   6.420 -0.1381 -1.5004  0.5053
   39POPC   O31 5211   1.108   4.058   6.604 -0.4116  0.5513  0.3726
   39POPC   C31 5212   1.100   4.110   6.723  0.4029  0.2430 -0.0576
   39POPC   O32 5213   1.027   4.204   6.756  0.0009 -0.9080  0.6882
   39POPC   C32 5214   1.222   4.049   6.807  0.6556 -0.5984  0.3910
   39POPC   H2X 5215   1.234   3.945   6.768 -0.6155 -1.5361  2.4369
   39POPC   H2Y 5216   1.313   4.109   6.790 -0.0294 -0.3188 -2.5881
   39POPC   C23 5217   0.652   4.137   6.918 -0.2717 -0.7265  0.8582
   39POPC   H3R 5218   0.650   4.242   6.954 -0.1122 -1.0669  1.9015
   39POPC   H3S 5219   0.741   4.084   6.958 -1.5285 -3.3999  0.1888
   39POPC   C24 5220   0.532   4.065   6.979  0.7868 -0.5301 -0.2321
   39POPC   H4R 5221   0.474   4.018   6.897 -0.4270  1.1140 -0.3349
   39POPC   H4S 5222   0.467   4.146   7.018  1.3113  1.5879 -3.4921
   39POPC   C25 5223   0.564   3.971   7.087 -0.2012  0.4685  0.3062
   39POPC   H5R 5224   0.642   4.016   7.152  0.5046  2.9824 -2.2025
   39POPC   H5S 5225   0.607   3.881   7.038 -1.1133  1.8881 -3.2484
   39POPC   C26 5226   0.442   3.933   7.167 -0.4294 -0.3291  0.0928
   39POPC   H6R 5227   0.353   3.913   7.103 -1.1993  1.8262  0.4276
   39POPC   H6S 5228   0.404   4.020   7.224  1.0521 -1.0172  2.1682
   39POPC   C27 5229   0.460   3.820   7.264  0.3902  0.2824  0.2097
   39POPC   H7R 5230   0.505   3.732   7.214  2.5477  0.3659  1.9329
   39POPC   H7S 5231   0.363   3.782   7.303  0.8569  0.4893  1.6088
   39POPC   C28 5232   0.556   3.846   7.377 -0.8368 -0.1394 -0.1734
   39POPC   H8R 5233   0.655   3.882   7.343 -0.0928 -0.8826  1.1635
   39POPC   H8S 5234   0.594   3.751   7.421 -0.9943 -0.0260  0.2056
   39POPC   C29 5235   0.506   3.929   7.499 -0.0999 -1.1341  0.1309
   39POPC   H91 5236   0.494   4.035   7.476 -3.2947 -1.4471  0.1958
   39POPC  C210 5237   0.482   3.893   7.620 -0.6331 -0.2328 -0.1934
   39POPC  H101 5238   0.459   3.972   7.693 -2.3267 -2.1258  1.3944
   39POPC  C211 5239   0.494   3.754   7.686  0.5396 -0.5270  0.1178
   39POPC  H11R 5240   0.548   3.676   7.629 -1.3434 -1.1904 -0.7876
   39POPC  H11S 5241   0.388   3.727   7.704  0.8796 -2.3732 -0.5085
   39POPC  C212 5242   0.591   3.765   7.812 -0.1842  0.1675 -0.0626
   39POPC  H12R 5243   0.556   3.856   7.864  2.0983  1.6079 -0.9692
   39POPC  H12S 5244   0.697   3.777   7.780 -0.5300 -0.9465 -1.7058
   39POPC  C213 5245   0.559   3.649   7.903 -0.7669 -0.9703  0.6028
   39POPC  H13R 5246   0.608   3.559   7.858  0.3743 -0.8004  1.4852
   39POPC  H13S 5247   0.450   3.629   7.907 -0.6347 -2.0007 -0.5875
   39POPC  C214 5248   0.607   3.663   8.052 -0.1649  0.1589 -0.4496
   39POPC  H14R 5249   0.712   3.690   8.031 -0.5045  1.0593 -1.0090
   39POPC  H14S 5250   0.597   3.563   8.101 -1.1997  0.7002  0.4710
   39POPC  C215 5251   0.541   3.767   8.137  0.4461 -0.0203 -0.4504
   39POPC  H15R 5252   0.444   3.741   8.184 -0.3388  0.3552 -1.8390
   39POPC  H15S 5253   0.508   3.858   8.084  0.8833 -0.6694 -1.8690
   39POPC  C216 5254   0.626   3.811   8.262  0.0503  0.0761  0.0265
   39POPC  H16R 5255   0.666   3.718   8.308  0.2806  0.3581  0.4017
   39POPC  H16S 5256   0.562   3.855   8.342  0.9120  1.3631  0.0203
   39POPC  C217 5257   0.749   3.899   8.225 -0.5714 -0.2595 -0.8005
   39POPC  H17R 5258   0.829   3.843   8.171  1.9403  2.8418 -0.4518
   39POPC  H17S 5259   0.799   3.913   8.324  0.1161 -0.9223 -1.0421
   39POPC  C218 5260   0.730   4.038   8.170 -0.0548 -0.0652 -0.1529
   39POPC  H18R 5261   0.661   4.104   8.226  1.0742  0.8450  0.1890
   39POPC  H18S 5262   0.691   4.018   8.067  0.9575 -1.2267 -0.3203
   39POPC  H18T 5263   0.831   4.083   8.178 -0.8482  1.9995 -1.2846
   39POPC   C33 5264   1.192   4.030   6.955 -0.3473 -0.5386 -0.0434
   39POPC   H3X 5265   1.138   4.113   7.006 -0.5378  1.2332 -3.0422
   39POPC   H3Y 5266   1.289   4.014   7.008 -0.7588 -0.3728  0.7820
   39POPC   C34 5267   1.115   3.903   6.985  0.0674 -0.0706 -0.2102
   39POPC   H4X 5268   1.155   3.816   6.929 -1.1159 -0.1248 -0.9803
   39POPC   H4Y 5269   1.013   3.918   6.945 -0.0145  0.1709  0.0890
   39POPC   C35 5270   1.116   3.870   7.136  0.4494  0.8658 -0.4059
   39POPC   H5X 5271   1.049   3.782   7.145  0.7767  0.5176 -1.2892
   39POPC   H5Y 5272   1.075   3.959   7.189  1.7292  0.7957  0.7418
   39POPC   C36 5273   1.251   3.839   7.201  0.7565  0.6595  0.1642
   39POPC   H6X 5274   1.312   3.922   7.242  3.8443 -1.4591  0.0367
   39POPC   H6Y 5275   1.312   3.791   7.122  1.0133 -1.6167  1.6964
   39POPC   C37 5276   1.235   3.725   7.308 -0.6303 -0.4719 -0.3363
   39POPC   H7X 5277   1.189   3.637   7.260 -1.9947  0.0148  0.0590
   39POPC   H7Y 5278   1.153   3.751   7.378  1.0639 -0.8241  1.8297
   39POPC   C38 5279   1.363   3.690   7.382 -0.1388  0.9424  0.2312
   39POPC   H8X 5280   1.450   3.733   7.327  0.3864  1.9070  1.7798
   39POPC   H8Y 5281   1.378   3.582   7.399 -1.8789  0.7934  0.9785
   39POPC   C39 5282   1.353   3.756   7.524 -0.2639 -0.3363  0.4244
   39POPC   H9X 5283   1.304   3.856   7.525  0.5118  0.0594  2.2385
   39POPC   H9Y 5284   1.460   3.777   7.543 -0.1049  1.1561 -2.0201
   39POPC  C310 5285   1.284   3.671   7.630 -0.0181  0.9635  0.2060
   39POPC  H10X 5286   1.347   3.582   7.652  0.8074  1.8037  1.3254
   39POPC  H10Y 5287   1.180   3.649   7.596  0.0582  2.0586 -0.7483
   39POPC  C311 5288   1.295   3.751   7.766  0.4481  0.4845 -0.3038
   39POPC  H11X 5289   1.261   3.856   7.753 -3.5942 -0.7004  0.1025
   39POPC  H11Y 5290   1.403   3.771   7.782  0.1887  0.3554  1.7286
   39POPC  C312 5291   1.220   3.697   7.886  0.5657  0.1507 -0.1134
   39POPC  H12X 5292   1.184   3.594   7.864 -0.3440 -0.0385  2.1588
   39POPC  H12Y 5293   1.129   3.761   7.883  1.7157  1.7997 -0.8221
   39POPC  C313 5294   1.288   3.702   8.024 -0.4177  0.4761 -0.6035
   39POPC  H13X 5295   1.318   3.803   8.059  0.8846  0.3528 -1.3312
   39POPC  H13Y 5296   1.380   3.642   8.005 -1.0516 -0.7977  0.2824
   39POPC  C314 5297   1.213   3.620   8.129  0.3590  0.0428  0.7481
   39POPC  H14X 5298   1.265   3.592   8.223 -1.1122  1.6380  2.0598
   39POPC  H14Y 5299   1.169   3.529   8.082 -0.7525  1.0466 -0.1940
   39POPC  C315 5300   1.096   3.707   8.177 -0.5796 -0.1743  0.3173
   39POPC  H15X 5301   1.027   3.715   8.090 -1.2820 -1.0382  0.8012
   39POPC  H15Y 5302   1.143   3.804   8.206 -1.5257  1.0130 -1.9405
   39POPC  C316 5303   1.016   3.645   8.298  0.2504  0.0275  0.6075
   39POPC  H16X 5304   0.969   3.550   8.267 -0.7387  0.3928  0.9345
   39POPC  H16Y 5305   0.933   3.711   8.333  0.3556 -0.1925  1.2700
   39POPC  H16Z 5306   1.081   3.630   8.387  2.3654  2.5523 -0.4304
   40POPC     N 5307   6.797   1.517   6.446 -0.2127 -0.3689 -0.3283
   40POPC   C12 5308   6.815   1.363   6.436 -0.7127  0.5455 -0.0928
   40POPC  H12A 5309   6.740   1.301   6.484  1.5738 -1.9162  0.3735
   40POPC  H12B 5310   6.912   1.336   6.473 -0.2819 -0.9858 -2.2465
   40POPC   C13 5311   6.684   1.571   6.370 -0.2563 -0.0865 -0.2547
   40POPC  H13A 5312   6.590   1.530   6.405 -1.6675  2.7320 -0.5739
   40POPC  H13B 5313   6.675   1.679   6.379  2.0142  0.0452  0.8170
   40POPC  H13C 5314   6.695   1.553   6.264 -1.2809 -1.4585 -0.1315
   40POPC   C14 5315   6.771   1.568   6.588 -0.0745  0.2906  0.4465
   40POPC  H14A 5316   6.719   1.500   6.654 -0.7386  0.9305  0.5889
   40POPC  H14B 5317   6.864   1.582   6.641  1.1001  0.2008 -1.5384
   40POPC  H14C 5318   6.725   1.665   6.590  0.9029  0.7601  0.2947
   40POPC   C15 5319   6.918   1.592   6.396  0.0860 -0.1555  0.0795
   40POPC  H15A 5320   7.001   1.580   6.463  0.5489  2.2044 -0.0271
   40POPC  H15B 5321   6.899   1.698   6.382  3.3869  0.5629  0.7029
   40POPC  H15C 5322   6.944   1.561   6.296 -1.5591 -1.0087 -0.1006
   40POPC   C11 5323   6.827   1.317   6.288 -0.3618  0.1982  0.5639
   40POPC  H11A 5324   6.900   1.378   6.232  0.4948 -1.1641  0.1886
   40POPC  H11B 5325   6.731   1.335   6.236 -0.5222 -1.7536  0.1438
   40POPC     P 5326   7.004   1.131   6.298 -0.5282  0.4149  0.0118
   40POPC   O13 5327   7.083   1.223   6.215 -0.2976 -0.3857  0.0368
   40POPC   O14 5328   7.022   0.983   6.280 -0.8684  0.1753 -0.0747
   40POPC   O12 5329   6.853   1.174   6.288 -0.0409  0.2072 -0.4513
   40POPC   O11 5330   7.027   1.164   6.457  0.0040 -0.3641 -0.2327
   40POPC    C1 5331   6.951   1.085   6.550 -0.1181  0.0077  0.1650
   40POPC    HA 5332   7.011   0.993   6.565 -0.0935 -0.1284 -0.7535
   40POPC    HB 5333   6.847   1.065   6.515  0.3367 -2.8934  0.4045
   40POPC    C2 5334   6.947   1.156   6.687  0.2488  0.5058 -0.0342
   40POPC    HS 5335   6.926   1.265   6.679 -1.5686  0.0668 -1.6773
   40POPC   O21 5336   7.067   1.125   6.761 -0.5072 -0.1589 -0.0257
   40POPC   C21 5337   7.122   1.226   6.827 -0.1306 -0.1103  0.6065
   40POPC   O22 5338   7.088   1.343   6.820  0.2993  0.3987 -0.0229
   40POPC   C22 5339   7.250   1.179   6.901  0.6484 -0.4761  0.1904
   40POPC   H2R 5340   7.322   1.151   6.821 -1.7918 -1.0591 -1.8610
   40POPC   H2S 5341   7.209   1.092   6.956 -1.1355  1.0847  1.3801
   40POPC    C3 5342   6.825   1.089   6.759  0.0008 -0.6314  1.8867
   40POPC    HX 5343   6.858   0.988   6.792 -1.3394 -0.5420  3.5493
   40POPC    HY 5344   6.734   1.076   6.696  1.3197  0.5629 -0.3484
   40POPC   O31 5345   6.803   1.149   6.881 -0.3715 -0.3015 -0.0758
   40POPC   C31 5346   6.710   1.246   6.884 -1.0328  0.4143 -0.1389
   40POPC   O32 5347   6.643   1.278   6.785 -0.3086 -0.1160 -0.3050
   40POPC   C32 5348   6.693   1.301   7.026 -0.0259  1.0953  0.5652
   40POPC   H2X 5349   6.598   1.262   7.067  1.7487 -0.7984  2.9818
   40POPC   H2Y 5350   6.699   1.412   7.025  1.4310  1.0354  0.4497
   40POPC   C23 5351   7.309   1.285   7.003 -0.6194  0.6545 -0.4852
   40POPC   H3R 5352   7.238   1.351   7.056  2.4888  3.2055  0.6738
   40POPC   H3S 5353   7.379   1.347   6.943  2.2686 -2.2974 -0.3499
   40POPC   C24 5354   7.399   1.216   7.107 -0.1738 -0.1731 -1.1104
   40POPC   H4R 5355   7.448   1.300   7.161 -2.4850 -0.7986  2.1368
   40POPC   H4S 5356   7.465   1.145   7.052 -0.7796 -1.9643  0.4238
   40POPC   C25 5357   7.323   1.133   7.214  0.7483 -0.0933 -0.4976
   40POPC   H5R 5358   7.267   1.055   7.158 -0.7637  0.9545 -0.4537
   40POPC   H5S 5359   7.248   1.196   7.266 -0.1037 -2.0667  0.7269
   40POPC   C26 5360   7.412   1.071   7.321 -0.2202 -0.5201  0.2422
   40POPC   H6R 5361   7.446   1.145   7.397  2.5221 -2.8991  1.4023
   40POPC   H6S 5362   7.490   1.018   7.263  2.2504  2.5238  0.6058
   40POPC   C27 5363   7.349   0.959   7.397  0.3655 -1.2806  0.4470
   40POPC   H7R 5364   7.292   0.886   7.336  1.1637 -1.0429 -0.6106
   40POPC   H7S 5365   7.273   0.997   7.469  0.0476 -2.6009  0.8117
   40POPC   C28 5366   7.455   0.871   7.476  0.1358  0.2086 -0.0832
   40POPC   H8R 5367   7.499   0.944   7.547  0.0710 -0.3305  0.5149
   40POPC   H8S 5368   7.531   0.834   7.404  1.0026  1.3444  0.2308
   40POPC   C29 5369   7.399   0.750   7.541  0.0117 -0.6871 -0.0979
   40POPC   H91 5370   7.307   0.714   7.493  0.4519 -3.3057  0.9417
   40POPC  C210 5371   7.457   0.679   7.635  0.5289  0.2839  1.1456
   40POPC  H101 5372   7.410   0.584   7.663  0.0880  0.4150  0.8640
   40POPC  C211 5373   7.596   0.712   7.697  0.0175 -0.1410 -0.0245
   40POPC  H11R 5374   7.668   0.735   7.616 -0.9270  0.1676 -0.7760
   40POPC  H11S 5375   7.627   0.616   7.743  0.6962 -1.1553 -2.5103
   40POPC  C212 5376   7.603   0.825   7.797  0.1154 -0.1114  0.1847
   40POPC  H12R 5377   7.589   0.930   7.762  0.8326  0.1072  0.5521
   40POPC  H12S 5378   7.708   0.831   7.833  1.2966 -0.6475 -3.0173
   40POPC  C213 5379   7.498   0.803   7.911 -0.5450 -0.5246  0.9166
   40POPC  H13R 5380   7.398   0.795   7.863 -0.3495  0.9328  0.2362
   40POPC  H13S 5381   7.476   0.894   7.972  0.9662 -0.4941  1.4437
   40POPC  C214 5382   7.533   0.686   7.996 -0.4258  0.3429  0.2301
   40POPC  H14R 5383   7.642   0.668   8.003 -0.3543  0.9277  0.6286
   40POPC  H14S 5384   7.502   0.588   7.954 -2.5432  0.8051  0.6457
   40POPC  C215 5385   7.456   0.685   8.127 -0.5745  0.2634 -0.5328
   40POPC  H15R 5386   7.474   0.784   8.175  0.8948  0.4946 -1.5106
   40POPC  H15S 5387   7.504   0.613   8.197 -1.4441  1.9350  1.8455
   40POPC  C216 5388   7.308   0.667   8.112 -0.0798 -0.3595  0.0597
   40POPC  H16R 5389   7.277   0.621   8.016 -0.6514  1.8140 -0.8208
   40POPC  H16S 5390   7.263   0.768   8.100 -1.8825 -1.1664 -0.0702
   40POPC  C217 5391   7.239   0.590   8.223  0.4142  0.1459  0.2092
   40POPC  H17R 5392   7.264   0.482   8.228 -0.5278 -0.1149 -0.4906
   40POPC  H17S 5393   7.133   0.590   8.188  1.1280 -0.4273 -2.0375
   40POPC  C218 5394   7.264   0.638   8.359 -0.6035  0.4072  0.3585
   40POPC  H18R 5395   7.225   0.742   8.369 -0.6844  0.3747  0.3822
   40POPC  H18S 5396   7.374   0.643   8.374 -0.1851 -1.2784 -1.8552
   40POPC  H18T 5397   7.219   0.574   8.438 -0.1848 -1.8782 -1.2124
   40POPC   C33 5398   6.795   1.256   7.137 -0.2910  0.6874  0.0091
   40POPC   H3X 5399   6.887   1.312   7.108 -0.3361  0.3055 -0.8973
   40POPC   H3Y 5400   6.816   1.147   7.127  0.0031  0.9151 -2.0307
   40POPC   C34 5401   6.745   1.295   7.273  0.3564 -0.3957  0.2394
   40POPC   H4X 5402   6.662   1.231   7.309 -0.1440  0.5258  0.7412
   40POPC   H4Y 5403   6.705   1.399   7.274 -0.8986 -0.8704  1.3644
   40POPC   C35 5404   6.857   1.275   7.373 -0.1829 -0.3384 -0.0863
   40POPC   H5X 5405   6.927   1.361   7.383 -0.8979  0.3509 -1.0076
   40POPC   H5Y 5406   6.924   1.194   7.337  0.5936  1.0126 -1.7191
   40POPC   C36 5407   6.815   1.272   7.522 -0.3065  0.9166  0.2166
   40POPC   H6X 5408   6.752   1.184   7.550 -0.1100  1.0443  1.0560
   40POPC   H6Y 5409   6.747   1.354   7.555 -3.0804 -1.4290  0.5952
   40POPC   C37 5410   6.938   1.285   7.616  0.2983  0.3466 -0.2882
   40POPC   H7X 5411   6.905   1.326   7.714 -0.4598 -1.8022  0.3922
   40POPC   H7Y 5412   7.017   1.351   7.574  0.2279  0.1413 -0.7445
   40POPC   C38 5413   6.993   1.143   7.640 -0.0725 -0.2628 -0.5159
   40POPC   H8X 5414   7.017   1.103   7.539 -3.0626  0.5009 -1.6021
   40POPC   H8Y 5415   6.908   1.086   7.684  0.9122 -0.6734  0.8752
   40POPC   C39 5416   7.123   1.129   7.725 -0.3463  0.1103 -0.5034
   40POPC   H9X 5417   7.189   1.207   7.681  0.4515  0.9339  2.0674
   40POPC   H9Y 5418   7.166   1.027   7.716 -1.4813 -0.4274 -0.0099
   40POPC  C310 5419   7.095   1.151   7.873 -0.2261 -0.4328 -0.4162
   40POPC  H10X 5420   6.988   1.128   7.891 -0.2635  0.0950  0.0315
   40POPC  H10Y 5421   7.114   1.258   7.893 -0.5084 -0.9754  3.0524
   40POPC  C311 5422   7.173   1.062   7.971  0.3857 -0.2844 -0.2413
   40POPC  H11X 5423   7.275   1.072   7.929 -0.1800 -0.5844 -1.7048
   40POPC  H11Y 5424   7.137   0.959   7.950  0.6976 -0.2713 -0.8561
   40POPC  C312 5425   7.156   1.109   8.114  0.0431 -0.3822  0.3251
   40POPC  H12X 5426   7.051   1.095   8.150 -0.6646  0.3192 -1.4073
   40POPC  H12Y 5427   7.194   1.213   8.127  0.3863 -0.4824  0.1282
   40POPC  C313 5428   7.241   1.024   8.212 -0.2186  0.1845  0.9279
   40POPC  H13X 5429   7.346   1.023   8.176 -0.6668  0.0020 -0.3837
   40POPC  H13Y 5430   7.189   0.926   8.219  0.5292 -0.1484  1.9026
   40POPC  C314 5431   7.250   1.075   8.358 -0.8877 -0.7467 -0.9788
   40POPC  H14X 5432   7.255   1.186   8.363 -0.1043 -0.8270  0.5511
   40POPC  H14Y 5433   7.346   1.041   8.402 -1.4655 -1.5946 -0.3400
   40POPC  C315 5434   7.144   1.037   8.466  0.0202  0.4468 -0.1115
   40POPC  H15X 5435   7.206   1.032   8.558  3.0140 -0.8296 -2.0811
   40POPC  H15Y 5436   7.100   0.937   8.447 -0.5831  0.8354 -0.7643
   40POPC  C316 5437   7.032   1.136   8.482  0.6112  0.3774  1.0167
   40POPC  H16X 5438   7.058   1.244   8.478  0.9717  0.2681  0.3073
   40POPC  H16Y 5439   6.993   1.129   8.586 -0.8953 -1.8711  0.3377
   40POPC  H16Z 5440   6.958   1.119   8.401  2.9341  3.0462 -1.7773
   41CHL1    C3 5441   6.015   4.500   9.986 -0.1514  1.3739 -0.6168
   41CHL1    H3 5442   6.017   4.392   9.963 -0.9884  2.0814 -4.2355
   41CHL1    O3 5443   6.049   4.532  10.121 -0.7236  0.3736 -0.0229
   41CHL1   H3' 5444   6.004   4.464  10.172 -1.2286  1.3921  0.8996
   41CHL1    C4 5445   6.103   4.587   9.890 -0.2642 -0.3195  0.2174
   41CHL1   H4A 5446   6.107   4.690   9.930  0.3954 -1.1370  2.3282
   41CHL1   H4B 5447   6.209   4.553   9.893 -0.3115 -0.5872 -0.9786
   41CHL1    C5 5448   6.061   4.583   9.740 -0.3932  0.6222 -0.2768
   41CHL1    C6 5449   6.150   4.577   9.647 -0.6039  0.0773  0.2158
   41CHL1    H6 5450   6.254   4.566   9.681 -0.4947  2.3646  0.7053
   41CHL1    C7 5451   6.121   4.571   9.501 -0.0845 -0.2055  0.1677
   41CHL1   H7A 5452   6.175   4.660   9.462 -0.3706 -0.8621 -1.8204
   41CHL1   H7B 5453   6.164   4.476   9.464 -0.2222 -1.0810  2.2022
   41CHL1    C8 5454   5.974   4.583   9.472 -0.3123 -0.2383 -0.3037
   41CHL1    H8 5455   5.956   4.690   9.450  0.6835 -0.0409 -0.1393
   41CHL1   C14 5456   5.939   4.511   9.346 -0.5579 -0.3556  0.1417
   41CHL1   H14 5457   5.952   4.403   9.365 -0.5034 -0.6585 -1.5299
   41CHL1   C15 5458   6.040   4.545   9.236  1.8308 -0.4898 -0.3786
   41CHL1  H15A 5459   6.058   4.655   9.238 -0.0552 -0.1469 -0.8541
   41CHL1  H15B 5460   6.130   4.480   9.247  1.4129 -0.6157  2.7714
   41CHL1   C16 5461   5.958   4.519   9.112  0.4428  0.1821 -0.5439
   41CHL1  H16A 5462   5.943   4.603   9.041  0.5249  0.4338 -0.2650
   41CHL1  H16B 5463   6.020   4.451   9.050  0.9605 -0.4465  0.6576
   41CHL1   C17 5464   5.818   4.458   9.154 -0.5128 -0.3689 -0.1266
   41CHL1   H17 5465   5.843   4.352   9.178 -0.7170 -0.5104 -0.5319
   41CHL1   C13 5466   5.795   4.526   9.295  0.2457  0.2089  0.7714
   41CHL1   C18 5467   5.753   4.672   9.257  0.9034  0.3499  0.5150
   41CHL1  H18A 5468   5.739   4.740   9.344  0.4036  2.8891 -1.4602
   41CHL1  H18B 5469   5.827   4.728   9.196  1.0222  0.4098  0.7139
   41CHL1  H18C 5470   5.655   4.674   9.204  1.5910 -1.8959 -0.8988
   41CHL1   C12 5471   5.704   4.463   9.400  0.0107 -0.0096  0.0994
   41CHL1  H12A 5472   5.599   4.469   9.364  0.3295  3.0862 -0.4717
   41CHL1  H12B 5473   5.735   4.357   9.411 -0.9037 -0.3052 -0.1500
   41CHL1   C11 5474   5.730   4.533   9.535 -0.0596 -0.4398 -0.0355
   41CHL1  H11A 5475   5.693   4.638   9.542  1.1771  0.0055 -0.0371
   41CHL1  H11B 5476   5.668   4.474   9.605  0.3441 -2.2412 -1.1740
   41CHL1    C9 5477   5.882   4.529   9.580 -0.6706  0.2415 -0.2122
   41CHL1    H9 5478   5.908   4.421   9.587  1.2400  0.5954 -1.4703
   41CHL1   C10 5479   5.910   4.588   9.718  0.7985 -0.1812 -0.0720
   41CHL1   C19 5480   5.860   4.736   9.721  0.2630  1.1429 -0.5767
   41CHL1  H19A 5481   5.750   4.748   9.728 -0.6110 -4.4055 -2.0983
   41CHL1  H19B 5482   5.911   4.792   9.802 -2.5954  0.0680  2.0791
   41CHL1  H19C 5483   5.885   4.791   9.628 -0.5998  0.0217 -1.4832
   41CHL1    C1 5484   5.825   4.515   9.829 -0.7004  0.3544 -0.0749
   41CHL1   H1A 5485   5.716   4.529   9.816 -0.3485  1.6342 -1.7186
   41CHL1   H1B 5486   5.856   4.409   9.816  2.0487  0.9369  1.1949
   41CHL1    C2 5487   5.865   4.549   9.977 -0.4929  0.2660  0.0320
   41CHL1   H2A 5488   5.798   4.498  10.049  0.8180 -1.1359  0.3021
   41CHL1   H2B 5489   5.862   4.659   9.988  0.7822  0.0981  2.2864
   41CHL1   C20 5490   5.702   4.466   9.048  0.1058  0.5856  0.2704
   41CHL1   H20 5491   5.657   4.567   9.044  1.7026  1.2337 -3.6699
   41CHL1   C21 5492   5.595   4.358   9.090 -1.0310 -0.0005  0.0259
   41CHL1  H21A 5493   5.563   4.368   9.196  1.8085 -0.3531  0.9507
   41CHL1  H21B 5494   5.633   4.255   9.075  1.8000  0.9514  0.4394
   41CHL1  H21C 5495   5.509   4.361   9.019  1.1193 -2.6814 -2.8249
   41CHL1   C22 5496   5.748   4.439   8.904 -0.1225 -0.2310  0.2073
   41CHL1  H22A 5497   5.654   4.458   8.847 -0.3114 -1.3245  0.1428
   41CHL1  H22B 5498   5.828   4.512   8.879 -0.4389 -0.0970 -0.4175
   41CHL1   C23 5499   5.792   4.300   8.867 -0.4956  0.0654 -0.6463
   41CHL1  H23A 5500   5.878   4.266   8.930  0.9836 -1.2961 -3.3253
   41CHL1  H23B 5501   5.707   4.231   8.879  0.9264 -1.5977  0.0299
   41CHL1   C24 5502   5.847   4.297   8.727  0.2082  0.2732  0.5474
   41CHL1  H24A 5503   5.752   4.311   8.672 -0.6143 -0.2112  1.8156
   41CHL1  H24B 5504   5.915   4.383   8.711 -0.5018  0.6535 -0.4458
   41CHL1   C25 5505   5.916   4.162   8.672  0.3231  0.3044  0.2339
   41CHL1   H25 5506   5.992   4.131   8.748  0.5101 -1.2628 -0.5722
   41CHL1   C26 5507   5.811   4.047   8.660 -0.2941  0.7042 -0.4550
   41CHL1  H26A 5508   5.853   3.951   8.622 -0.9782  1.0680 -2.1637
   41CHL1  H26B 5509   5.759   4.024   8.755  0.6807  1.7249  0.3425
   41CHL1  H26C 5510   5.740   4.069   8.578 -1.6787  1.2381  0.8771
   41CHL1   C27 5511   5.997   4.206   8.540  0.4516  0.2956 -0.8720
   41CHL1  H27A 5512   6.056   4.117   8.511 -1.0881 -1.1725  0.4341
   41CHL1  H27B 5513   5.917   4.231   8.466 -0.4225  1.8851  0.5744
   41CHL1  H27C 5514   6.063   4.293   8.559 -1.0294  1.5726 -1.4546
   42CHL1    C3 5515   5.372   4.794   9.924 -0.3972  0.1279  0.5036
   42CHL1    H3 5516   5.456   4.866   9.918 -1.0812  0.9632  0.8305
   42CHL1    O3 5517   5.361   4.765  10.062 -0.4181  0.0936  1.0252
   42CHL1   H3' 5518   5.331   4.674  10.070  1.7388 -0.8285 -0.7139
   42CHL1    C4 5519   5.245   4.869   9.886  0.7969 -0.5829 -0.3641
   42CHL1   H4A 5520   5.155   4.822   9.930  0.4594  2.7307  2.7308
   42CHL1   H4B 5521   5.250   4.965   9.942 -0.1260 -1.2984  0.9696
   42CHL1    C5 5522   5.229   4.903   9.740 -0.1616  0.4304  0.2288
   42CHL1    C6 5523   5.190   5.020   9.691 -0.0709  0.0608  0.3178
   42CHL1    H6 5524   5.174   5.105   9.760  1.4533  1.9621 -1.6050
   42CHL1    C7 5525   5.178   5.063   9.548  0.0596  0.2361 -0.0606
   42CHL1   H7A 5526   5.095   5.134   9.530 -0.4224  0.2778  2.2090
   42CHL1   H7B 5527   5.273   5.115   9.520 -0.5688 -0.0599 -2.8524
   42CHL1    C8 5528   5.164   4.932   9.464  0.5159 -0.4542  0.2540
   42CHL1    H8 5529   5.064   4.895   9.496  0.7276 -0.4391  0.9421
   42CHL1   C14 5530   5.186   4.972   9.320  0.1318  0.0904 -0.8169
   42CHL1   H14 5531   5.293   4.999   9.311  0.4895 -0.9325  0.2657
   42CHL1   C15 5532   5.123   5.094   9.265  0.2993  0.4949 -0.1460
   42CHL1  H15A 5533   5.029   5.097   9.324 -1.8333 -0.3150 -3.3554
   42CHL1  H15B 5534   5.183   5.183   9.292 -0.5246  0.1680  2.9215
   42CHL1   C16 5535   5.091   5.062   9.121  0.0152  0.2606  0.1145
   42CHL1  H16A 5536   4.981   5.061   9.103  0.0136 -0.6368  0.1606
   42CHL1  H16B 5537   5.119   5.139   9.047 -0.8157 -1.4640 -2.0333
   42CHL1   C17 5538   5.180   4.931   9.088  0.1164  0.2351 -0.1410
   42CHL1   H17 5539   5.284   4.968   9.078 -0.6950  2.4404 -0.4968
   42CHL1   C13 5540   5.174   4.858   9.221  0.0540  0.0322  0.8800
   42CHL1   C18 5541   5.038   4.792   9.243  1.2258  0.1598  0.6821
   42CHL1  H18A 5542   4.950   4.856   9.216 -0.6865 -2.6651  0.0229
   42CHL1  H18B 5543   5.036   4.701   9.179  0.1859 -1.0292  2.3462
   42CHL1  H18C 5544   5.029   4.755   9.347  3.0411  1.4951  1.3376
   42CHL1   C12 5545   5.285   4.758   9.252 -1.0165 -0.1681 -0.4465
   42CHL1  H12A 5546   5.267   4.669   9.189 -3.3315 -0.0685  0.0078
   42CHL1  H12B 5547   5.386   4.803   9.238 -1.6480  2.1857  2.0348
   42CHL1   C11 5548   5.275   4.707   9.401  0.4524 -0.7231 -0.6798
   42CHL1  H11A 5549   5.196   4.629   9.406  1.3618 -1.7254 -1.8590
   42CHL1  H11B 5550   5.371   4.656   9.423  1.1266  0.3145 -1.1670
   42CHL1    C9 5551   5.261   4.825   9.500 -0.2596 -0.2051 -0.3695
   42CHL1    H9 5552   5.354   4.884   9.487  0.5552 -0.7080  2.7703
   42CHL1   C10 5553   5.261   4.782   9.650  0.5969  0.4517  0.2191
   42CHL1   C19 5554   5.148   4.677   9.669  0.4772  0.4546 -0.3365
   42CHL1  H19A 5555   5.145   4.632   9.770 -0.9550  1.9834  0.3172
   42CHL1  H19B 5556   5.046   4.716   9.650  0.6502  1.7009  1.2725
   42CHL1  H19C 5557   5.152   4.592   9.597 -2.0601  0.4137 -0.4800
   42CHL1    C1 5558   5.401   4.717   9.688 -0.0217 -0.2795 -0.4762
   42CHL1   H1A 5559   5.411   4.623   9.629 -0.9449 -0.7967  0.1743
   42CHL1   H1B 5560   5.484   4.786   9.661 -1.0057 -0.1915 -3.4978
   42CHL1    C2 5561   5.412   4.672   9.834  0.0915  0.0550 -0.2859
   42CHL1   H2A 5562   5.514   4.641   9.865 -0.3849 -0.9607  0.2764
   42CHL1   H2B 5563   5.336   4.593   9.851  0.2048  0.1612  0.7333
   42CHL1   C20 5564   5.127   4.861   8.960  0.2500  0.2040 -0.3280
   42CHL1   H20 5565   5.022   4.833   8.982 -0.5771  3.7946  0.6788
   42CHL1   C21 5566   5.212   4.735   8.924 -0.7083 -0.0656  0.2957
   42CHL1  H21A 5567   5.196   4.691   8.823  0.6382 -0.4000  0.2235
   42CHL1  H21B 5568   5.190   4.661   9.004  0.9640 -0.2812  0.5771
   42CHL1  H21C 5569   5.320   4.757   8.929 -0.3901 -1.6727  0.9175
   42CHL1   C22 5570   5.111   4.951   8.827  0.6822  0.3900 -0.3844
   42CHL1  H22A 5571   5.054   4.889   8.755  1.4404  1.2309 -1.7314
   42CHL1  H22B 5572   5.044   5.037   8.847  1.9895  0.7394  2.7563
   42CHL1   C23 5573   5.237   5.010   8.770  0.5726 -0.4847 -0.0287
   42CHL1  H23A 5574   5.283   5.084   8.840 -1.4585  0.2309  0.6056
   42CHL1  H23B 5575   5.313   4.932   8.751 -1.3633 -2.2330 -0.7660
   42CHL1   C24 5576   5.213   5.072   8.633 -0.0163 -0.4100 -0.8525
   42CHL1  H24A 5577   5.136   5.151   8.646  0.3123 -0.1734 -0.3408
   42CHL1  H24B 5578   5.305   5.117   8.588 -1.0680  3.5035  0.7049
   42CHL1   C25 5579   5.166   4.975   8.518 -0.0361 -0.2365 -0.0876
   42CHL1   H25 5580   5.074   4.927   8.558  1.5502 -3.0847  0.2364
   42CHL1   C26 5581   5.115   5.046   8.390 -0.0519 -0.0855 -0.8027
   42CHL1  H26A 5582   5.106   4.964   8.315 -2.1169 -0.1370 -0.5213
   42CHL1  H26B 5583   5.014   5.081   8.420  0.2089  0.2463 -0.3136
   42CHL1  H26C 5584   5.184   5.124   8.353 -1.0717  2.1504  1.8555
   42CHL1   C27 5585   5.268   4.862   8.495  0.5695 -0.3179  1.0116
   42CHL1  H27A 5586   5.221   4.773   8.446 -1.3781  1.5721 -0.6731
   42CHL1  H27B 5587   5.336   4.913   8.424  0.6622  1.4221  2.3300
   42CHL1  H27C 5588   5.329   4.845   8.586  0.2391  0.1570  1.3270
   43CHL1    C3 5589   6.734   4.633   9.932 -0.3634  0.6991 -0.0293
   43CHL1    H3 5590   6.780   4.727   9.895 -1.9284  0.7435 -1.9475
   43CHL1    O3 5591   6.729   4.640  10.080  0.4571 -0.5604  0.1877
   43CHL1   H3' 5592   6.817   4.646  10.118 -0.1271 -0.7996  1.6241
   43CHL1    C4 5593   6.591   4.623   9.887 -0.5416 -0.2100 -0.0370
   43CHL1   H4A 5594   6.540   4.534   9.930  0.9384 -1.7482 -1.4202
   43CHL1   H4B 5595   6.545   4.713   9.933 -0.1167 -0.9519  1.9004
   43CHL1    C5 5596   6.574   4.617   9.733 -0.8965  1.3974 -0.1383
   43CHL1    C6 5597   6.502   4.702   9.667  0.0448 -0.4402  0.5263
   43CHL1    H6 5598   6.444   4.774   9.726 -0.5763  1.1589 -1.9515
   43CHL1    C7 5599   6.482   4.694   9.522  0.1420 -0.7815 -0.1539
   43CHL1   H7A 5600   6.375   4.682   9.494  0.5341  0.6879 -2.4591
   43CHL1   H7B 5601   6.538   4.777   9.473  0.9924 -1.9837 -1.2332
   43CHL1    C8 5602   6.531   4.569   9.454  0.4027  0.1139 -0.8963
   43CHL1    H8 5603   6.458   4.492   9.485 -2.2577  1.9913 -2.3473
   43CHL1   C14 5604   6.547   4.591   9.305 -0.1317  0.8385 -0.4795
   43CHL1   H14 5605   6.628   4.665   9.293  0.7411  0.1369  0.9801
   43CHL1   C15 5606   6.431   4.640   9.217 -0.4038 -0.0412 -0.1888
   43CHL1  H15A 5607   6.325   4.621   9.246  0.4499 -0.0413  3.1705
   43CHL1  H15B 5608   6.454   4.748   9.214 -1.6461  0.2117 -0.7894
   43CHL1   C16 5609   6.465   4.585   9.084 -0.1197  0.2337 -0.7917
   43CHL1  H16A 5610   6.387   4.510   9.061  0.1119  0.5374 -2.6625
   43CHL1  H16B 5611   6.468   4.663   9.005 -1.2787  1.0901  0.0118
   43CHL1   C17 5612   6.600   4.513   9.092 -0.4322  0.0319  0.3343
   43CHL1   H17 5613   6.677   4.590   9.071 -2.0215  0.8717 -2.8033
   43CHL1   C13 5614   6.609   4.467   9.238  0.5674 -0.1564 -0.0426
   43CHL1   C18 5615   6.513   4.347   9.249  0.2961 -0.0700 -0.1417
   43CHL1  H18A 5616   6.485   4.327   9.354 -0.7420 -2.4507 -0.8279
   43CHL1  H18B 5617   6.415   4.361   9.199 -0.5542  0.2773  1.6119
   43CHL1  H18C 5618   6.567   4.256   9.212  0.3367 -2.1172  4.5669
   43CHL1   C12 5619   6.744   4.436   9.297 -0.2701  0.1772  0.4951
   43CHL1  H12A 5620   6.785   4.341   9.258 -0.1166 -0.5377  2.3402
   43CHL1  H12B 5621   6.820   4.513   9.272 -0.5700  0.8377  1.5561
   43CHL1   C11 5622   6.746   4.422   9.441  0.4975 -0.7348 -0.3456
   43CHL1  H11A 5623   6.694   4.328   9.467 -0.2022  0.3126  2.2465
   43CHL1  H11B 5624   6.850   4.413   9.478  0.7341  0.1747 -0.7631
   43CHL1    C9 5625   6.671   4.537   9.516 -0.1825  0.4456 -0.3269
   43CHL1    H9 5626   6.736   4.625   9.496  1.7364 -1.1848 -1.5379
   43CHL1   C10 5627   6.661   4.517   9.665 -0.7029  0.2679 -0.6128
   43CHL1   C19 5628   6.595   4.381   9.707  0.2681  0.0992  0.4523
   43CHL1  H19A 5629   6.499   4.375   9.651  0.1109  2.2774  0.4455
   43CHL1  H19B 5630   6.656   4.296   9.670  0.6603  0.9051 -0.7994
   43CHL1  H19C 5631   6.576   4.373   9.816  3.3920 -0.9120  0.9618
   43CHL1    C1 5632   6.808   4.522   9.722  0.0713 -0.2682  0.4288
   43CHL1   H1A 5633   6.854   4.427   9.686 -0.2332  0.0810 -0.8919
   43CHL1   H1B 5634   6.863   4.609   9.679 -1.3081  0.7581  0.7255
   43CHL1    C2 5635   6.823   4.524   9.878 -0.6202 -0.1039 -0.5704
   43CHL1   H2A 5636   6.930   4.550   9.893 -1.0060  0.6255  1.0203
   43CHL1   H2B 5637   6.814   4.427   9.930 -0.7049 -0.0409 -0.4673
   43CHL1   C20 5638   6.615   4.397   8.976 -0.0091  0.3838 -0.5241
   43CHL1   H20 5639   6.549   4.309   8.993 -1.1419  1.2720 -0.2776
   43CHL1   C21 5640   6.763   4.342   8.967 -0.1516  0.1608  0.3886
   43CHL1  H21A 5641   6.786   4.283   9.058  0.6623 -0.0697  0.0426
   43CHL1  H21B 5642   6.824   4.434   8.957 -0.2185  0.2804  1.0483
   43CHL1  H21C 5643   6.775   4.280   8.875 -2.9161  0.7195 -0.4063
   43CHL1   C22 5644   6.564   4.435   8.834  0.3674  0.3002 -0.6696
   43CHL1  H22A 5645   6.571   4.345   8.769 -2.3210  0.3865 -1.1451
   43CHL1  H22B 5646   6.455   4.454   8.840  0.3193  0.5674 -2.1562
   43CHL1   C23 5647   6.640   4.546   8.767  0.4806 -0.3570 -0.2885
   43CHL1  H23A 5648   6.628   4.645   8.816  0.0052  0.7595 -2.5784
   43CHL1  H23B 5649   6.750   4.537   8.769  0.6711  1.7311  0.6145
   43CHL1   C24 5650   6.592   4.558   8.622  0.4925  0.6701  0.4490
   43CHL1  H24A 5651   6.634   4.472   8.567  2.4936  1.4702  0.6638
   43CHL1  H24B 5652   6.482   4.569   8.622  0.0173 -3.2838 -2.6372
   43CHL1   C25 5653   6.655   4.679   8.553 -0.3235 -1.1969 -0.3289
   43CHL1   H25 5654   6.766   4.681   8.558 -0.3228  1.2383 -0.3713
   43CHL1   C26 5655   6.625   4.675   8.401  0.3764  0.1267 -0.3548
   43CHL1  H26A 5656   6.629   4.570   8.364 -2.4613  0.8638 -2.9785
   43CHL1  H26B 5657   6.524   4.712   8.373  0.8829  0.0611 -2.3581
   43CHL1  H26C 5658   6.687   4.747   8.343  0.1621  1.3586  0.9314
   43CHL1   C27 5659   6.611   4.819   8.601 -0.4184 -0.9372  0.9425
   43CHL1  H27A 5660   6.675   4.850   8.686 -1.8860  2.6632  0.8146
   43CHL1  H27B 5661   6.624   4.901   8.527 -1.8798 -1.1821  0.4042
   43CHL1  H27C 5662   6.502   4.818   8.620 -0.6260  1.4228 -0.0221
   44CHL1    C3 5663   6.333   5.098  10.065 -0.6490  0.6660  0.6241
   44CHL1    H3 5664   6.380   5.197  10.047 -0.4747 -0.0113 -3.0608
   44CHL1    O3 5665   6.313   5.064  10.205 -0.9096 -0.0526  0.0118
   44CHL1   H3' 5666   6.273   5.142  10.244 -1.1140  0.6719 -1.6065
   44CHL1    C4 5667   6.202   5.103   9.996 -0.0278 -0.5234 -0.3785
   44CHL1   H4A 5668   6.168   4.999  10.011  0.0923 -0.5536 -0.3148
   44CHL1   H4B 5669   6.132   5.166  10.056  3.9005  1.1404  2.6273
   44CHL1    C5 5670   6.204   5.137   9.851 -0.0717 -0.1074  0.6842
   44CHL1    C6 5671   6.141   5.239   9.796 -0.3018  0.1021  0.2072
   44CHL1    H6 5672   6.068   5.294   9.859 -1.0200 -0.0100 -0.5246
   44CHL1    C7 5673   6.139   5.269   9.649  0.1057  0.0441 -0.5444
   44CHL1   H7A 5674   6.043   5.289   9.597  0.2153 -2.4167 -1.7853
   44CHL1   H7B 5675   6.199   5.362   9.642  1.1365 -0.4949  0.7525
   44CHL1    C8 5676   6.202   5.159   9.562 -0.1612  0.7840 -0.5085
   44CHL1    H8 5677   6.122   5.082   9.547  0.4391 -0.5292  2.7407
   44CHL1   C14 5678   6.238   5.217   9.425  0.1275  0.5344  0.2283
   44CHL1   H14 5679   6.321   5.287   9.447  0.9855 -0.4159  0.0224
   44CHL1   C15 5680   6.137   5.294   9.343 -1.1041  0.2208  0.2216
   44CHL1  H15A 5681   6.034   5.254   9.334 -0.9075 -0.1808 -0.3361
   44CHL1  H15B 5682   6.137   5.402   9.369 -2.7867  0.3585 -0.2682
   44CHL1   C16 5683   6.193   5.278   9.200 -0.0369 -0.3744 -0.0755
   44CHL1  H16A 5684   6.115   5.221   9.146 -1.2234  1.4362 -0.3420
   44CHL1  H16B 5685   6.207   5.380   9.158  1.4825  1.4459  4.5095
   44CHL1   C17 5686   6.323   5.193   9.198 -0.3321  0.2282 -0.6450
   44CHL1   H17 5687   6.411   5.257   9.220 -0.9507  0.6293  0.7138
   44CHL1   C13 5688   6.307   5.115   9.331  0.7662  0.1729  0.1830
   44CHL1   C18 5689   6.214   4.992   9.310 -0.5518  0.1529 -0.2310
   44CHL1  H18A 5690   6.128   5.016   9.244 -0.2918  1.3391 -0.1437
   44CHL1  H18B 5691   6.271   4.918   9.249  1.9464 -1.6849  4.0851
   44CHL1  H18C 5692   6.185   4.938   9.403  2.1133  0.5314  0.8640
   44CHL1   C12 5693   6.442   5.087   9.399  0.1175 -0.2162  0.1514
   44CHL1  H12A 5694   6.494   5.009   9.341 -0.0825  1.0334 -1.7657
   44CHL1  H12B 5695   6.511   5.174   9.408 -2.0332  1.4257  1.3302
   44CHL1   C11 5696   6.415   5.028   9.542 -0.7824 -0.2441 -0.1503
   44CHL1  H11A 5697   6.377   4.925   9.523  1.0124 -0.6037 -2.0115
   44CHL1  H11B 5698   6.513   5.007   9.590 -0.1003 -0.9022 -1.7904
   44CHL1    C9 5699   6.325   5.103   9.635  0.1482 -0.2138  0.0122
   44CHL1    H9 5700   6.385   5.194   9.656  0.4219 -0.1932 -0.8134
   44CHL1   C10 5701   6.292   5.044   9.779  0.4189 -0.9123 -0.8932
   44CHL1   C19 5702   6.205   4.916   9.760 -0.3693 -0.3954 -0.1794
   44CHL1  H19A 5703   6.232   4.857   9.850  0.6765 -4.0622 -2.7875
   44CHL1  H19B 5704   6.094   4.923   9.762 -0.2882  1.1720 -0.8367
   44CHL1  H19C 5705   6.242   4.861   9.671  2.1192 -0.2403  0.7245
   44CHL1    C1 5706   6.426   5.023   9.848 -0.0060 -0.3059  0.0705
   44CHL1   H1A 5707   6.475   4.937   9.797  1.9130  1.5892 -1.4144
   44CHL1   H1B 5708   6.498   5.108   9.846 -0.6833  0.2314 -2.3948
   44CHL1    C2 5709   6.419   4.994  10.002 -0.0474 -0.0369  0.2204
   44CHL1   H2A 5710   6.520   5.003  10.049  0.8241 -1.4441 -1.3382
   44CHL1   H2B 5711   6.376   4.892  10.015 -0.9481  0.0751 -1.8097
   44CHL1   C20 5712   6.341   5.122   9.065 -0.2603 -0.0965  0.8057
   44CHL1   H20 5713   6.245   5.066   9.059  0.2649 -1.2696  2.9397
   44CHL1   C21 5714   6.463   5.034   9.056  0.0689 -0.3294  0.4526
   44CHL1  H21A 5715   6.454   4.961   9.138 -2.2045 -0.0153  0.5178
   44CHL1  H21B 5716   6.559   5.089   9.050  2.3060 -4.0902  0.5964
   44CHL1  H21C 5717   6.454   4.976   8.961 -1.4857 -0.6700  0.7971
   44CHL1   C22 5718   6.339   5.209   8.933 -0.6311  0.1902 -1.3163
   44CHL1  H22A 5719   6.261   5.288   8.937 -0.7826 -0.0507  1.0731
   44CHL1  H22B 5720   6.435   5.261   8.913 -0.6986  0.0100 -2.1505
   44CHL1   C23 5721   6.295   5.129   8.815 -0.1956 -0.2506 -0.7413
   44CHL1  H23A 5722   6.350   5.032   8.813 -2.3455 -1.5007 -2.0272
   44CHL1  H23B 5723   6.192   5.093   8.835  0.6937 -2.4994 -0.0556
   44CHL1   C24 5724   6.301   5.207   8.688 -0.2205  0.2700 -0.9905
   44CHL1  H24A 5725   6.224   5.287   8.690  1.0740  1.5684 -1.9763
   44CHL1  H24B 5726   6.402   5.252   8.681 -0.5259  1.2963  0.7928
   44CHL1   C25 5727   6.260   5.128   8.558 -0.4738  0.3616 -0.5561
   44CHL1   H25 5728   6.163   5.077   8.571 -0.8488  1.1144 -0.3572
   44CHL1   C26 5729   6.237   5.226   8.447  0.0857 -0.4147 -0.7682
   44CHL1  H26A 5730   6.335   5.247   8.399 -0.6041 -1.4997 -2.7364
   44CHL1  H26B 5731   6.175   5.185   8.365 -0.3104  0.1227 -0.7361
   44CHL1  H26C 5732   6.194   5.325   8.474 -0.5454 -1.0153  0.4921
   44CHL1   C27 5733   6.360   5.026   8.520  0.0168  0.2183  0.1011
   44CHL1  H27A 5734   6.346   4.991   8.416  0.0505 -3.2558  1.2206
   44CHL1  H27B 5735   6.467   5.054   8.510  0.1663 -0.6112 -0.7477
   44CHL1  H27C 5736   6.337   4.944   8.591  1.8202 -0.6450 -0.2833
   45CHL1    C3 5737   2.918   3.850  10.350  0.1602  0.5010  0.4632
   45CHL1    H3 5738   2.895   3.743  10.334 -3.6682  0.9691  2.0914
   45CHL1    O3 5739   2.909   3.876  10.486 -0.4994  0.1445 -0.0463
   45CHL1   H3' 5740   2.995   3.909  10.514  0.8279 -2.6967 -0.5914
   45CHL1    C4 5741   3.062   3.881  10.301 -0.0564 -0.3247  0.6576
   45CHL1   H4A 5742   3.097   3.985  10.318  3.3451 -0.6744 -3.3063
   45CHL1   H4B 5743   3.129   3.826  10.370  0.0168  0.1879  0.9984
   45CHL1    C5 5744   3.072   3.844  10.153  0.1978  0.8547  0.5722
   45CHL1    C6 5745   3.147   3.742  10.111 -0.2953  0.0301 -0.2728
   45CHL1    H6 5746   3.214   3.685  10.176  0.8630  0.8666 -0.7223
   45CHL1    C7 5747   3.153   3.701   9.971  0.2787  0.6820 -0.0357
   45CHL1   H7A 5748   3.258   3.674   9.945 -0.0070 -1.4552  0.9481
   45CHL1   H7B 5749   3.097   3.605   9.965  2.3171 -0.4499 -2.0378
   45CHL1    C8 5750   3.094   3.803   9.868  0.1409  1.0731  0.3270
   45CHL1    H8 5751   3.065   3.737   9.784  2.6763 -2.1258  1.8979
   45CHL1   C14 5752   3.193   3.901   9.804  0.1243 -0.9669 -0.4782
   45CHL1   H14 5753   3.248   3.952   9.886  1.5779  2.1486 -3.2346
   45CHL1   C15 5754   3.300   3.824   9.717  1.5723 -0.1905 -0.3069
   45CHL1  H15A 5755   3.401   3.867   9.730  1.2744  0.5125 -0.3189
   45CHL1  H15B 5756   3.310   3.715   9.738 -0.7285 -0.0019  2.1659
   45CHL1   C16 5757   3.249   3.841   9.578 -0.2014 -0.0732 -0.7210
   45CHL1  H16A 5758   3.330   3.899   9.527 -0.9114  0.1364 -1.6141
   45CHL1  H16B 5759   3.246   3.743   9.526 -0.8806 -0.9287  0.9085
   45CHL1   C17 5760   3.125   3.930   9.571  0.2861 -0.5488 -0.1544
   45CHL1   H17 5761   3.042   3.856   9.576  1.9601 -2.5171 -0.9861
   45CHL1   C13 5762   3.129   4.005   9.708 -0.7915 -0.8752 -0.6628
   45CHL1   C18 5763   3.237   4.128   9.702 -0.4327  0.5254  0.6593
   45CHL1  H18A 5764   3.335   4.092   9.663 -1.5359  0.1279 -1.8313
   45CHL1  H18B 5765   3.199   4.202   9.628  1.0985 -0.6793 -1.4228
   45CHL1  H18C 5766   3.247   4.190   9.793 -2.0116  1.7182  0.0522
   45CHL1   C12 5767   2.995   4.058   9.752 -0.0509  0.5145  0.3395
   45CHL1  H12A 5768   3.025   4.137   9.825  2.6285 -0.1571  0.0231
   45CHL1  H12B 5769   2.946   4.112   9.668  0.0642 -0.5108 -0.3831
   45CHL1   C11 5770   2.899   3.948   9.815 -0.2643  0.3804  0.1978
   45CHL1  H11A 5771   2.808   4.000   9.850  1.1397  0.6341  3.6442
   45CHL1  H11B 5772   2.868   3.891   9.725 -0.7853  1.1466 -0.1051
   45CHL1    C9 5773   2.967   3.863   9.923 -0.0507  0.4731 -0.0170
   45CHL1    H9 5774   2.901   3.775   9.942 -0.6856  1.4481  2.5670
   45CHL1   C10 5775   2.967   3.922  10.073  0.7753 -0.1902 -0.2132
   45CHL1   C19 5776   3.004   4.073  10.063  0.2219  0.0993 -0.7683
   45CHL1  H19A 5777   3.011   4.111  10.167  2.9340 -1.7204 -0.2314
   45CHL1  H19B 5778   3.103   4.089  10.014  0.5098 -0.7028 -0.4454
   45CHL1  H19C 5779   2.921   4.117  10.003 -0.0840 -0.3473 -0.6665
   45CHL1    C1 5780   2.823   3.895  10.133  0.1242 -0.0502 -0.3534
   45CHL1   H1A 5781   2.751   3.952  10.070  2.2155  1.2068 -1.6661
   45CHL1   H1B 5782   2.797   3.789  10.111 -2.3740  0.6437 -0.9040
   45CHL1    C2 5783   2.816   3.937  10.278  0.8060  0.2484  0.4950
   45CHL1   H2A 5784   2.714   3.917  10.317 -0.3464  1.5517 -1.7409
   45CHL1   H2B 5785   2.835   4.046  10.279 -0.3798  0.4699  0.0463
   45CHL1   C20 5786   3.097   4.009   9.448  0.4884  0.6779 -0.6357
   45CHL1   H20 5787   3.082   4.116   9.473  0.4629  1.0504 -2.1780
   45CHL1   C21 5788   2.959   3.961   9.390 -0.4748  0.4127  0.3046
   45CHL1  H21A 5789   2.916   4.012   9.301 -0.9384 -2.2600 -1.0457
   45CHL1  H21B 5790   2.886   3.969   9.474  0.8019  0.5898  1.4077
   45CHL1  H21C 5791   2.966   3.852   9.372  0.0337  0.4793  0.0822
   45CHL1   C22 5792   3.214   4.000   9.346  0.5058  0.3728 -0.3824
   45CHL1  H22A 5793   3.301   4.051   9.392  1.4709 -0.6843 -0.9770
   45CHL1  H22B 5794   3.232   3.893   9.319  0.9861  0.6894 -1.3505
   45CHL1   C23 5795   3.181   4.071   9.211 -0.0747  0.5789  0.2979
   45CHL1  H23A 5796   3.111   4.014   9.147  0.7835  0.9221 -0.9962
   45CHL1  H23B 5797   3.139   4.172   9.230  0.8293  0.7729  1.3036
   45CHL1   C24 5798   3.311   4.088   9.138 -0.3810  0.0764 -0.3944
   45CHL1  H24A 5799   3.370   4.149   9.210  0.8239  0.2468 -1.5139
   45CHL1  H24B 5800   3.371   3.995   9.132 -0.3937 -0.0724  1.4184
   45CHL1   C25 5801   3.314   4.157   9.004  0.3914 -0.6623 -0.3948
   45CHL1   H25 5802   3.287   4.264   9.005  0.6223 -0.6023 -0.7570
   45CHL1   C26 5803   3.452   4.148   8.945  1.0688  0.0200  0.0041
   45CHL1  H26A 5804   3.474   4.040   8.928  0.2790 -0.1562  0.0899
   45CHL1  H26B 5805   3.453   4.199   8.847  2.8866 -0.3685 -0.1947
   45CHL1  H26C 5806   3.530   4.188   9.014  2.5833 -0.0786 -1.6109
   45CHL1   C27 5807   3.204   4.096   8.914 -0.1851 -0.7297  0.8166
   45CHL1  H27A 5808   3.213   3.986   8.915  0.4704 -0.7562 -2.7600
   45CHL1  H27B 5809   3.101   4.127   8.942  0.6966  3.1710  0.0240
   45CHL1  H27C 5810   3.220   4.130   8.810 -0.0431  4.1969  2.3070
   46CHL1    C3 5811   5.729   1.769  10.042 -0.2860 -0.5671 -0.0634
   46CHL1    H3 5812   5.803   1.688  10.057  0.5187  0.4715  1.8518
   46CHL1    O3 5813   5.701   1.816  10.175 -0.7588 -0.0022  0.3916
   46CHL1   H3' 5814   5.678   1.744  10.235  0.5116 -0.6435  0.1329
   46CHL1    C4 5815   5.793   1.885   9.963 -0.3593  0.6806  0.1274
   46CHL1   H4A 5816   5.739   1.982   9.963  0.0506  0.9076 -0.3948
   46CHL1   H4B 5817   5.886   1.907  10.021  1.2347  1.1667 -2.5403
   46CHL1    C5 5818   5.830   1.836   9.825  0.0425  0.0726  0.3494
   46CHL1    C6 5819   5.956   1.840   9.785  0.3790  0.4077  0.4503
   46CHL1    H6 5820   6.028   1.899   9.843 -0.4682 -0.6996  2.6736
   46CHL1    C7 5821   5.985   1.801   9.642 -0.7701  0.3308 -0.2864
   46CHL1   H7A 5822   6.041   1.879   9.586 -1.4263  1.3689  0.4814
   46CHL1   H7B 5823   6.060   1.719   9.645 -0.3231  0.7533  0.4272
   46CHL1    C8 5824   5.863   1.765   9.548 -0.3199 -0.0419  0.4247
   46CHL1    H8 5825   5.832   1.864   9.508 -1.8614 -0.4927  0.4794
   46CHL1   C14 5826   5.912   1.664   9.440 -0.3508 -0.3987  0.8486
   46CHL1   H14 5827   5.959   1.582   9.498  1.2357 -0.4789 -0.5012
   46CHL1   C15 5828   6.027   1.701   9.353 -0.8959  0.2477  0.1283
   46CHL1  H15A 5829   6.025   1.809   9.324 -0.5223  0.9478  2.5852
   46CHL1  H15B 5830   6.120   1.687   9.413 -0.1130 -0.2218 -1.1687
   46CHL1   C16 5831   6.014   1.608   9.230  0.2964 -0.5057 -0.2164
   46CHL1  H16A 5832   6.022   1.679   9.144 -0.2036 -1.8111 -1.3521
   46CHL1  H16B 5833   6.096   1.534   9.217  0.8810  0.4309 -2.0637
   46CHL1   C17 5834   5.881   1.532   9.248 -0.8997  0.0729  0.0388
   46CHL1   H17 5835   5.915   1.449   9.314 -1.7380 -0.9292 -0.7651
   46CHL1   C13 5836   5.798   1.615   9.346  0.3851  0.6234 -0.1144
   46CHL1   C18 5837   5.738   1.732   9.277  0.0655  1.0325  0.0748
   46CHL1  H18A 5838   5.693   1.799   9.353  0.9259 -0.0510  1.5492
   46CHL1  H18B 5839   5.812   1.792   9.220  1.6611 -2.2760 -1.4430
   46CHL1  H18C 5840   5.659   1.689   9.210 -1.1650  0.1953  2.0099
   46CHL1   C12 5841   5.697   1.536   9.430  0.1505 -0.7548 -0.6112
   46CHL1  H12A 5842   5.611   1.522   9.361  0.3506  0.9828 -1.2615
   46CHL1  H12B 5843   5.738   1.441   9.470 -1.9899 -0.5715  2.1408
   46CHL1   C11 5844   5.646   1.620   9.546 -0.0452  0.2449 -0.4529
   46CHL1  H11A 5845   5.589   1.703   9.499 -1.0055  0.9188  1.8294
   46CHL1  H11B 5846   5.585   1.553   9.610  0.0441 -0.6082 -1.2614
   46CHL1    C9 5847   5.756   1.690   9.631 -0.4211 -0.3262  0.4575
   46CHL1    H9 5848   5.812   1.605   9.675 -0.2320  0.4677  1.7708
   46CHL1   C10 5849   5.713   1.773   9.755  0.0961  0.5002  0.4766
   46CHL1   C19 5850   5.614   1.890   9.708  0.1064  0.9350 -0.1415
   46CHL1  H19A 5851   5.657   1.957   9.631 -1.5156  0.2322 -1.7054
   46CHL1  H19B 5852   5.516   1.846   9.677 -0.5179 -0.6075  3.7245
   46CHL1  H19C 5853   5.575   1.941   9.798 -0.2898  0.3946 -0.0025
   46CHL1    C1 5854   5.635   1.674   9.842 -0.1951  0.0774  1.4818
   46CHL1   H1A 5855   5.546   1.630   9.792  2.3148 -1.2000 -2.0789
   46CHL1   H1B 5856   5.714   1.598   9.861  0.3595  0.0038 -0.9059
   46CHL1    C2 5857   5.602   1.723   9.985 -0.4626 -0.4290  0.6850
   46CHL1   H2A 5858   5.566   1.636  10.044  0.2896 -1.4243 -0.3102
   46CHL1   H2B 5859   5.519   1.797   9.979 -0.3944 -0.3859  0.2663
   46CHL1   C20 5860   5.824   1.478   9.120  0.3178  0.4496 -0.6419
   46CHL1   H20 5861   5.715   1.468   9.137  0.2955 -3.4831 -2.6659
   46CHL1   C21 5862   5.883   1.338   9.106  0.6072  0.3171 -0.1010
   46CHL1  H21A 5863   5.994   1.341   9.100  0.7463 -1.4351  1.3134
   46CHL1  H21B 5864   5.844   1.285   9.016 -0.0404 -1.6470  1.3123
   46CHL1  H21C 5865   5.851   1.267   9.185  1.6063 -1.7136 -1.4887
   46CHL1   C22 5866   5.860   1.555   8.990  0.1694  0.2503  0.0182
   46CHL1  H22A 5867   5.859   1.661   9.025 -0.0889 -0.6335  2.7821
   46CHL1  H22B 5868   5.961   1.526   8.954 -0.3370 -3.2326  1.2858
   46CHL1   C23 5869   5.751   1.563   8.880  0.3081 -0.6496  0.1094
   46CHL1  H23A 5870   5.732   1.459   8.846 -0.8240 -0.6471  0.7317
   46CHL1  H23B 5871   5.655   1.595   8.925 -0.2765 -0.3247 -1.3394
   46CHL1   C24 5872   5.782   1.664   8.775 -0.7673 -0.7045 -0.6050
   46CHL1  H24A 5873   5.815   1.760   8.820 -2.5330 -1.8243  3.3293
   46CHL1  H24B 5874   5.866   1.610   8.727 -0.4456 -2.4091  1.7709
   46CHL1   C25 5875   5.682   1.689   8.666 -0.6272  0.3285  0.9796
   46CHL1   H25 5876   5.650   1.586   8.640  0.0243  0.5128 -0.6133
   46CHL1   C26 5877   5.564   1.772   8.721  0.0756  0.0387 -0.6873
   46CHL1  H26A 5878   5.503   1.809   8.636 -0.7701 -0.2678 -0.2123
   46CHL1  H26B 5879   5.500   1.708   8.785  1.4149 -0.9659 -0.3425
   46CHL1  H26C 5880   5.611   1.856   8.777  3.0648 -2.1363  0.1987
   46CHL1   C27 5881   5.744   1.746   8.538 -0.4874 -0.5654  0.0877
   46CHL1  H27A 5882   5.656   1.755   8.471  0.7132 -0.0485 -1.4402
   46CHL1  H27B 5883   5.790   1.846   8.554 -2.1926  0.2953 -0.2598
   46CHL1  H27C 5884   5.817   1.673   8.497  1.6249  1.9469 -0.7461
   47CHL1    C3 5885   0.274   5.010  10.122 -0.2670  0.0409 -0.1054
   47CHL1    H3 5886   0.269   5.121  10.128 -0.1925  0.1607 -2.0286
   47CHL1    O3 5887   0.275   4.956  10.250  0.0540  0.0537  0.5465
   47CHL1   H3' 5888   0.305   4.866  10.236  0.6160  0.3484 -0.1871
   47CHL1    C4 5889   0.149   4.959  10.058  0.9029 -0.6169 -0.7816
   47CHL1   H4A 5890   0.136   4.850  10.073  0.5626 -0.5030 -0.2435
   47CHL1   H4B 5891   0.062   4.994  10.118  0.0872 -0.4708 -2.0186
   47CHL1    C5 5892   0.124   4.979   9.914 -0.1600 -0.2738 -1.0241
   47CHL1    C6 5893   0.012   5.032   9.862 -0.3987 -0.0647  0.6255
   47CHL1    H6 5894  -0.076   5.057   9.922 -2.2987 -0.5490 -1.8562
   47CHL1    C7 5895   0.001   5.060   9.714  0.2228  0.6429  0.2823
   47CHL1   H7A 5896  -0.099   5.024   9.682  0.7452 -0.8638  0.2878
   47CHL1   H7B 5897   0.017   5.165   9.682  0.7559  1.4720  3.1846
   47CHL1    C8 5898   0.106   4.970   9.634  0.1836 -0.3646  0.2378
   47CHL1    H8 5899   0.073   4.863   9.637 -0.8538 -0.0872 -1.0749
   47CHL1   C14 5900   0.098   5.008   9.487 -0.6758 -0.1824 -0.5375
   47CHL1   H14 5901   0.114   5.118   9.489  2.2925 -0.5634 -0.6937
   47CHL1   C15 5902  -0.032   4.988   9.414 -0.3570  0.1355  0.3907
   47CHL1  H15A 5903  -0.054   4.882   9.439  0.4937  0.2113  1.4987
   47CHL1  H15B 5904  -0.115   5.055   9.446  0.1011  0.5881  0.6412
   47CHL1   C16 5905  -0.001   5.006   9.269  0.1877 -0.0596 -0.1422
   47CHL1  H16A 5906  -0.046   4.914   9.226  0.1614 -0.3276  0.4589
   47CHL1  H16B 5907  -0.050   5.094   9.222  0.0266 -0.8294 -1.4532
   47CHL1   C17 5908   0.159   5.003   9.257  0.4144 -0.0139  0.6442
   47CHL1   H17 5909   0.202   5.105   9.251  0.7701 -0.2372 -0.7413
   47CHL1   C13 5910   0.203   4.947   9.396 -0.5079 -0.6307  0.4813
   47CHL1   C18 5911   0.190   4.797   9.389  0.0041  0.0684 -0.0409
   47CHL1  H18A 5912   0.092   4.780   9.339  0.4090 -0.3746 -0.6841
   47CHL1  H18B 5913   0.279   4.756   9.337 -0.0363 -0.5144  0.3474
   47CHL1  H18C 5914   0.178   4.755   9.491  0.3829  0.8566  0.3289
   47CHL1   C12 5915   0.348   4.990   9.447 -0.0732  0.0386  0.1732
   47CHL1  H12A 5916   0.430   4.950   9.385 -0.6438 -0.3081 -0.3570
   47CHL1  H12B 5917   0.366   5.099   9.433 -0.4315  0.2017  0.9323
   47CHL1   C11 5918   0.365   4.940   9.591 -0.6596  1.1360 -0.4542
   47CHL1  H11A 5919   0.363   4.830   9.606 -1.1286  0.9749 -1.6801
   47CHL1  H11B 5920   0.464   4.978   9.627 -0.3973  0.7334 -0.7595
   47CHL1    C9 5921   0.249   4.992   9.690 -0.5706 -0.1003 -0.0600
   47CHL1    H9 5922   0.257   5.103   9.693 -1.3589 -0.0791  4.1562
   47CHL1   C10 5923   0.261   4.942   9.841  0.1773 -0.0856 -0.0967
   47CHL1   C19 5924   0.274   4.794   9.841  0.5413  0.6696 -0.1944
   47CHL1  H19A 5925   0.246   4.746   9.938 -1.8105 -1.7386 -1.9941
   47CHL1  H19B 5926   0.213   4.749   9.761 -0.1459  1.3585 -0.0562
   47CHL1  H19C 5927   0.378   4.763   9.815  0.1428 -1.3501  0.5202
   47CHL1    C1 5928   0.386   5.002   9.905  0.3405 -0.1090 -0.4902
   47CHL1   H1A 5929   0.479   4.961   9.861  0.0282 -1.3576 -0.0039
   47CHL1   H1B 5930   0.390   5.113   9.895 -1.3412 -0.2123 -2.7621
   47CHL1    C2 5931   0.403   4.969  10.055 -0.3614  0.5111  0.4701
   47CHL1   H2A 5932   0.487   5.022  10.104 -1.5238 -0.2711  3.4037
   47CHL1   H2B 5933   0.420   4.860  10.065  0.7811  0.6329 -0.1425
   47CHL1   C20 5934   0.217   4.943   9.132 -0.8198 -0.0003  0.0264
   47CHL1   H20 5935   0.206   4.833   9.134 -1.5810  0.0540 -0.8919
   47CHL1   C21 5936   0.368   4.971   9.122  0.3352 -0.0061 -0.6047
   47CHL1  H21A 5937   0.407   4.959   9.018 -0.9298 -0.6651 -1.0156
   47CHL1  H21B 5938   0.408   4.881   9.175 -1.0716 -0.8954 -1.0183
   47CHL1  H21C 5939   0.403   5.058   9.182  0.1739 -0.2636 -0.1373
   47CHL1   C22 5940   0.156   4.979   8.999 -0.0627 -0.8721  1.0670
   47CHL1  H22A 5941   0.205   4.921   8.917 -0.3214  0.8252 -0.3196
   47CHL1  H22B 5942   0.050   4.944   8.998 -0.6597  0.8867  0.9568
   47CHL1   C23 5943   0.160   5.133   8.969 -0.3149 -0.3729  0.1338
   47CHL1  H23A 5944   0.146   5.194   9.061  0.2482  1.2016 -0.8066
   47CHL1  H23B 5945   0.269   5.144   8.950 -0.1794 -0.4025  0.8766
   47CHL1   C24 5946   0.090   5.177   8.842 -0.3532 -0.1236  0.4769
   47CHL1  H24A 5947   0.134   5.120   8.757 -1.2576 -2.3621  1.4517
   47CHL1  H24B 5948  -0.018   5.150   8.848  0.0808 -1.9826  0.3316
   47CHL1   C25 5949   0.083   5.333   8.817  0.1331 -0.8998 -0.0129
   47CHL1   H25 5950  -0.002   5.364   8.880  0.4367  0.8298 -0.4316
   47CHL1   C26 5951   0.207   5.416   8.857 -0.2336 -0.0408  0.3436
   47CHL1  H26A 5952   0.224   5.413   8.967  0.5925  0.3513  0.2285
   47CHL1  H26B 5953   0.186   5.520   8.825 -1.5907  0.1505  1.7562
   47CHL1  H26C 5954   0.297   5.374   8.808  0.6549  1.8943  0.2652
   47CHL1   C27 5955   0.049   5.367   8.673  0.3303 -0.7933 -0.2334
   47CHL1  H27A 5956   0.135   5.353   8.605  0.8778 -1.4726  0.5976
   47CHL1  H27B 5957  -0.042   5.314   8.638 -0.6967  0.7368  0.0561
   47CHL1  H27C 5958   0.028   5.476   8.667 -0.3167 -1.0050 -2.1922
   48CHL1    C3 5959   0.805   5.410   9.886 -0.0397 -0.1495 -0.2577
   48CHL1    H3 5960   0.893   5.470   9.857 -0.8184  0.3369 -1.6630
   48CHL1    O3 5961   0.815   5.400  10.030  0.2811 -0.0914 -0.1191
   48CHL1   H3' 5962   0.732   5.419  10.073 -0.0804 -0.1237 -0.7955
   48CHL1    C4 5963   0.666   5.478   9.852  0.2012 -0.0873  0.0132
   48CHL1   H4A 5964   0.583   5.429   9.907 -1.3796  2.5097  0.0310
   48CHL1   H4B 5965   0.676   5.579   9.895 -2.7671  0.1432  0.2862
   48CHL1    C5 5966   0.655   5.482   9.701  0.6342  0.3764 -0.4832
   48CHL1    C6 5967   0.622   5.597   9.642  0.0810 -0.0221  0.5030
   48CHL1    H6 5968   0.607   5.685   9.707 -0.3598  1.6140 -1.7379
   48CHL1    C7 5969   0.629   5.603   9.491  0.6202 -0.1279  0.3086
   48CHL1   H7A 5970   0.571   5.686   9.446 -0.6940 -1.3272 -0.2206
   48CHL1   H7B 5971   0.733   5.634   9.465  0.0913  0.0059 -1.7668
   48CHL1    C8 5972   0.603   5.469   9.414 -0.2709 -0.0716 -0.1988
   48CHL1    H8 5973   0.495   5.444   9.422 -0.3641 -0.3942 -2.0871
   48CHL1   C14 5974   0.647   5.480   9.271  0.2098 -0.5769 -0.2470
   48CHL1   H14 5975   0.757   5.497   9.283 -0.1659  0.6265  1.7465
   48CHL1   C15 5976   0.601   5.602   9.185 -0.8364 -0.0640 -0.2047
   48CHL1  H15A 5977   0.492   5.604   9.207 -0.8028  1.0081 -0.1520
   48CHL1  H15B 5978   0.652   5.692   9.226  1.5701 -0.8842 -1.2577
   48CHL1   C16 5979   0.642   5.560   9.042 -0.0131  0.0352 -0.2390
   48CHL1  H16A 5980   0.559   5.588   8.974 -0.7079 -0.2306  0.4957
   48CHL1  H16B 5981   0.732   5.601   8.992  0.9040 -3.6632 -1.7849
   48CHL1   C17 5982   0.678   5.410   9.047  0.6603 -0.2238  0.2633
   48CHL1   H17 5983   0.788   5.401   9.046  0.7444  0.5691 -2.6527
   48CHL1   C13 5984   0.627   5.356   9.185  0.0773  0.7813 -0.5170
   48CHL1   C18 5985   0.477   5.326   9.175  0.2791  0.3344 -0.3487
   48CHL1  H18A 5986   0.441   5.287   9.272  2.4918  0.1445  0.4222
   48CHL1  H18B 5987   0.429   5.424   9.153 -2.4465 -0.9769 -0.3955
   48CHL1  H18C 5988   0.455   5.253   9.094 -2.9025 -0.2902  1.0051
   48CHL1   C12 5989   0.701   5.235   9.245 -0.2692 -0.1243 -0.1012
   48CHL1  H12A 5990   0.670   5.138   9.200  0.7895 -0.4202 -0.2018
   48CHL1  H12B 5991   0.807   5.246   9.213  0.0225  1.1371  1.2579
   48CHL1   C11 5992   0.675   5.219   9.397  0.0248  0.1853 -0.4190
   48CHL1  H11A 5993   0.572   5.178   9.403  0.1374 -0.4520 -2.4421
   48CHL1  H11B 5994   0.754   5.152   9.435  0.0050  1.3521  1.7723
   48CHL1    C9 5995   0.686   5.360   9.475 -0.2227  0.2740 -0.6301
   48CHL1    H9 5996   0.794   5.380   9.457 -0.4888 -0.5119 -3.1696
   48CHL1   C10 5997   0.668   5.343   9.629 -1.2188 -0.5720 -0.5771
   48CHL1   C19 5998   0.549   5.252   9.651 -0.5310 -0.2314 -0.7895
   48CHL1  H19A 5999   0.567   5.146   9.622 -0.8825  0.1875 -2.5973
   48CHL1  H19B 6000   0.518   5.254   9.758  0.1727  0.1774 -0.5959
   48CHL1  H19C 6001   0.460   5.287   9.594  0.3942 -0.1223 -2.1933
   48CHL1    C1 6002   0.793   5.261   9.682 -0.5719  0.3962  0.4618
   48CHL1   H1A 6003   0.780   5.153   9.657 -1.3835  0.6931 -0.4093
   48CHL1   H1B 6004   0.887   5.302   9.639  0.5232 -0.6601  1.7974
   48CHL1    C2 6005   0.810   5.260   9.835 -0.0647  0.6512 -0.0690
   48CHL1   H2A 6006   0.908   5.214   9.857 -0.2016  0.9636  1.2556
   48CHL1   H2B 6007   0.733   5.196   9.885  0.9935 -0.1377  0.5582
   48CHL1   C20 6008   0.637   5.337   8.908  0.0539  0.0241 -0.1705
   48CHL1   H20 6009   0.526   5.333   8.910 -0.0136  1.1644 -0.9973
   48CHL1   C21 6010   0.685   5.188   8.912 -0.4855 -0.4089 -0.5855
   48CHL1  H21A 6011   0.660   5.132   8.820  0.2725 -0.7229 -0.6003
   48CHL1  H21B 6012   0.636   5.140   9.000  0.6355  0.6643  0.6550
   48CHL1  H21C 6013   0.792   5.179   8.937 -0.7553 -0.5227  0.5653
   48CHL1   C22 6014   0.675   5.420   8.784 -0.9486  0.1562 -0.2999
   48CHL1  H22A 6015   0.617   5.511   8.756 -1.6956 -0.6572 -1.4095
   48CHL1  H22B 6016   0.773   5.470   8.800 -1.2967  0.9435 -0.5789
   48CHL1   C23 6017   0.692   5.344   8.646  0.6411 -0.0966 -0.4629
   48CHL1  H23A 6018   0.749   5.249   8.645  2.1460  0.7870 -0.5675
   48CHL1  H23B 6019   0.588   5.321   8.616 -0.1012 -0.3271  2.1313
   48CHL1   C24 6020   0.759   5.437   8.546  0.0895 -0.5217  0.2165
   48CHL1  H24A 6021   0.711   5.538   8.553 -3.2363 -1.9639 -0.5009
   48CHL1  H24B 6022   0.859   5.465   8.584 -0.0359 -1.5874  1.3408
   48CHL1   C25 6023   0.739   5.405   8.404  0.6152  0.2198  0.2022
   48CHL1   H25 6024   0.799   5.479   8.348  2.1471  0.3603  1.9801
   48CHL1   C26 6025   0.799   5.263   8.378 -0.8809  0.2566  1.2079
   48CHL1  H26A 6026   0.886   5.237   8.441  0.3488 -0.5739 -0.8016
   48CHL1  H26B 6027   0.723   5.186   8.403 -0.0118 -0.8370  0.5264
   48CHL1  H26C 6028   0.815   5.242   8.271 -0.0115 -0.8282  1.5501
   48CHL1   C27 6029   0.600   5.420   8.359  0.0981 -0.1864  0.4931
   48CHL1  H27A 6030   0.523   5.355   8.407 -0.2314 -1.9538 -2.3431
   48CHL1  H27B 6031   0.560   5.523   8.372 -1.1653 -0.7588  1.3575
   48CHL1  H27C 6032   0.595   5.381   8.255  1.5950 -0.1071  0.3799
   49CHL1    C3 6033   6.002   1.481  10.289 -0.3452 -0.0198  0.3586
   49CHL1    H3 6034   5.949   1.578  10.281  1.1805  0.7253 -1.1956
   49CHL1    O3 6035   6.067   1.486  10.416  0.0358  0.3555  0.0043
   49CHL1   H3' 6036   6.162   1.477  10.408  0.0851  1.4897 -0.9392
   49CHL1    C4 6037   5.906   1.360  10.290 -0.0019  0.3971 -0.4038
   49CHL1   H4A 6038   5.959   1.273  10.334  1.3447  1.5199  0.2098
   49CHL1   H4B 6039   5.826   1.379  10.366 -2.1750 -1.7011 -2.0649
   49CHL1    C5 6040   5.844   1.334  10.158  0.3116  1.1009 -0.0845
   49CHL1    C6 6041   5.712   1.328  10.133 -0.7202  0.3370 -0.0845
   49CHL1    H6 6042   5.644   1.351  10.216 -3.2742  1.7865 -2.4851
   49CHL1    C7 6043   5.644   1.281  10.009  0.4828  0.1817 -0.0193
   49CHL1   H7A 6044   5.559   1.218  10.039 -0.4491  1.2856 -0.3073
   49CHL1   H7B 6045   5.588   1.366   9.964  0.0199  1.0266  2.1308
   49CHL1    C8 6046   5.746   1.221   9.911  0.3332  0.3050  0.6389
   49CHL1    H8 6047   5.767   1.117   9.946 -0.6792 -0.7043 -1.5945
   49CHL1   C14 6048   5.690   1.211   9.766  0.2777 -0.0630  0.1203
   49CHL1   H14 6049   5.671   1.316   9.739 -0.9740 -0.1075  0.8115
   49CHL1   C15 6050   5.551   1.137   9.737  0.7088 -0.2789 -0.1578
   49CHL1  H15A 6051   5.550   1.039   9.788 -0.7925 -1.5574 -2.5788
   49CHL1  H15B 6052   5.473   1.201   9.783 -1.9623 -3.8707  0.5144
   49CHL1   C16 6053   5.544   1.130   9.584  0.5316  0.3503  0.9955
   49CHL1  H16A 6054   5.493   1.037   9.550 -5.7483  3.6735  0.6069
   49CHL1  H16B 6055   5.483   1.219   9.559 -0.0757  0.3100  2.2986
   49CHL1   C17 6056   5.692   1.150   9.541 -0.3606  0.2360  0.3800
   49CHL1   H17 6057   5.690   1.249   9.490 -1.5870  1.1435  2.1510
   49CHL1   C13 6058   5.778   1.141   9.665  0.8379  1.0354 -0.5775
   49CHL1   C18 6059   5.804   0.997   9.700  0.5430  0.4133 -0.0996
   49CHL1  H18A 6060   5.855   0.992   9.798 -2.1936  1.1994  1.4102
   49CHL1  H18B 6061   5.709   0.940   9.691  1.7481 -1.8776  1.5008
   49CHL1  H18C 6062   5.872   0.948   9.626  1.4490  1.1659  0.2301
   49CHL1   C12 6063   5.896   1.239   9.657  0.1863 -0.1080  0.3861
   49CHL1  H12A 6064   5.971   1.195   9.589 -1.3815 -1.6976 -0.3515
   49CHL1  H12B 6065   5.847   1.329   9.615 -0.6495 -0.1539  1.2231
   49CHL1   C11 6066   5.973   1.257   9.792 -0.5226  0.4206  0.7956
   49CHL1  H11A 6067   6.029   1.163   9.810 -0.5739  0.2511  0.0850
   49CHL1  H11B 6068   6.058   1.326   9.770 -1.1741 -0.0215 -3.4474
   49CHL1    C9 6069   5.876   1.300   9.908 -0.4608  0.5308 -0.4362
   49CHL1    H9 6070   5.843   1.400   9.872 -0.8084  0.3060 -0.7394
   49CHL1   C10 6071   5.945   1.311  10.044 -1.0782 -0.6150 -1.0868
   49CHL1   C19 6072   6.023   1.180  10.073 -0.3028  0.0276 -0.0089
   49CHL1  H19A 6073   6.108   1.163  10.004 -1.5649  0.6923 -1.7754
   49CHL1  H19B 6074   6.057   1.167  10.178  2.4703  0.9502 -0.7710
   49CHL1  H19C 6075   5.947   1.099  10.066 -1.0075  0.5823  1.0160
   49CHL1    C1 6076   6.032   1.443  10.043 -0.1909  0.6204  0.0607
   49CHL1   H1A 6077   6.111   1.424   9.967  0.2529 -2.0401  1.1285
   49CHL1   H1B 6078   5.974   1.535  10.023 -2.1201 -0.5155  0.3184
   49CHL1    C2 6079   6.105   1.463  10.177  0.1335 -0.1642  0.4367
   49CHL1   H2A 6080   6.176   1.548  10.179 -0.5100  0.4477 -1.8539
   49CHL1   H2B 6081   6.156   1.366  10.194  1.4049  0.4543  0.2040
   49CHL1   C20 6082   5.730   1.057   9.419 -0.0072  0.6330 -0.5353
   49CHL1   H20 6083   5.715   0.954   9.459 -2.1333  0.7420 -0.9772
   49CHL1   C21 6084   5.880   1.083   9.384 -0.5193  0.0650 -0.1861
   49CHL1  H21A 6085   5.904   1.027   9.291  0.7743  1.5153 -0.7609
   49CHL1  H21B 6086   5.942   1.042   9.467 -1.3587 -0.2617  0.2803
   49CHL1  H21C 6087   5.906   1.191   9.379  0.5811 -0.1835  0.0286
   49CHL1   C22 6088   5.635   1.086   9.303  0.3804 -0.2968  0.4108
   49CHL1  H22A 6089   5.528   1.081   9.330 -0.0133  2.9141 -0.3191
   49CHL1  H22B 6090   5.670   1.180   9.253 -2.9969 -0.0881 -1.6931
   49CHL1   C23 6091   5.638   0.974   9.197  0.6180  0.1779 -0.4004
   49CHL1  H23A 6092   5.737   0.927   9.181  1.1515  1.0129  0.3959
   49CHL1  H23B 6093   5.555   0.903   9.217 -0.0937  1.1640  0.1888
   49CHL1   C24 6094   5.586   1.032   9.057 -0.7105  0.4193 -0.1809
   49CHL1  H24A 6095   5.485   1.079   9.067  0.2479  2.1228  1.8061
   49CHL1  H24B 6096   5.659   1.107   9.018  1.4293 -0.9312  1.1675
   49CHL1   C25 6097   5.598   0.928   8.944 -0.6873  0.2941  0.1292
   49CHL1   H25 6098   5.529   0.848   8.979 -3.2993  1.4752 -2.1229
   49CHL1   C26 6099   5.556   0.990   8.810 -0.1601 -0.2785 -0.4036
   49CHL1  H26A 6100   5.559   0.919   8.725 -2.0061  0.9678 -1.5462
   49CHL1  H26B 6101   5.451   1.024   8.826  0.9434  1.6906  3.3850
   49CHL1  H26C 6102   5.625   1.074   8.786 -1.8063  1.5409  1.0211
   49CHL1   C27 6103   5.743   0.868   8.925 -0.5317  0.5553 -0.4551
   49CHL1  H27A 6104   5.745   0.806   8.833  0.9928 -0.0509 -0.0189
   49CHL1  H27B 6105   5.812   0.954   8.913  0.9005 -0.3139  1.3196
   49CHL1  H27C 6106   5.772   0.807   9.013  0.5398  0.8245 -0.6150
   50CHL1    C3 6107   1.990   3.302  10.385  0.0533  0.0284  0.1981
   50CHL1    H3 6108   2.099   3.282  10.395 -0.0141  0.1073  1.1280
   50CHL1    O3 6109   1.934   3.359  10.505  0.0052  0.3226  0.0768
   50CHL1   H3' 6110   1.840   3.342  10.493  0.2783 -1.1642 -0.0610
   50CHL1    C4 6111   1.960   3.414  10.274  0.0298  0.0482  0.7961
   50CHL1   H4A 6112   1.852   3.440  10.276 -0.4972 -2.0591  0.5015
   50CHL1   H4B 6113   2.005   3.509  10.309 -0.7864  1.0517 -0.7874
   50CHL1    C5 6114   1.998   3.372  10.136  0.0348 -0.2531 -0.0340
   50CHL1    C6 6115   2.083   3.445  10.066 -0.3303  0.0199  0.4313
   50CHL1    H6 6116   2.128   3.535  10.110  0.6901 -0.5815  0.6142
   50CHL1    C7 6117   2.107   3.415   9.919  0.2952 -0.3224 -0.1191
   50CHL1   H7A 6118   2.087   3.506   9.860 -0.3936 -0.0678  0.5077
   50CHL1   H7B 6119   2.214   3.385   9.916  0.5861  0.7610 -0.7947
   50CHL1    C8 6120   2.017   3.305   9.860 -0.1186  0.6356  0.3006
   50CHL1    H8 6121   1.919   3.352   9.838 -0.3087  0.5018  0.8552
   50CHL1   C14 6122   2.088   3.255   9.734  0.0845  0.5634 -0.3196
   50CHL1   H14 6123   2.176   3.194   9.760  1.4268  1.9613 -1.4895
   50CHL1   C15 6124   2.141   3.361   9.636 -0.0041  0.3063 -0.2106
   50CHL1  H15A 6125   2.062   3.438   9.627 -0.3963 -0.2508 -1.6325
   50CHL1  H15B 6126   2.237   3.409   9.666 -0.7922  1.2562  0.7995
   50CHL1   C16 6127   2.143   3.290   9.500 -0.5766 -0.8261 -0.4033
   50CHL1  H16A 6128   2.086   3.348   9.424  1.1150 -0.1063 -1.1419
   50CHL1  H16B 6129   2.248   3.286   9.465  0.0033  0.2505  1.1307
   50CHL1   C17 6130   2.083   3.149   9.519  0.3510  0.4156  0.6810
   50CHL1   H17 6131   2.169   3.082   9.543  0.2118 -0.0184 -0.0280
   50CHL1   C13 6132   2.000   3.155   9.648  0.0767  0.0924 -0.0122
   50CHL1   C18 6133   1.867   3.228   9.608  0.2656  0.2611  0.3609
   50CHL1  H18A 6134   1.807   3.155   9.550  0.4777  1.4335 -1.3477
   50CHL1  H18B 6135   1.807   3.256   9.698 -1.3448 -1.4595 -0.1337
   50CHL1  H18C 6136   1.890   3.314   9.542 -0.8678  0.5654  0.3467
   50CHL1   C12 6137   1.975   3.036   9.738  0.4373  0.2344  0.1313
   50CHL1  H12A 6138   1.895   2.980   9.685  0.8873  0.2300 -0.5445
   50CHL1  H12B 6139   2.056   2.960   9.737 -1.0426 -1.4024  1.4724
   50CHL1   C11 6140   1.926   3.069   9.881  0.0896  0.0025  0.4279
   50CHL1  H11A 6141   1.822   3.107   9.873  0.4337  0.7736 -0.4877
   50CHL1  H11B 6142   1.923   2.974   9.938  3.0807  0.0681  0.7729
   50CHL1    C9 6143   2.004   3.185   9.956  0.4511 -0.2964 -0.0498
   50CHL1    H9 6144   2.104   3.144   9.982  1.3715  1.1977 -1.1098
   50CHL1   C10 6145   1.932   3.232  10.093  0.5540  0.0844 -0.4753
   50CHL1   C19 6146   1.778   3.252  10.078  1.0204  0.1937  0.6959
   50CHL1  H19A 6147   1.766   3.352  10.030 -0.1720  0.5481  1.7285
   50CHL1  H19B 6148   1.715   3.172  10.033  2.6077 -0.4803 -0.3799
   50CHL1  H19C 6149   1.718   3.280  10.167 -2.2646 -1.4596 -0.9048
   50CHL1    C1 6150   1.962   3.125  10.207 -0.1629  0.5950  0.1817
   50CHL1   H1A 6151   1.903   3.034  10.184 -2.0358  2.3528 -2.2745
   50CHL1   H1B 6152   2.065   3.086  10.218 -0.2768  0.0336 -0.7350
   50CHL1    C2 6153   1.914   3.175  10.347 -0.2537  0.0120 -0.4801
   50CHL1   H2A 6154   1.933   3.087  10.412 -2.2898 -0.8392 -0.9923
   50CHL1   H2B 6155   1.806   3.197  10.338  0.2977  2.5398 -1.2213
   50CHL1   C20 6156   2.016   3.098   9.388 -0.5353 -0.0019  0.3711
   50CHL1   H20 6157   1.926   3.159   9.364 -1.3053 -1.4689 -0.4961
   50CHL1   C21 6158   1.964   2.952   9.409  0.0536 -0.7404 -0.2622
   50CHL1  H21A 6159   2.033   2.871   9.442  3.5724  1.9005 -0.7529
   50CHL1  H21B 6160   1.908   2.921   9.319 -0.4153  0.7600 -0.5071
   50CHL1  H21C 6161   1.880   2.955   9.481  0.1646 -0.8583 -0.1286
   50CHL1   C22 6162   2.108   3.114   9.267 -0.2436  0.4720  0.1910
   50CHL1  H22A 6163   2.136   3.221   9.262  1.1250  0.0888 -0.6278
   50CHL1  H22B 6164   2.206   3.060   9.271 -0.7408 -0.3447  1.6865
   50CHL1   C23 6165   2.038   3.080   9.134 -0.9543  0.2759 -0.4106
   50CHL1  H23A 6166   1.969   2.993   9.141 -1.1229  0.3703 -0.8869
   50CHL1  H23B 6167   1.968   3.165   9.118  0.4703  1.3917 -0.8395
   50CHL1   C24 6168   2.137   3.084   9.014  0.0603 -0.0193 -0.2079
   50CHL1  H24A 6169   2.222   3.149   9.043  0.9595 -1.0497 -0.4786
   50CHL1  H24B 6170   2.193   2.988   9.007 -1.5088 -0.8639 -1.5051
   50CHL1   C25 6171   2.075   3.138   8.887 -0.1187 -0.5431 -0.5264
   50CHL1   H25 6172   1.995   3.211   8.912 -0.1155 -0.5726 -0.4286
   50CHL1   C26 6173   2.180   3.225   8.808 -0.2952  0.2003  0.1898
   50CHL1  H26A 6174   2.263   3.166   8.764 -0.1964  1.1279 -0.8894
   50CHL1  H26B 6175   2.116   3.272   8.731 -1.5244 -1.1552  0.3597
   50CHL1  H26C 6176   2.222   3.300   8.878 -1.2899  0.3844  0.5978
   50CHL1   C27 6177   2.011   3.032   8.792 -0.0337  0.2273  0.7926
   50CHL1  H27A 6178   1.970   2.956   8.862 -1.8833 -0.4205 -0.9465
   50CHL1  H27B 6179   1.934   3.077   8.726  2.0154 -0.4365 -2.1647
   50CHL1  H27C 6180   2.098   2.995   8.734 -0.9924 -2.2986  0.9034
   51CHL1    C3 6181   3.053   5.054  10.223  0.3457 -0.4771  0.0303
   51CHL1    H3 6182   2.973   4.986  10.188  0.3188 -0.0797 -0.6954
   51CHL1    O3 6183   3.079   5.031  10.360 -0.6775  0.4443 -0.2161
   51CHL1   H3' 6184   3.141   5.096  10.393  0.5601 -1.8006  2.0314
   51CHL1    C4 6185   3.179   5.039  10.138  0.1260  0.4449  0.1669
   51CHL1   H4A 6186   3.263   5.104  10.173  0.2528  0.4527 -0.1471
   51CHL1   H4B 6187   3.206   4.932  10.154  0.5629  0.4132 -0.7254
   51CHL1    C5 6188   3.132   5.062   9.989 -0.3850  0.5327 -0.1233
   51CHL1    C6 6189   3.144   4.962   9.904 -0.4089 -0.0819 -0.0071
   51CHL1    H6 6190   3.178   4.863   9.935  0.9986  0.4295  0.1175
   51CHL1    C7 6191   3.106   4.965   9.755 -0.0986  0.2454  0.2087
   51CHL1   H7A 6192   3.179   4.917   9.685  0.5924 -0.7735  1.5969
   51CHL1   H7B 6193   3.008   4.916   9.738  0.1083  0.0313 -0.3847
   51CHL1    C8 6194   3.095   5.120   9.713 -0.2424  0.0256  0.3853
   51CHL1    H8 6195   3.197   5.161   9.702  0.1220 -0.8779  0.3013
   51CHL1   C14 6196   3.018   5.137   9.582 -0.0919 -0.0000  0.7933
   51CHL1   H14 6197   2.920   5.094   9.612 -0.4405  0.2187 -0.0407
   51CHL1   C15 6198   3.063   5.055   9.455 -0.1329  0.3370 -0.1132
   51CHL1  H15A 6199   3.174   5.055   9.450  0.0355 -0.3734  3.1670
   51CHL1  H15B 6200   3.028   4.950   9.453  2.1541 -0.5865  4.1716
   51CHL1   C16 6201   2.998   5.129   9.343  0.4710 -0.0458  0.2557
   51CHL1  H16A 6202   3.077   5.152   9.269 -2.5686  3.8970 -1.9064
   51CHL1  H16B 6203   2.926   5.075   9.276  1.4562 -2.2178  0.8875
   51CHL1   C17 6204   2.923   5.244   9.407  1.1473  0.2929  0.2862
   51CHL1   H17 6205   2.823   5.200   9.428  0.3865  2.3955  1.2845
   51CHL1   C13 6206   2.998   5.277   9.541  0.2882  0.3102  0.4335
   51CHL1   C18 6207   3.136   5.351   9.508 -0.4611 -0.1021  0.2069
   51CHL1  H18A 6208   3.187   5.288   9.432  0.8361  0.9540  0.1755
   51CHL1  H18B 6209   3.127   5.456   9.472  2.2409 -0.3536 -1.3555
   51CHL1  H18C 6210   3.202   5.352   9.598 -0.1426 -1.9595  0.0091
   51CHL1   C12 6211   2.916   5.348   9.644  0.0771  0.0518 -0.2214
   51CHL1  H12A 6212   2.913   5.451   9.600 -0.3306  0.5533  0.9734
   51CHL1  H12B 6213   2.811   5.313   9.648  0.6223 -1.4255  1.5979
   51CHL1   C11 6214   2.981   5.344   9.779  1.2802 -0.6568  0.2045
   51CHL1  H11A 6215   3.078   5.397   9.774  0.9896  0.1813  2.8828
   51CHL1  H11B 6216   2.913   5.388   9.855  1.4894  1.8357 -1.0061
   51CHL1    C9 6217   3.018   5.204   9.820 -0.4839  0.5156 -0.4122
   51CHL1    H9 6218   2.919   5.156   9.833 -0.4452  1.3838  3.5572
   51CHL1   C10 6219   3.079   5.200   9.961  0.7824  0.4657 -0.2345
   51CHL1   C19 6220   3.202   5.289   9.970  0.4346 -0.6185 -0.2802
   51CHL1  H19A 6221   3.247   5.297  10.071 -0.8375  0.6654  0.2001
   51CHL1  H19B 6222   3.278   5.258   9.895  2.8628 -1.0555  2.2866
   51CHL1  H19C 6223   3.173   5.393   9.945 -0.2990 -0.8248 -0.2872
   51CHL1    C1 6224   2.970   5.237  10.065  0.5532  0.0764 -0.0707
   51CHL1   H1A 6225   2.941   5.344  10.062 -0.3796 -0.1126  1.5552
   51CHL1   H1B 6226   2.871   5.194  10.041  0.4574  0.6978 -0.8147
   51CHL1    C2 6227   3.006   5.198  10.207  0.4130  0.5504  0.8171
   51CHL1   H2A 6228   2.917   5.210  10.273  0.0397  0.5827  0.3181
   51CHL1   H2B 6229   3.080   5.273  10.244  2.2397 -0.9710  0.2847
   51CHL1   C20 6230   2.892   5.356   9.311 -0.1263 -0.0629 -0.3148
   51CHL1   H20 6231   2.862   5.444   9.372 -1.0358  0.5552 -1.6241
   51CHL1   C21 6232   2.754   5.328   9.238 -0.2519  0.1535  0.3876
   51CHL1  H21A 6233   2.727   5.416   9.176  0.5216  0.2163  0.1393
   51CHL1  H21B 6234   2.681   5.308   9.319 -1.8537 -0.8003 -1.2576
   51CHL1  H21C 6235   2.762   5.235   9.177 -1.0467  0.2173  0.1755
   51CHL1   C22 6236   3.011   5.406   9.217  0.1649  0.1540 -0.0971
   51CHL1  H22A 6237   3.115   5.400   9.256 -0.4328 -0.0389  1.5114
   51CHL1  H22B 6238   3.008   5.334   9.132  0.0974 -1.3315  1.1281
   51CHL1   C23 6239   2.985   5.545   9.165 -0.3447 -0.2988  0.5745
   51CHL1  H23A 6240   2.880   5.553   9.130  0.1972 -0.6293 -1.1763
   51CHL1  H23B 6241   3.006   5.626   9.238 -0.1331  1.4516 -1.3836
   51CHL1   C24 6242   3.078   5.576   9.050  0.6858 -0.3408  0.7261
   51CHL1  H24A 6243   3.183   5.562   9.083  1.0469  2.0482  0.7088
   51CHL1  H24B 6244   3.061   5.496   8.975 -4.8103  2.4014 -1.2341
   51CHL1   C25 6245   3.036   5.711   8.988 -0.2281  0.4725 -0.7494
   51CHL1   H25 6246   2.925   5.716   8.974 -0.0200  1.2822 -2.2100
   51CHL1   C26 6247   3.079   5.832   9.077 -0.5174 -0.1339  0.1357
   51CHL1  H26A 6248   3.055   5.935   9.042 -0.4876 -0.5889 -1.2514
   51CHL1  H26B 6249   3.050   5.808   9.181  2.2653  1.3770  1.3157
   51CHL1  H26C 6250   3.190   5.836   9.085 -0.2442 -1.9502 -1.9919
   51CHL1   C27 6251   3.104   5.713   8.845  0.2892  0.3388  0.7479
   51CHL1  H27A 6252   3.208   5.675   8.852  1.1623  2.0789 -2.3299
   51CHL1  H27B 6253   3.052   5.644   8.774  1.7447  0.3542 -0.3516
   51CHL1  H27C 6254   3.109   5.818   8.810  2.5764  0.2468  0.7104
   52CHL1    C3 6255   0.039   4.078   9.998  0.9252 -0.2570  0.5043
   52CHL1    H3 6256   0.014   4.186   9.992  1.2097 -0.2281 -0.1509
   52CHL1    O3 6257   0.069   4.044  10.135 -0.9783 -0.3060  0.5740
   52CHL1   H3' 6258   0.096   3.952  10.134 -0.7754 -0.2440 -2.1901
   52CHL1    C4 6259  -0.078   4.004   9.939  0.1745  0.3806 -1.0010
   52CHL1   H4A 6260  -0.063   3.898   9.968  1.0173  0.7353 -0.1062
   52CHL1   H4B 6261  -0.171   4.026   9.996  0.1114 -2.3158 -0.0165
   52CHL1    C5 6262  -0.093   4.001   9.795  0.8941  0.6593 -0.2019
   52CHL1    C6 6263  -0.214   4.011   9.735 -0.0289  0.4717  0.4080
   52CHL1    H6 6264  -0.308   4.016   9.791  0.7183  0.1723  1.6966
   52CHL1    C7 6265  -0.235   4.003   9.583  0.6540  0.0911  0.0076
   52CHL1   H7A 6266  -0.320   3.933   9.568  0.1065  0.4642  1.3188
   52CHL1   H7B 6267  -0.268   4.102   9.544  1.4279  0.5987  0.6494
   52CHL1    C8 6268  -0.108   3.959   9.507  0.5004 -0.5503 -0.0726
   52CHL1    H8 6269  -0.098   3.851   9.526 -0.8628 -0.3342  2.0307
   52CHL1   C14 6270  -0.122   3.989   9.362  0.1603  0.1942  0.4398
   52CHL1   H14 6271  -0.136   4.099   9.350  0.2447 -0.0378 -1.9690
   52CHL1   C15 6272  -0.255   3.940   9.290 -0.4131  0.3152  0.3770
   52CHL1  H15A 6273  -0.298   3.841   9.317 -0.6372  0.4756  0.6138
   52CHL1  H15B 6274  -0.328   4.022   9.309 -0.8992  0.0796 -0.4841
   52CHL1   C16 6275  -0.216   3.924   9.148 -0.3082 -0.2932  0.2936
   52CHL1  H16A 6276  -0.221   3.817   9.120 -2.9100 -0.0356 -0.3710
   52CHL1  H16B 6277  -0.273   3.983   9.073 -0.1396  2.3359  2.1545
   52CHL1   C17 6278  -0.075   3.978   9.134 -0.0421  0.0252  0.2656
   52CHL1   H17 6279  -0.096   4.087   9.121 -4.9758 -0.8545 -0.0302
   52CHL1   C13 6280  -0.005   3.953   9.270  0.5746 -0.1917 -0.0247
   52CHL1   C18 6281   0.029   3.801   9.281  0.4487 -0.3742  0.5172
   52CHL1  H18A 6282   0.046   3.763   9.384  0.9141 -0.2633  0.4801
   52CHL1  H18B 6283  -0.048   3.731   9.242  0.0766 -0.8903  2.1306
   52CHL1  H18C 6284   0.122   3.794   9.220  1.3081  1.2129  1.6196
   52CHL1   C12 6285   0.121   4.030   9.324 -0.1761  1.0311  0.3421
   52CHL1  H12A 6286   0.205   4.000   9.257  0.3101  0.6352  1.1266
   52CHL1  H12B 6287   0.098   4.139   9.321  0.6115  1.2263  1.4884
   52CHL1   C11 6288   0.145   3.986   9.475 -1.0943  0.4222 -0.7084
   52CHL1  H11A 6289   0.173   3.879   9.480 -0.6493  0.6389  1.6151
   52CHL1  H11B 6290   0.234   4.041   9.511 -0.0786 -1.1922 -0.7078
   52CHL1    C9 6291   0.020   4.022   9.562  0.5649 -0.3585  0.0451
   52CHL1    H9 6292  -0.004   4.130   9.563 -1.0028 -0.6870  2.2108
   52CHL1   C10 6293   0.033   3.992   9.713  0.2703 -0.3525  0.0593
   52CHL1   C19 6294   0.065   3.835   9.729 -0.2589  0.4893 -0.0437
   52CHL1  H19A 6295   0.098   3.808   9.832  0.0442  1.0025 -0.0091
   52CHL1  H19B 6296  -0.020   3.768   9.701 -0.2085 -0.0767  1.0979
   52CHL1  H19C 6297   0.158   3.810   9.674 -0.1341 -0.1993  0.4681
   52CHL1    C1 6298   0.145   4.083   9.765 -0.6189  0.7139  0.1913
   52CHL1   H1A 6299   0.241   4.051   9.719 -2.0334  0.6025 -2.8374
   52CHL1   H1B 6300   0.106   4.183   9.738 -1.8973 -0.2663 -1.7353
   52CHL1    C2 6301   0.172   4.069   9.922 -0.3444  0.2832  0.3821
   52CHL1   H2A 6302   0.247   4.144   9.954  0.3642  0.0151 -0.6300
   52CHL1   H2B 6303   0.213   3.966   9.929 -1.4581 -0.2414 -0.5185
   52CHL1   C20 6304   0.001   3.933   9.011 -0.0926  0.4319  0.0846
   52CHL1   H20 6305  -0.005   3.822   9.021 -2.4764  0.5086 -0.0574
   52CHL1   C21 6306   0.145   3.978   9.000 -0.6433  0.2216 -0.4890
   52CHL1  H21A 6307   0.177   3.953   8.897 -2.9768  2.3401 -1.7708
   52CHL1  H21B 6308   0.202   3.917   9.074 -0.5726 -0.3269 -0.9960
   52CHL1  H21C 6309   0.163   4.084   9.025  1.3262  0.1675 -1.5872
   52CHL1   C22 6310  -0.067   3.963   8.879  0.3261  0.0420  0.1731
   52CHL1  H22A 6311  -0.167   4.009   8.895  1.2294  2.0193  0.2929
   52CHL1  H22B 6312  -0.022   4.050   8.827  0.9096  0.6296  1.6119
   52CHL1   C23 6313  -0.080   3.846   8.771 -0.1450 -0.4520 -0.0021
   52CHL1  H23A 6314   0.016   3.790   8.771  1.1358  1.7137  0.6734
   52CHL1  H23B 6315  -0.164   3.776   8.792  0.0541 -0.3315  1.2387
   52CHL1   C24 6316  -0.097   3.895   8.622 -0.2118  0.3037  0.3662
   52CHL1  H24A 6317  -0.200   3.932   8.602 -0.8909 -1.1660  1.0718
   52CHL1  H24B 6318  -0.031   3.984   8.611 -2.3321  1.9991  1.0159
   52CHL1   C25 6319  -0.068   3.789   8.520  0.4808 -0.6250  0.3732
   52CHL1   H25 6320   0.028   3.737   8.540  1.0699 -0.1735 -1.1953
   52CHL1   C26 6321  -0.176   3.678   8.520  0.5511 -0.4005 -0.1544
   52CHL1  H26A 6322  -0.201   3.651   8.625 -0.7110 -1.3413 -0.6798
   52CHL1  H26B 6323  -0.265   3.722   8.470  1.1724 -0.5337 -1.4090
   52CHL1  H26C 6324  -0.142   3.589   8.463 -0.1665 -0.8808  0.1628
   52CHL1   C27 6325  -0.053   3.853   8.385  0.5741 -0.6376 -0.3915
   52CHL1  H27A 6326   0.031   3.925   8.390 -2.1429  2.7125 -1.2988
   52CHL1  H27B 6327  -0.029   3.789   8.298  0.7680  0.1762 -0.9319
   52CHL1  H27C 6328  -0.142   3.912   8.355  1.6130  0.6843 -0.9028
   53CHL1    C3 6329   0.959   3.516   9.902 -0.1894  0.2321 -0.4535
   53CHL1    H3 6330   1.070   3.519   9.901 -0.1791  1.2945  0.8837
   53CHL1    O3 6331   0.914   3.536  10.028 -0.0320 -0.5209  0.1247
   53CHL1   H3' 6332   0.981   3.502  10.089  0.4523  0.0007 -0.1165
   53CHL1    C4 6333   0.903   3.633   9.824  0.1029  0.5077 -0.3105
   53CHL1   H4A 6334   0.793   3.642   9.827  0.2226  1.6915  0.5404
   53CHL1   H4B 6335   0.935   3.731   9.866  0.7719  1.1670 -2.2855
   53CHL1    C5 6336   0.952   3.629   9.676  0.2224  0.3631 -0.2133
   53CHL1    C6 6337   1.003   3.731   9.615 -0.3889  0.0746 -0.5117
   53CHL1    H6 6338   1.023   3.822   9.675  0.3192 -0.1503 -0.4074
   53CHL1    C7 6339   1.027   3.725   9.464 -0.0427 -1.0714  0.9215
   53CHL1   H7A 6340   1.012   3.824   9.416  0.2557 -0.8607  1.2611
   53CHL1   H7B 6341   1.134   3.695   9.456 -0.1769 -0.8917 -1.9772
   53CHL1    C8 6342   0.950   3.612   9.396  0.8538 -0.7292 -0.2375
   53CHL1    H8 6343   0.843   3.640   9.393  1.2240  0.5437 -2.3187
   53CHL1   C14 6344   1.001   3.610   9.251 -0.1925 -0.4671  0.2883
   53CHL1   H14 6345   1.112   3.598   9.249 -0.0122  1.2019 -1.0632
   53CHL1   C15 6346   0.975   3.735   9.162 -0.1455 -0.3658 -0.2687
   53CHL1  H15A 6347   0.872   3.775   9.161  0.6132  1.7065  0.7297
   53CHL1  H15B 6348   1.049   3.815   9.185 -1.6226  0.6401  1.0073
   53CHL1   C16 6349   1.016   3.685   9.019 -0.4241 -0.1971 -0.8730
   53CHL1  H16A 6350   0.958   3.727   8.933 -2.6753  1.2439  1.2961
   53CHL1  H16B 6351   1.124   3.711   9.011 -1.0202  2.5493 -0.2422
   53CHL1   C17 6352   1.007   3.525   9.030 -0.4592 -0.6008  0.3817
   53CHL1   H17 6353   1.109   3.490   9.054 -1.3018 -2.0016  2.0290
   53CHL1   C13 6354   0.937   3.495   9.161  0.0343  0.6999  0.1195
   53CHL1   C18 6355   0.787   3.518   9.131  0.0317  0.4416 -0.0409
   53CHL1  H18A 6356   0.737   3.429   9.085 -0.8450 -0.0395  1.7959
   53CHL1  H18B 6357   0.741   3.522   9.232  2.3351  1.8098  0.9845
   53CHL1  H18C 6358   0.763   3.608   9.071  0.4170  0.4091 -0.2393
   53CHL1   C12 6359   0.965   3.355   9.232 -0.5540  0.3169  0.4755
   53CHL1  H12A 6360   0.909   3.271   9.186 -0.6054  1.8169 -2.3610
   53CHL1  H12B 6361   1.074   3.332   9.237 -0.6255 -0.0121  0.5270
   53CHL1   C11 6362   0.912   3.366   9.381 -0.2738  0.4941 -0.0725
   53CHL1  H11A 6363   0.801   3.377   9.374 -0.3379 -1.1368 -2.0099
   53CHL1  H11B 6364   0.938   3.273   9.435 -2.4663 -0.3790 -0.4718
   53CHL1    C9 6365   0.969   3.481   9.469 -0.3783 -0.1114  0.2259
   53CHL1    H9 6366   1.078   3.466   9.480 -0.5921 -0.7961  1.4463
   53CHL1   C10 6367   0.909   3.496   9.609 -0.1000 -0.3915  0.2159
   53CHL1   C19 6368   0.750   3.489   9.602 -0.2780  0.1756 -0.2288
   53CHL1  H19A 6369   0.706   3.482   9.703 -1.9143  1.8977 -0.7917
   53CHL1  H19B 6370   0.718   3.585   9.555 -0.2118  0.2945 -0.0298
   53CHL1  H19C 6371   0.729   3.395   9.547  3.8218  0.1017 -1.9174
   53CHL1    C1 6372   0.969   3.380   9.700 -0.3560  0.3757  0.1410
   53CHL1   H1A 6373   0.955   3.287   9.641  1.6562 -0.3377  0.7535
   53CHL1   H1B 6374   1.079   3.387   9.691 -0.4872  1.3300 -0.7819
   53CHL1    C2 6375   0.924   3.380   9.843 -0.0240 -0.1870  0.8065
   53CHL1   H2A 6376   0.984   3.302   9.894  1.6504 -0.1280 -1.0544
   53CHL1   H2B 6377   0.814   3.367   9.857  0.2196 -2.7141  0.4947
   53CHL1   C20 6378   0.964   3.460   8.901 -0.4663  0.2257  0.0040
   53CHL1   H20 6379   0.857   3.482   8.881 -0.5695 -1.0496 -0.9268
   53CHL1   C21 6380   0.960   3.305   8.893  0.1363 -0.1642 -0.5271
   53CHL1  H21A 6381   0.869   3.275   8.948  1.7256 -3.2316  0.5510
   53CHL1  H21B 6382   1.052   3.250   8.923 -0.1847 -0.3422  0.1333
   53CHL1  H21C 6383   0.934   3.270   8.791 -4.0780 -0.7378  0.6707
   53CHL1   C22 6384   1.028   3.500   8.766  0.2718 -0.4698 -0.3681
   53CHL1  H22A 6385   0.986   3.435   8.685  2.4372 -2.2233 -0.1493
   53CHL1  H22B 6386   1.000   3.604   8.740 -2.6127 -0.8474  1.0683
   53CHL1   C23 6387   1.180   3.487   8.757 -0.5183  0.0078  0.0161
   53CHL1  H23A 6388   1.216   3.547   8.843 -0.5572  0.8588 -0.5548
   53CHL1  H23B 6389   1.214   3.383   8.777 -1.6877 -0.3576  0.1183
   53CHL1   C24 6390   1.237   3.561   8.629  0.8162 -0.4107 -0.7146
   53CHL1  H24A 6391   1.199   3.520   8.533  0.5406  3.1417 -2.1782
   53CHL1  H24B 6392   1.206   3.667   8.632 -1.1004 -0.9769  0.3420
   53CHL1   C25 6393   1.388   3.546   8.616 -0.0843 -0.6084  0.3439
   53CHL1   H25 6394   1.398   3.436   8.627 -1.5482 -0.6721  1.1517
   53CHL1   C26 6395   1.438   3.585   8.472 -0.0540 -0.7852 -0.1478
   53CHL1  H26A 6396   1.419   3.694   8.465  0.4058 -0.7240 -0.4816
   53CHL1  H26B 6397   1.544   3.553   8.465  0.1440  0.1624 -1.7596
   53CHL1  H26C 6398   1.379   3.530   8.396  0.4808 -1.2153 -0.2554
   53CHL1   C27 6399   1.456   3.638   8.720 -0.4234 -0.3368  0.6312
   53CHL1  H27A 6400   1.449   3.748   8.711  1.2764 -0.1477  1.4323
   53CHL1  H27B 6401   1.414   3.613   8.820 -1.4152  0.6303  0.4616
   53CHL1  H27C 6402   1.566   3.629   8.725 -0.3257  0.2466 -0.4356
   54CHL1    C3 6403   0.901   4.658  10.078  0.3728 -0.6070 -0.1992
   54CHL1    H3 6404   1.006   4.624  10.062  0.3520 -0.4948 -0.5649
   54CHL1    O3 6405   0.884   4.656  10.222  0.0052  0.2293 -0.0257
   54CHL1   H3' 6406   0.790   4.671  10.234 -0.4922 -2.6448 -0.0287
   54CHL1    C4 6407   0.887   4.793  10.026  0.0084  0.4956  0.4606
   54CHL1   H4A 6408   0.784   4.832  10.035 -0.0715  0.7098 -1.2411
   54CHL1   H4B 6409   0.959   4.859  10.079 -0.1228  0.4307  0.7140
   54CHL1    C5 6410   0.906   4.792   9.875  0.8028  0.2295  0.3228
   54CHL1    C6 6411   0.996   4.862   9.810 -0.3018  0.3823 -1.2182
   54CHL1    H6 6412   1.059   4.931   9.867 -1.3511 -0.9744  1.6897
   54CHL1    C7 6413   1.005   4.879   9.658 -0.0877  0.6525  0.1693
   54CHL1   H7A 6414   1.000   4.987   9.632  2.2719  0.8228  0.3088
   54CHL1   H7B 6415   1.098   4.830   9.621 -0.3545  0.6137 -0.4580
   54CHL1    C8 6416   0.874   4.811   9.591  0.3446  0.0734  0.4243
   54CHL1    H8 6417   0.788   4.880   9.605  0.4143  1.0735 -3.5283
   54CHL1   C14 6418   0.898   4.799   9.441  0.5420  0.1464  0.1873
   54CHL1   H14 6419   0.988   4.735   9.433  0.8249  0.2046  2.5440
   54CHL1   C15 6420   0.930   4.923   9.361  0.5675 -0.3781  0.1495
   54CHL1  H15A 6421   0.864   5.003   9.402 -0.6345 -1.7215  0.9218
   54CHL1  H15B 6422   1.037   4.950   9.368  0.1904  1.6472 -1.5952
   54CHL1   C16 6423   0.885   4.887   9.219  0.0533 -0.6702 -0.1397
   54CHL1  H16A 6424   0.809   4.959   9.182 -0.4567 -0.7907  0.6569
   54CHL1  H16B 6425   0.970   4.899   9.149  0.3787 -1.8207  0.0450
   54CHL1   C17 6426   0.838   4.744   9.220 -0.3600  0.3605 -0.9499
   54CHL1   H17 6427   0.927   4.679   9.208  0.2889  0.7857  1.4139
   54CHL1   C13 6428   0.787   4.722   9.363  0.1316 -0.5299 -0.2371
   54CHL1   C18 6429   0.652   4.789   9.384 -0.2022  0.5012  0.0528
   54CHL1  H18A 6430   0.647   4.887   9.332  2.6808  1.0537  0.7303
   54CHL1  H18B 6431   0.578   4.719   9.339  1.2447 -1.9588  1.4005
   54CHL1  H18C 6432   0.626   4.813   9.489  0.7385  1.8556 -0.0060
   54CHL1   C12 6433   0.782   4.584   9.420 -0.4716  0.3683 -0.4893
   54CHL1  H12A 6434   0.705   4.521   9.373 -0.3042 -0.0228 -0.2442
   54CHL1  H12B 6435   0.885   4.547   9.400  1.0438  2.8828  2.1646
   54CHL1   C11 6436   0.762   4.580   9.570 -0.4000  0.6825 -0.2833
   54CHL1  H11A 6437   0.654   4.592   9.593 -0.6494 -0.1119 -1.0310
   54CHL1  H11B 6438   0.792   4.480   9.608 -1.2612  0.6532  0.3385
   54CHL1    C9 6439   0.851   4.680   9.658  0.9401 -0.5135 -0.0677
   54CHL1    H9 6440   0.951   4.632   9.658  1.9107  1.4529  0.1781
   54CHL1   C10 6441   0.811   4.696   9.802  0.3310  0.1832 -0.1597
   54CHL1   C19 6442   0.669   4.728   9.812  0.6531  0.2079  0.0721
   54CHL1  H19A 6443   0.592   4.652   9.786 -3.1808  2.9236  2.8346
   54CHL1  H19B 6444   0.637   4.775   9.907 -0.1141 -1.6321  0.7434
   54CHL1  H19C 6445   0.644   4.805   9.735 -1.7375 -1.0798 -0.4923
   54CHL1    C1 6446   0.823   4.551   9.861  0.3205  0.1154  0.3762
   54CHL1   H1A 6447   0.746   4.490   9.809  1.8333 -1.3070 -0.2566
   54CHL1   H1B 6448   0.926   4.517   9.838 -0.5108 -1.6466 -0.8017
   54CHL1    C2 6449   0.807   4.552  10.014  0.7815 -0.1067 -0.5327
   54CHL1   H2A 6450   0.837   4.453  10.055  0.7989  0.7157  1.4865
   54CHL1   H2B 6451   0.705   4.576  10.052  0.3874 -1.4493 -0.7084
   54CHL1   C20 6452   0.751   4.709   9.105 -0.1981 -0.3960  0.2198
   54CHL1   H20 6453   0.657   4.768   9.097  1.0143  1.2780 -2.5797
   54CHL1   C21 6454   0.709   4.563   9.108  0.0733 -0.6757  0.2125
   54CHL1  H21A 6455   0.624   4.550   9.178 -1.0480 -0.0999 -1.0235
   54CHL1  H21B 6456   0.783   4.490   9.147 -0.5093 -1.2464  0.2621
   54CHL1  H21C 6457   0.673   4.521   9.011 -0.1920 -1.0094  0.4570
   54CHL1   C22 6458   0.827   4.736   8.969  0.2972 -0.2037 -0.2612
   54CHL1  H22A 6459   0.864   4.840   8.982  1.1738 -0.6806  1.1935
   54CHL1  H22B 6460   0.905   4.657   8.976  0.4250 -0.0421  0.2414
   54CHL1   C23 6461   0.751   4.731   8.841 -0.0492  0.6365  0.2092
   54CHL1  H23A 6462   0.822   4.772   8.766 -0.5227 -0.6063 -0.9435
   54CHL1  H23B 6463   0.728   4.625   8.820  0.7452  0.5298 -0.1436
   54CHL1   C24 6464   0.620   4.809   8.839 -0.6476 -0.0768 -0.4180
   54CHL1  H24A 6465   0.541   4.770   8.906  1.9087 -3.0259  1.0496
   54CHL1  H24B 6466   0.650   4.908   8.881 -1.6591  1.1826 -2.6147
   54CHL1   C25 6467   0.556   4.826   8.704 -0.0114  0.1285  0.0415
   54CHL1   H25 6468   0.538   4.722   8.671  2.6934 -0.6116  0.7918
   54CHL1   C26 6469   0.420   4.894   8.715 -0.3549 -0.7714 -0.0648
   54CHL1  H26A 6470   0.384   4.910   8.611 -1.5263 -2.0732  0.1243
   54CHL1  H26B 6471   0.336   4.839   8.763 -0.0090 -0.1336  1.3013
   54CHL1  H26C 6472   0.423   4.999   8.753  0.1549 -0.7232 -0.2354
   54CHL1   C27 6473   0.641   4.907   8.605  0.0728 -0.6040 -0.5270
   54CHL1  H27A 6474   0.575   4.921   8.516 -0.9238 -0.4959  0.2218
   54CHL1  H27B 6475   0.650   5.010   8.646 -0.4735  0.9123 -4.0009
   54CHL1  H27C 6476   0.734   4.856   8.575  0.9104 -0.1712  1.3212
   55CHL1    C3 6477   2.245   2.808  10.251 -0.5804  0.4441  0.5079
   55CHL1    H3 6478   2.178   2.896  10.239  0.2404  1.6419  4.0737
   55CHL1    O3 6479   2.283   2.826  10.392  0.0916  0.0866  0.8500
   55CHL1   H3' 6480   2.279   2.741  10.435  0.2500  0.3044  1.3008
   55CHL1    C4 6481   2.178   2.669  10.233 -0.0868  0.1539  0.1794
   55CHL1   H4A 6482   2.258   2.597  10.262  0.1317  0.4720  0.3837
   55CHL1   H4B 6483   2.091   2.671  10.302 -0.3589 -1.5446 -0.0998
   55CHL1    C5 6484   2.137   2.647  10.086 -0.4283 -0.3847  0.3240
   55CHL1    C6 6485   2.014   2.615  10.052 -0.4786  0.5040 -0.3487
   55CHL1    H6 6486   1.951   2.596  10.140  1.3292  2.2952  1.3664
   55CHL1    C7 6487   1.958   2.575   9.918  0.2998 -0.5596  0.0418
   55CHL1   H7A 6488   1.901   2.482   9.942 -0.9068  0.2754  0.4784
   55CHL1   H7B 6489   1.889   2.655   9.883  2.1778  1.0416 -0.0734
   55CHL1    C8 6490   2.078   2.567   9.813  0.3895  0.0134  1.1745
   55CHL1    H8 6491   2.126   2.469   9.832  0.1756 -0.9093 -2.5700
   55CHL1   C14 6492   2.027   2.566   9.669  0.4455  0.2500  0.7027
   55CHL1   H14 6493   1.964   2.655   9.646  0.2449 -0.3715 -1.2654
   55CHL1   C15 6494   1.943   2.437   9.625  0.2257  0.5236 -0.2371
   55CHL1  H15A 6495   1.974   2.348   9.683  1.3370  1.2736  0.3381
   55CHL1  H15B 6496   1.838   2.460   9.653 -0.6409 -2.1238 -1.1899
   55CHL1   C16 6497   1.960   2.427   9.472  0.1661  0.3976 -0.3544
   55CHL1  H16A 6498   2.000   2.325   9.451  0.5108  1.2168 -3.9420
   55CHL1  H16B 6499   1.872   2.433   9.405  0.5842 -0.4839 -0.9920
   55CHL1   C17 6500   2.060   2.541   9.438  0.2864  0.9098  0.2974
   55CHL1   H17 6501   1.992   2.628   9.427 -0.5002 -0.1518 -3.8734
   55CHL1   C13 6502   2.141   2.564   9.569 -0.4149 -0.2289  0.1692
   55CHL1   C18 6503   2.245   2.446   9.586  0.4126  0.0246 -0.0141
   55CHL1  H18A 6504   2.258   2.414   9.692  0.3194 -1.3480 -0.4052
   55CHL1  H18B 6505   2.206   2.356   9.533  0.5588  0.4043 -0.7684
   55CHL1  H18C 6506   2.339   2.482   9.541  2.1156 -2.6214  1.2975
   55CHL1   C12 6507   2.215   2.701   9.591  0.3023 -0.0664 -0.4838
   55CHL1  H12A 6508   2.284   2.737   9.512  0.7943  3.4892  1.4633
   55CHL1  H12B 6509   2.140   2.782   9.595 -0.3471 -0.4804 -3.0243
   55CHL1   C11 6510   2.287   2.702   9.723  0.3138 -0.3225 -0.1709
   55CHL1  H11A 6511   2.371   2.629   9.725 -0.6803 -1.4584  0.8014
   55CHL1  H11B 6512   2.331   2.802   9.745  0.9299  0.1172 -3.2041
   55CHL1    C9 6513   2.181   2.678   9.836 -0.0048  0.5579 -0.5939
   55CHL1    H9 6514   2.130   2.777   9.839 -0.7193  0.1676  0.3950
   55CHL1   C10 6515   2.247   2.672   9.985  0.1485 -0.3794 -0.2519
   55CHL1   C19 6516   2.351   2.559   9.994 -1.0313 -0.6410 -0.2700
   55CHL1  H19A 6517   2.310   2.459   9.967  1.4056 -1.7957  0.0963
   55CHL1  H19B 6518   2.431   2.578   9.920  1.2085  2.5345  2.8026
   55CHL1  H19C 6519   2.398   2.554  10.095 -2.9330 -1.6984  0.5766
   55CHL1    C1 6520   2.311   2.805  10.011 -0.5659  0.3059  0.1238
   55CHL1   H1A 6521   2.405   2.818   9.952 -0.1465  0.1070  0.7395
   55CHL1   H1B 6522   2.251   2.896   9.989 -1.8932 -0.5537  0.2094
   55CHL1    C2 6523   2.358   2.835  10.154 -0.3515  0.6046  0.0400
   55CHL1   H2A 6524   2.393   2.939  10.174  2.8125 -0.6172  1.2161
   55CHL1   H2B 6525   2.440   2.766  10.184  0.3534  0.9132 -1.1507
   55CHL1   C20 6526   2.138   2.508   9.306 -0.1000  1.0613  0.7555
   55CHL1   H20 6527   2.231   2.452   9.328  0.2480  1.8291  1.2444
   55CHL1   C21 6528   2.171   2.646   9.247 -0.6587  0.8251 -0.1043
   55CHL1  H21A 6529   2.234   2.696   9.324 -0.3748  1.8355 -0.9972
   55CHL1  H21B 6530   2.077   2.703   9.239 -1.1103  0.1149  0.0630
   55CHL1  H21C 6531   2.241   2.638   9.162 -0.2547 -0.4652  0.3207
   55CHL1   C22 6532   2.060   2.437   9.191  0.4182  0.6169  0.4543
   55CHL1  H22A 6533   1.998   2.352   9.227  1.6736 -0.4821  0.0850
   55CHL1  H22B 6534   1.991   2.512   9.147 -2.1842 -1.5021  0.7754
   55CHL1   C23 6535   2.152   2.387   9.087  0.4861  0.0881 -0.0014
   55CHL1  H23A 6536   2.200   2.471   9.033 -1.0093  0.7706 -0.2906
   55CHL1  H23B 6537   2.233   2.319   9.119  0.5468  1.2218  2.3852
   55CHL1   C24 6538   2.071   2.309   8.989 -0.0909  1.2451 -0.5085
   55CHL1  H24A 6539   2.008   2.237   9.045  1.2424 -0.7073 -1.4710
   55CHL1  H24B 6540   1.995   2.381   8.950 -0.6130 -0.1351 -2.0957
   55CHL1   C25 6541   2.143   2.244   8.878  0.0187  0.8115  0.5991
   55CHL1   H25 6542   2.236   2.201   8.921 -0.1829 -0.1937  0.0406
   55CHL1   C26 6543   2.045   2.125   8.830  0.2964 -0.8300  0.4492
   55CHL1  H26A 6544   2.051   2.040   8.901 -0.4777 -0.7970  0.5600
   55CHL1  H26B 6545   1.938   2.154   8.826  0.1979 -1.4177 -1.7513
   55CHL1  H26C 6546   2.074   2.085   8.730 -0.1796 -0.1420  0.0291
   55CHL1   C27 6547   2.180   2.320   8.750  1.0640 -0.3852  0.2553
   55CHL1  H27A 6548   2.234   2.259   8.675  0.7209 -0.1038 -0.2257
   55CHL1  H27B 6549   2.088   2.364   8.706  1.2889  0.5739  0.7375
   55CHL1  H27C 6550   2.241   2.407   8.785 -0.0731  0.5277  0.0026
   56CHL1    C3 6551   6.522   1.059  10.073 -0.4752 -0.3258  0.7397
   56CHL1    H3 6552   6.499   0.952  10.059  0.1981 -0.3076 -0.5728
   56CHL1    O3 6553   6.486   1.105  10.206  0.1524 -0.2879  0.2552
   56CHL1   H3' 6554   6.406   1.057  10.230 -0.3037  0.0128 -0.6582
   56CHL1    C4 6555   6.675   1.070  10.052 -0.5310 -0.1067  0.1517
   56CHL1   H4A 6556   6.700   1.176  10.076 -2.7731  0.1347  1.5737
   56CHL1   H4B 6557   6.728   1.018  10.135 -0.0366  1.9642  1.1775
   56CHL1    C5 6558   6.713   1.018   9.915 -0.1058 -0.7614 -0.5456
   56CHL1    C6 6559   6.786   0.913   9.889 -0.0647 -0.2196  0.1671
   56CHL1    H6 6560   6.828   0.859   9.975  0.4366 -0.6858 -0.3647
   56CHL1    C7 6561   6.813   0.860   9.750 -0.5061  0.2820  0.2884
   56CHL1   H7A 6562   6.919   0.829   9.761 -0.5118  1.3931  4.2155
   56CHL1   H7B 6563   6.746   0.775   9.724  1.7534 -1.2522 -0.6725
   56CHL1    C8 6564   6.798   0.973   9.644  0.1387 -0.5640  0.0076
   56CHL1    H8 6565   6.877   1.049   9.654  1.5090 -1.8008 -1.1230
   56CHL1   C14 6566   6.802   0.901   9.512  0.2540 -0.5131  0.0316
   56CHL1   H14 6567   6.716   0.831   9.509 -0.4868  0.3761  0.4404
   56CHL1   C15 6568   6.911   0.795   9.488  0.5791  0.2093  0.3258
   56CHL1  H15A 6569   7.012   0.829   9.517  1.3870 -1.8600 -0.0027
   56CHL1  H15B 6570   6.895   0.697   9.537 -1.8627  0.8508  0.9200
   56CHL1   C16 6571   6.913   0.781   9.336 -0.3854  0.0001 -0.2187
   56CHL1  H16A 6572   7.009   0.805   9.284  0.1883 -3.2663 -0.7311
   56CHL1  H16B 6573   6.888   0.679   9.302  0.4705 -0.0557 -0.6899
   56CHL1   C17 6574   6.817   0.891   9.289 -0.3296 -0.6093  0.1919
   56CHL1   H17 6575   6.720   0.837   9.285 -0.5691 -0.2169  0.6868
   56CHL1   C13 6576   6.794   0.993   9.396 -0.6198  0.4175  0.5173
   56CHL1   C18 6577   6.907   1.096   9.379 -0.4765  0.6464  0.3925
   56CHL1  H18A 6578   6.990   1.048   9.323 -1.3491 -2.0804  1.3882
   56CHL1  H18B 6579   6.864   1.183   9.324  0.3484  1.9219  1.7049
   56CHL1  H18C 6580   6.945   1.139   9.474 -2.3027  2.8575  0.1797
   56CHL1   C12 6581   6.652   1.061   9.414 -0.0239 -0.3253 -0.2284
   56CHL1  H12A 6582   6.630   1.136   9.334  0.5596 -1.0616 -1.0865
   56CHL1  H12B 6583   6.571   0.988   9.394 -0.2651  0.3863 -2.0265
   56CHL1   C11 6584   6.637   1.139   9.547 -0.4400 -0.1322 -0.3110
   56CHL1  H11A 6585   6.704   1.227   9.542 -1.3200  0.7293  2.2664
   56CHL1  H11B 6586   6.535   1.182   9.542 -1.1442 -1.1243  3.4424
   56CHL1    C9 6587   6.666   1.042   9.668  0.0544 -0.6730 -0.2105
   56CHL1    H9 6588   6.584   0.967   9.665 -1.6357  1.1342 -0.4014
   56CHL1   C10 6589   6.647   1.104   9.809 -0.0213  0.1165 -0.0928
   56CHL1   C19 6590   6.696   1.249   9.795  0.0326  0.5698  0.1904
   56CHL1  H19A 6591   6.781   1.257   9.724  0.6238 -0.2029  0.8108
   56CHL1  H19B 6592   6.608   1.307   9.760  0.9893  2.2719  0.5620
   56CHL1  H19C 6593   6.713   1.302   9.891  0.5288  0.5879  0.0904
   56CHL1    C1 6594   6.492   1.110   9.833  0.6278 -0.1406 -0.1996
   56CHL1   H1A 6595   6.447   1.188   9.768  2.3210  1.6727  0.7804
   56CHL1   H1B 6596   6.447   1.009   9.816 -2.9083  1.4075 -0.3685
   56CHL1    C2 6597   6.450   1.146   9.975 -0.0325  0.5762 -0.3424
   56CHL1   H2A 6598   6.343   1.120   9.990  0.0635  0.1435 -0.4046
   56CHL1   H2B 6599   6.463   1.255   9.994  2.1627  0.1774  0.6172
   56CHL1   C20 6600   6.831   0.932   9.139  0.2366  0.6080  0.8610
   56CHL1   H20 6601   6.925   0.987   9.118  0.3459 -0.2202 -0.8522
   56CHL1   C21 6602   6.717   1.023   9.088  0.1693 -0.0540  0.0819
   56CHL1  H21A 6603   6.707   1.053   8.982  1.7658 -1.9023 -0.6143
   56CHL1  H21B 6604   6.720   1.119   9.144  0.5038 -0.2265  0.3586
   56CHL1  H21C 6605   6.621   0.971   9.111  0.5235 -0.6647  0.2030
   56CHL1   C22 6606   6.843   0.795   9.058  0.1657 -0.1391  0.3884
   56CHL1  H22A 6607   6.939   0.751   9.094  0.5826 -0.6429 -1.3047
   56CHL1  H22B 6608   6.755   0.729   9.074 -1.4998  1.3854 -2.1429
   56CHL1   C23 6609   6.857   0.822   8.908  0.2171  0.1328  0.6752
   56CHL1  H23A 6610   6.773   0.888   8.879 -0.5382 -0.9534  0.3896
   56CHL1  H23B 6611   6.950   0.884   8.906  1.2814 -1.4494  0.4662
   56CHL1   C24 6612   6.863   0.693   8.831  0.0947  0.5101  0.0664
   56CHL1  H24A 6613   6.918   0.619   8.893  2.4358  1.5830 -0.6789
   56CHL1  H24B 6614   6.761   0.651   8.818 -0.8665  1.5420  3.6027
   56CHL1   C25 6615   6.914   0.718   8.690 -1.1891  0.2338  0.2112
   56CHL1   H25 6616   7.002   0.784   8.704 -0.7214  0.0210 -1.5928
   56CHL1   C26 6617   6.972   0.590   8.623 -0.0283 -0.4422 -0.4469
   56CHL1  H26A 6618   7.049   0.541   8.687  0.2343  1.1381  0.4699
   56CHL1  H26B 6619   6.893   0.517   8.594 -0.7785 -0.6827  2.0342
   56CHL1  H26C 6620   7.025   0.625   8.533  3.1433  0.9036  1.8472
   56CHL1   C27 6621   6.818   0.785   8.591  0.7977  0.2651  0.3563
   56CHL1  H27A 6622   6.850   0.802   8.487  2.5364  0.8917  0.9850
   56CHL1  H27B 6623   6.724   0.725   8.594  2.0443 -1.7204  1.1055
   56CHL1  H27C 6624   6.779   0.886   8.616 -1.8231 -0.6330  0.1242
   57CHL1    C3 6625   2.345   3.815  10.172 -0.3268 -0.1073 -0.8708
   57CHL1    H3 6626   2.316   3.708  10.177 -0.2320 -0.1554 -1.4026
   57CHL1    O3 6627   2.331   3.888  10.296  0.0740  0.0831 -0.4222
   57CHL1   H3' 6628   2.245   3.860  10.328 -0.3426  0.5284 -1.1320
   57CHL1    C4 6629   2.489   3.817  10.123 -0.0309 -0.5101 -0.3297
   57CHL1   H4A 6630   2.527   3.918  10.097 -0.6785 -0.1411  0.1585
   57CHL1   H4B 6631   2.557   3.773  10.199  0.8227 -2.4520 -2.1755
   57CHL1    C5 6632   2.491   3.734   9.995 -0.2760 -0.1042 -0.3089
   57CHL1    C6 6633   2.576   3.637   9.996 -0.4605 -0.4497  0.2299
   57CHL1    H6 6634   2.633   3.612  10.087  0.5140  0.1173 -0.2217
   57CHL1    C7 6635   2.611   3.567   9.867 -0.0543 -0.3026 -0.4953
   57CHL1   H7A 6636   2.717   3.536   9.865  0.4900  1.2117  2.0999
   57CHL1   H7B 6637   2.558   3.469   9.871  0.2564 -0.3763  2.6303
   57CHL1    C8 6638   2.571   3.644   9.736 -0.2980  0.2467 -0.8583
   57CHL1    H8 6639   2.645   3.725   9.721  1.1274 -0.8079  0.2516
   57CHL1   C14 6640   2.571   3.555   9.611 -0.5073  0.0661 -0.1773
   57CHL1   H14 6641   2.496   3.475   9.628 -2.4684  2.0099  0.5562
   57CHL1   C15 6642   2.700   3.472   9.581 -0.0243 -0.3424  0.0406
   57CHL1  H15A 6643   2.789   3.538   9.575  0.6567 -1.3530 -1.1659
   57CHL1  H15B 6644   2.716   3.389   9.654 -1.2475 -0.8774 -0.2789
   57CHL1   C16 6645   2.678   3.423   9.436  0.2313  0.6455  0.2862
   57CHL1  H16A 6646   2.773   3.414   9.378 -1.2381  0.6609 -2.2003
   57CHL1  H16B 6647   2.649   3.316   9.443 -1.9027  1.1207 -0.8009
   57CHL1   C17 6648   2.556   3.507   9.381  0.3408 -0.5738 -0.2937
   57CHL1   H17 6649   2.473   3.433   9.375 -0.0445 -0.1492 -0.1656
   57CHL1   C13 6650   2.533   3.617   9.484  0.6702 -0.2828  0.0546
   57CHL1   C18 6651   2.621   3.739   9.438 -0.2041  0.0070  0.1374
   57CHL1  H18A 6652   2.618   3.822   9.512  2.3600  1.8907 -1.7897
   57CHL1  H18B 6653   2.725   3.706   9.416 -1.4781 -1.8715 -3.3493
   57CHL1  H18C 6654   2.584   3.788   9.346  1.5374  1.1193  0.0104
   57CHL1   C12 6655   2.380   3.660   9.499  0.2126 -0.6287  0.0637
   57CHL1  H12A 6656   2.343   3.714   9.409  1.9766  1.3850  0.4978
   57CHL1  H12B 6657   2.323   3.567   9.516  2.4639 -1.9637  0.4124
   57CHL1   C11 6658   2.357   3.751   9.623 -0.3349  0.4135  0.4166
   57CHL1  H11A 6659   2.417   3.842   9.600  0.2390  0.2927  1.3679
   57CHL1  H11B 6660   2.252   3.782   9.637  0.0724  2.0297 -0.0664
   57CHL1    C9 6661   2.424   3.698   9.756 -0.6561  0.0529  0.6697
   57CHL1    H9 6662   2.360   3.609   9.775 -0.0021 -1.4690 -3.7986
   57CHL1   C10 6663   2.411   3.792   9.877  0.6060  0.1299 -0.2421
   57CHL1   C19 6664   2.476   3.933   9.845 -0.0201  0.0033 -0.7667
   57CHL1  H19A 6665   2.586   3.928   9.828  0.6334  0.1013  3.1681
   57CHL1  H19B 6666   2.429   3.972   9.752 -0.6402  0.0810 -0.4213
   57CHL1  H19C 6667   2.459   4.008   9.924 -0.7811 -1.3420  0.3615
   57CHL1    C1 6668   2.261   3.811   9.919  0.7429 -0.0906 -0.2745
   57CHL1   H1A 6669   2.200   3.863   9.842  0.1985 -0.2317  0.0513
   57CHL1   H1B 6670   2.214   3.710   9.928  0.2636  0.0474 -1.1557
   57CHL1    C2 6671   2.258   3.877  10.063 -0.2761 -1.4189  1.1838
   57CHL1   H2A 6672   2.152   3.866  10.096 -0.4265 -1.4210  0.7003
   57CHL1   H2B 6673   2.277   3.986  10.059 -0.9897 -1.3801 -2.6879
   57CHL1   C20 6674   2.555   3.542   9.230 -1.0382  0.3803 -0.1788
   57CHL1   H20 6675   2.629   3.624   9.221  2.8463 -2.9209 -0.2164
   57CHL1   C21 6676   2.413   3.579   9.176 -0.1088  0.1794 -0.4042
   57CHL1  H21A 6677   2.422   3.599   9.067 -0.1724 -0.6260 -0.5640
   57CHL1  H21B 6678   2.382   3.679   9.213 -1.8508 -0.5692  0.2072
   57CHL1  H21C 6679   2.341   3.496   9.191  0.2604 -0.1238 -0.2965
   57CHL1   C22 6680   2.611   3.416   9.153 -0.3410  0.4449  0.0866
   57CHL1  H22A 6681   2.714   3.397   9.190 -0.1853 -0.4780 -0.7982
   57CHL1  H22B 6682   2.550   3.329   9.185  0.3957  0.1850  0.8233
   57CHL1   C23 6683   2.610   3.420   8.997  0.1702  0.1594 -0.0544
   57CHL1  H23A 6684   2.502   3.407   8.976 -0.2571  3.6005 -0.1924
   57CHL1  H23B 6685   2.651   3.521   8.976 -0.0061  0.3564  0.5430
   57CHL1   C24 6686   2.701   3.310   8.945  0.4334 -0.4157 -0.3382
   57CHL1  H24A 6687   2.806   3.315   8.981  0.4222 -1.6959 -0.1231
   57CHL1  H24B 6688   2.661   3.216   8.989  1.4521 -1.6355 -1.9489
   57CHL1   C25 6689   2.705   3.312   8.796  0.2752 -0.1252  0.5853
   57CHL1   H25 6690   2.729   3.414   8.757 -2.9508  1.5995  2.8629
   57CHL1   C26 6691   2.818   3.231   8.734 -0.3270 -0.0985 -0.4144
   57CHL1  H26A 6692   2.917   3.262   8.775 -0.2952  0.2204 -0.7305
   57CHL1  H26B 6693   2.808   3.121   8.745 -0.3375 -0.0298  0.3303
   57CHL1  H26C 6694   2.814   3.252   8.625  0.2293 -0.6760 -0.5458
   57CHL1   C27 6695   2.567   3.285   8.738  0.0100 -0.4449 -0.5781
   57CHL1  H27A 6696   2.565   3.280   8.627  1.4663 -0.4041 -0.6188
   57CHL1  H27B 6697   2.555   3.182   8.778  0.8820  0.1609  1.2945
   57CHL1  H27C 6698   2.485   3.354   8.767  1.3589  0.4878  1.1003
   58CHL1    C3 6699   4.222   2.086  10.239  0.3032  0.0211 -0.2337
   58CHL1    H3 6700   4.126   2.031  10.242  0.7156 -0.7717 -1.1950
   58CHL1    O3 6701   4.261   2.125  10.372 -0.3244  0.2938 -0.3515
   58CHL1   H3' 6702   4.323   2.197  10.358  0.1265 -0.3521 -1.7926
   58CHL1    C4 6703   4.334   1.994  10.179 -0.3815  0.0338  0.0145
   58CHL1   H4A 6704   4.433   2.042  10.195  1.7240 -3.3436 -2.2268
   58CHL1   H4B 6705   4.333   1.901  10.241 -0.4383  0.3908  0.5537
   58CHL1    C5 6706   4.315   1.958  10.030  0.2278 -0.6495  0.2345
   58CHL1    C6 6707   4.313   1.832   9.989  0.1776  0.5466  0.2817
   58CHL1    H6 6708   4.326   1.753  10.065 -3.2413 -0.9013 -0.5365
   58CHL1    C7 6709   4.284   1.792   9.848 -0.5228 -0.5565 -0.8145
   58CHL1   H7A 6710   4.347   1.704   9.822 -1.4951 -1.3454 -0.5314
   58CHL1   H7B 6711   4.178   1.760   9.838 -0.5424 -1.3281  1.6699
   58CHL1    C8 6712   4.309   1.914   9.749  0.3769  0.0582 -0.4501
   58CHL1    H8 6713   4.418   1.935   9.748  0.2198  0.8719 -0.3336
   58CHL1   C14 6714   4.267   1.877   9.610  0.3048  0.3729  0.3156
   58CHL1   H14 6715   4.159   1.854   9.617 -0.1056  2.4294  1.0663
   58CHL1   C15 6716   4.320   1.751   9.537 -0.2753  0.4345 -1.0684
   58CHL1  H15A 6717   4.417   1.718   9.581  0.3853 -0.6003 -3.2578
   58CHL1  H15B 6718   4.242   1.674   9.554  0.0900  0.0070 -1.3059
   58CHL1   C16 6719   4.335   1.788   9.388 -0.2427 -0.8774 -0.4616
   58CHL1  H16A 6720   4.438   1.780   9.347 -1.0433 -0.0549 -2.7751
   58CHL1  H16B 6721   4.274   1.720   9.325 -4.0955  0.7272  1.3452
   58CHL1   C17 6722   4.279   1.929   9.370  0.0355 -0.3865  0.5984
   58CHL1   H17 6723   4.168   1.934   9.356  0.1875  1.2567 -0.1729
   58CHL1   C13 6724   4.287   1.997   9.511  0.1385  0.5295 -0.0285
   58CHL1   C18 6725   4.433   2.051   9.518  0.7041  0.1000 -0.3450
   58CHL1  H18A 6726   4.444   2.135   9.446  1.5961 -0.4184 -0.8177
   58CHL1  H18B 6727   4.446   2.103   9.615  1.8121 -1.0888  0.1515
   58CHL1  H18C 6728   4.515   1.978   9.500 -0.0113 -0.4002 -1.6065
   58CHL1   C12 6729   4.182   2.103   9.557  0.7639 -0.3121 -0.3876
   58CHL1  H12A 6730   4.184   2.183   9.480  0.8546  0.4724  0.4079
   58CHL1  H12B 6731   4.085   2.050   9.556  1.1454 -1.0226 -0.3590
   58CHL1   C11 6732   4.218   2.157   9.703 -0.4248  0.1423 -0.0804
   58CHL1  H11A 6733   4.306   2.222   9.683  0.7951 -1.5862 -0.4712
   58CHL1  H11B 6734   4.139   2.230   9.731  0.7155  1.4285 -0.1703
   58CHL1    C9 6735   4.235   2.037   9.806  0.0124 -0.4997 -0.2857
   58CHL1    H9 6736   4.132   1.998   9.827 -0.1314  0.6131  1.1349
   58CHL1   C10 6737   4.280   2.079   9.941  0.2473  0.0805  0.0414
   58CHL1   C19 6738   4.407   2.166   9.927 -0.3677 -0.1450 -0.6341
   58CHL1  H19A 6739   4.468   2.178  10.019  2.1229  2.6657 -2.5425
   58CHL1  H19B 6740   4.471   2.128   9.845 -0.2438  0.0577 -0.6327
   58CHL1  H19C 6741   4.378   2.268   9.893  0.6646  0.0813 -0.8505
   58CHL1    C1 6742   4.174   2.173  10.008 -0.2285 -0.2730  0.0203
   58CHL1   H1A 6743   4.168   2.273   9.960  1.4487 -0.3567 -0.4020
   58CHL1   H1B 6744   4.075   2.123  10.006  0.6420 -2.0494  0.1088
   58CHL1    C2 6745   4.203   2.206  10.156  0.9017 -0.1228 -0.3545
   58CHL1   H2A 6746   4.112   2.258  10.195  1.4438 -0.8908  2.0165
   58CHL1   H2B 6747   4.291   2.270  10.175  0.1721  0.1677  2.2002
   58CHL1   C20 6748   4.341   1.985   9.240  0.0848 -0.2453  0.1211
   58CHL1   H20 6749   4.451   2.000   9.254 -0.0068  2.7528 -1.9292
   58CHL1   C21 6750   4.282   2.122   9.206  0.1968  0.6105 -0.5303
   58CHL1  H21A 6751   4.343   2.170   9.127  0.4428  0.1288 -0.6349
   58CHL1  H21B 6752   4.289   2.188   9.295 -3.8154  1.9928 -1.1502
   58CHL1  H21C 6753   4.175   2.129   9.176 -0.3316  0.1024  1.1877
   58CHL1   C22 6754   4.323   1.895   9.113  0.5794 -0.1032  0.6932
   58CHL1  H22A 6755   4.372   1.798   9.136 -1.3205 -1.0742  0.6991
   58CHL1  H22B 6756   4.214   1.878   9.106  0.8266 -1.1746 -0.9425
   58CHL1   C23 6757   4.381   1.941   8.980 -0.0987  0.1934  0.0206
   58CHL1  H23A 6758   4.331   2.022   8.922  3.5464  1.9290 -0.8794
   58CHL1  H23B 6759   4.479   1.991   8.995 -1.4839  2.6585  1.1517
   58CHL1   C24 6760   4.418   1.820   8.882  0.2706 -0.5325 -0.3147
   58CHL1  H24A 6761   4.524   1.812   8.912 -0.1491 -2.4193  0.7925
   58CHL1  H24B 6762   4.369   1.721   8.900 -0.3414 -0.0932  0.4759
   58CHL1   C25 6763   4.423   1.863   8.733 -0.2870 -0.3368  0.5421
   58CHL1   H25 6764   4.451   1.970   8.742 -1.5222 -0.1579  2.6308
   58CHL1   C26 6765   4.532   1.793   8.652  0.2472  0.3090 -0.3191
   58CHL1  H26A 6766   4.620   1.811   8.717 -0.2159  0.7202  0.1999
   58CHL1  H26B 6767   4.508   1.685   8.648  1.5185  0.0583 -1.6957
   58CHL1  H26C 6768   4.543   1.846   8.555 -0.5691  2.8258  0.9153
   58CHL1   C27 6769   4.285   1.850   8.664 -0.1152  0.3164  0.6456
   58CHL1  H27A 6770   4.227   1.757   8.683  0.5140 -0.3977 -0.7859
   58CHL1  H27B 6771   4.224   1.937   8.695  1.5341  1.6252  0.3246
   58CHL1  H27C 6772   4.314   1.844   8.557 -0.5459 -3.5288  0.6554
   59CHL1    C3 6773   4.095   0.902  10.365 -0.7167 -0.3626 -0.4897
   59CHL1    H3 6774   4.021   0.984  10.350 -0.4505  0.2378  1.3178
   59CHL1    O3 6775   4.130   0.887  10.505 -0.5736 -0.7753  0.0576
   59CHL1   H3' 6776   4.041   0.867  10.535 -0.5796 -1.5472 -0.4692
   59CHL1    C4 6777   4.039   0.766  10.320  0.1694 -0.1811  0.2068
   59CHL1   H4A 6778   4.108   0.681  10.341  1.7847  0.8189 -0.9082
   59CHL1   H4B 6779   3.953   0.739  10.384 -0.4805 -1.0381 -1.0102
   59CHL1    C5 6780   4.007   0.754  10.176  0.2708  0.2002  0.0168
   59CHL1    C6 6781   3.888   0.711  10.138  0.6926  0.1327  0.0275
   59CHL1    H6 6782   3.809   0.689  10.211  0.0794  1.0606 -0.3420
   59CHL1    C7 6783   3.848   0.705   9.990  0.0330  0.1373 -0.0304
   59CHL1   H7A 6784   3.805   0.604   9.970  3.0016 -0.9554 -1.0852
   59CHL1   H7B 6785   3.760   0.771   9.978 -1.3672 -1.5891  0.3889
   59CHL1    C8 6786   3.959   0.731   9.886 -0.8119  0.0222  0.2664
   59CHL1    H8 6787   4.009   0.632   9.882 -1.9335 -0.5038 -1.6305
   59CHL1   C14 6788   3.903   0.765   9.745 -0.2761 -0.3428 -0.8820
   59CHL1   H14 6789   3.854   0.860   9.774  0.6284 -0.1267 -0.0507
   59CHL1   C15 6790   3.804   0.667   9.685 -0.7719 -0.2155 -0.4443
   59CHL1  H15A 6791   3.838   0.565   9.713 -1.0332 -0.2862 -0.3796
   59CHL1  H15B 6792   3.705   0.689   9.732 -0.3148 -2.0778  1.4987
   59CHL1   C16 6793   3.814   0.683   9.533 -0.1635 -0.6078  0.5693
   59CHL1  H16A 6794   3.835   0.594   9.470  2.0418  0.8832 -0.8716
   59CHL1  H16B 6795   3.716   0.716   9.494  0.0874 -1.8317 -1.0953
   59CHL1   C17 6796   3.931   0.791   9.517  0.3226  0.3915  0.4288
   59CHL1   H17 6797   3.876   0.887   9.534 -2.9568 -1.5538  1.3365
   59CHL1   C13 6798   4.015   0.782   9.643 -0.6764  0.6134 -0.2785
   59CHL1   C18 6799   4.106   0.653   9.631  0.5745 -0.2457 -0.2943
   59CHL1  H18A 6800   4.194   0.674   9.566  0.7284  1.8786  0.5664
   59CHL1  H18B 6801   4.141   0.600   9.722  1.3991 -0.2126 -0.5907
   59CHL1  H18C 6802   4.056   0.579   9.565 -0.4786  1.4844 -1.4638
   59CHL1   C12 6803   4.100   0.901   9.691 -0.2555 -0.4934 -0.1525
   59CHL1  H12A 6804   4.178   0.921   9.615  0.4452 -0.1119  0.6606
   59CHL1  H12B 6805   4.037   0.992   9.708  0.5390 -0.0414  0.4063
   59CHL1   C11 6806   4.164   0.876   9.828 -0.5340 -1.7271  0.2352
   59CHL1  H11A 6807   4.245   0.801   9.813  0.8054 -0.6314  1.7375
   59CHL1  H11B 6808   4.225   0.965   9.853 -0.7589 -0.7908 -2.4007
   59CHL1    C9 6809   4.049   0.844   9.932  0.4078  0.1220 -0.0383
   59CHL1    H9 6810   3.971   0.923   9.938 -0.8878 -0.9558 -2.1027
   59CHL1   C10 6811   4.103   0.822  10.080 -0.4722 -0.4066  0.3502
   59CHL1   C19 6812   4.218   0.725  10.064 -0.1355 -1.0887 -0.8264
   59CHL1  H19A 6813   4.310   0.764  10.015  1.2726 -4.0567 -0.6805
   59CHL1  H19B 6814   4.264   0.700  10.162  2.0706 -2.0762 -2.0782
   59CHL1  H19C 6815   4.191   0.636  10.003 -1.3361 -1.3505  0.0783
   59CHL1    C1 6816   4.165   0.952  10.136  0.3748  0.6216  0.1096
   59CHL1   H1A 6817   4.252   0.989  10.076  0.7131 -1.2767 -0.5977
   59CHL1   H1B 6818   4.086   1.030  10.142  0.4501  0.7224 -0.1878
   59CHL1    C2 6819   4.214   0.936  10.280  0.6372  0.4485 -0.3261
   59CHL1   H2A 6820   4.242   1.040  10.309 -2.1659  0.9227  0.8772
   59CHL1   H2B 6821   4.300   0.866  10.287  0.4442  0.4327  2.1112
   59CHL1   C20 6822   3.996   0.799   9.376  0.1110  0.5184  0.3798
   59CHL1   H20 6823   4.087   0.736   9.377 -0.5700 -0.4918  1.0099
   59CHL1   C21 6824   4.043   0.943   9.344  0.7795 -0.1173  0.2851
   59CHL1  H21A 6825   3.949   1.001   9.335  0.1857 -1.3248 -1.4133
   59CHL1  H21B 6826   4.099   0.948   9.249 -1.5195  0.0354 -1.0975
   59CHL1  H21C 6827   4.104   0.965   9.435  0.2106  0.2093  0.5981
   59CHL1   C22 6828   3.899   0.758   9.262  0.5446 -0.2831 -0.2992
   59CHL1  H22A 6829   3.890   0.648   9.266  2.5465 -0.4427  0.2424
   59CHL1  H22B 6830   3.796   0.794   9.285 -0.2463 -2.5638 -0.1548
   59CHL1   C23 6831   3.930   0.799   9.122 -0.0342  0.2987 -0.5883
   59CHL1  H23A 6832   3.917   0.910   9.116  0.0658  0.3173 -0.4599
   59CHL1  H23B 6833   4.035   0.779   9.093 -0.0853  0.5473 -0.9602
   59CHL1   C24 6834   3.825   0.727   9.030  0.8328  0.0225  0.1557
   59CHL1  H24A 6835   3.856   0.621   9.024 -0.8399 -0.4672  0.0965
   59CHL1  H24B 6836   3.721   0.730   9.069  0.9714 -0.9896  0.5985
   59CHL1   C25 6837   3.835   0.759   8.880 -0.2012 -0.5300 -0.0604
   59CHL1   H25 6838   3.827   0.870   8.871 -0.0789 -0.5246 -0.1074
   59CHL1   C26 6839   3.962   0.702   8.809 -0.4128 -0.2401 -0.8352
   59CHL1  H26A 6840   4.053   0.746   8.857  0.2904 -1.3388 -1.1546
   59CHL1  H26B 6841   3.948   0.594   8.827 -0.0170  0.1109  1.8044
   59CHL1  H26C 6842   3.962   0.728   8.701  2.1606  1.2060 -0.5510
   59CHL1   C27 6843   3.713   0.702   8.806 -0.0906  0.8436 -0.2425
   59CHL1  H27A 6844   3.736   0.599   8.774  0.1159  0.8914 -0.2488
   59CHL1  H27B 6845   3.612   0.712   8.850 -0.8705  0.3338 -1.8811
   59CHL1  H27C 6846   3.707   0.766   8.715  0.8236 -1.8605 -2.2519
   60CHL1    C3 6847   3.893   0.034  10.210 -0.4488  0.1263 -0.4786
   60CHL1    H3 6848   3.853   0.126  10.258 -0.1373 -0.3680  0.7447
   60CHL1    O3 6849   3.926  -0.056  10.314  0.4298  0.5578 -0.1263
   60CHL1   H3' 6850   3.921  -0.139  10.267  1.0216 -0.5016  1.6264
   60CHL1    C4 6851   3.788  -0.040  10.124 -0.2508 -0.1263 -0.8727
   60CHL1   H4A 6852   3.834  -0.140  10.105  1.1850 -0.0227  1.8321
   60CHL1   H4B 6853   3.694  -0.058  10.180 -1.2402 -0.0457 -2.4809
   60CHL1    C5 6854   3.760   0.019   9.987 -0.3478  0.2975  0.8689
   60CHL1    C6 6855   3.635   0.054   9.955 -0.0722  0.1740  0.2341
   60CHL1    H6 6856   3.552   0.048  10.027  0.0450 -2.1806  0.2068
   60CHL1    C7 6857   3.594   0.115   9.824 -0.7359  0.6062  0.1677
   60CHL1   H7A 6858   3.514   0.049   9.784 -1.2877 -0.6197  3.1050
   60CHL1   H7B 6859   3.545   0.211   9.851  0.1719  1.3295 -0.7144
   60CHL1    C8 6860   3.710   0.117   9.727  0.7211  0.0671  0.4859
   60CHL1    H8 6861   3.726   0.016   9.685 -0.6508 -0.7721  1.9623
   60CHL1   C14 6862   3.669   0.205   9.611 -0.6929  0.3452 -0.6448
   60CHL1   H14 6863   3.654   0.310   9.646  0.6433 -0.2851  1.8719
   60CHL1   C15 6864   3.538   0.166   9.536  0.5508 -0.4615 -0.2713
   60CHL1  H15A 6865   3.531   0.056   9.518 -0.1438 -0.5349  0.3950
   60CHL1  H15B 6866   3.451   0.210   9.589  1.8555  2.0879 -0.1986
   60CHL1   C16 6867   3.555   0.254   9.407  0.3100 -0.4373 -0.3780
   60CHL1  H16A 6868   3.521   0.185   9.327  0.0616  0.4483 -1.0353
   60CHL1  H16B 6869   3.485   0.339   9.406  0.4735 -0.2626  1.1541
   60CHL1   C17 6870   3.699   0.297   9.401 -0.1845 -0.1684  0.3649
   60CHL1   H17 6871   3.702   0.399   9.444  1.6272 -0.4956  1.0371
   60CHL1   C13 6872   3.769   0.205   9.502  0.6113 -0.2239  0.0436
   60CHL1   C18 6873   3.797   0.063   9.433  0.1625  0.4211 -0.5654
   60CHL1  H18A 6874   3.867   0.009   9.501  0.8735  0.1061 -1.5428
   60CHL1  H18B 6875   3.705  -0.000   9.435  0.1761  0.4273  1.1131
   60CHL1  H18C 6876   3.830   0.069   9.327 -0.6097  0.1275 -0.8333
   60CHL1   C12 6877   3.902   0.260   9.563  0.2142 -0.3651 -0.5118
   60CHL1  H12A 6878   3.986   0.261   9.490 -0.2942  1.4392 -1.1174
   60CHL1  H12B 6879   3.889   0.361   9.608 -0.0943 -0.9120  0.6434
   60CHL1   C11 6880   3.953   0.176   9.681  0.5756 -0.3308 -0.5164
   60CHL1  H11A 6881   3.987   0.077   9.644 -0.8198 -1.0618  0.1447
   60CHL1  H11B 6882   4.045   0.219   9.725 -0.9310  2.7102 -0.2028
   60CHL1    C9 6883   3.843   0.149   9.787 -0.0509 -0.0469 -0.3164
   60CHL1    H9 6884   3.823   0.248   9.833 -1.0121 -0.6787  0.6540
   60CHL1   C10 6885   3.879   0.061   9.906 -0.4450  0.0471 -0.3638
   60CHL1   C19 6886   3.941  -0.067   9.859  0.1948  0.1405  0.8354
   60CHL1  H19A 6887   3.892  -0.105   9.767  0.6666  0.6319  0.3787
   60CHL1  H19B 6888   4.048  -0.050   9.831  0.2696  3.5464  2.8492
   60CHL1  H19C 6889   3.942  -0.149   9.933 -2.0127  0.3418  1.1135
   60CHL1    C1 6890   3.982   0.144  10.003  0.7614 -0.4439  0.1780
   60CHL1   H1A 6891   4.068   0.169   9.936 -1.1172  0.8392 -1.8118
   60CHL1   H1B 6892   3.946   0.244  10.033 -0.4386 -0.8356  0.0465
   60CHL1    C2 6893   4.023   0.072  10.134 -0.0847  0.6428 -0.8067
   60CHL1   H2A 6894   4.097   0.133  10.189  0.9181 -0.6500 -0.7048
   60CHL1   H2B 6895   4.068  -0.027  10.111 -2.9373 -0.5477 -1.4260
   60CHL1   C20 6896   3.756   0.313   9.254  0.0204  0.2349 -0.4983
   60CHL1   H20 6897   3.761   0.211   9.211 -1.2552 -0.5144  1.0851
   60CHL1   C21 6898   3.904   0.368   9.266  0.5957 -0.0759  0.0370
   60CHL1  H21A 6899   3.922   0.431   9.356  1.1716 -1.7603  1.1176
   60CHL1  H21B 6900   3.946   0.414   9.173 -0.6787 -1.4053 -1.2216
   60CHL1  H21C 6901   3.969   0.280   9.286  2.1301  0.9447 -0.3829
   60CHL1   C22 6902   3.680   0.418   9.172 -0.0769 -0.7682  0.1806
   60CHL1  H22A 6903   3.572   0.409   9.198 -0.2055  0.9136  0.2844
   60CHL1  H22B 6904   3.715   0.520   9.197 -2.6008  0.8169 -2.3518
   60CHL1   C23 6905   3.698   0.401   9.013  0.2130 -0.7395 -0.4202
   60CHL1  H23A 6906   3.649   0.489   8.967  1.9521 -0.5252 -1.9027
   60CHL1  H23B 6907   3.806   0.409   8.987  0.3792  3.0596  1.2087
   60CHL1   C24 6908   3.632   0.264   8.965  0.6808  0.2185 -1.0516
   60CHL1  H24A 6909   3.709   0.187   8.989  0.4463 -0.4376 -2.3632
   60CHL1  H24B 6910   3.532   0.243   9.009  0.4159 -0.6644 -2.0396
   60CHL1   C25 6911   3.609   0.252   8.809 -0.2625  0.0470  0.2557
   60CHL1   H25 6912   3.699   0.273   8.747  0.8697  0.6854  2.0753
   60CHL1   C26 6913   3.565   0.113   8.769 -0.7668 -0.9825  0.5497
   60CHL1  H26A 6914   3.527   0.130   8.666  0.2113  0.7271  0.4511
   60CHL1  H26B 6915   3.655   0.048   8.762 -1.8632 -2.3587 -1.7206
   60CHL1  H26C 6916   3.489   0.066   8.835 -1.7510  0.2119  0.2960
   60CHL1   C27 6917   3.504   0.350   8.759  0.2070  0.1391  0.1095
   60CHL1  H27A 6918   3.476   0.337   8.653 -1.9660  1.0506  0.5364
   60CHL1  H27B 6919   3.406   0.337   8.810 -0.2921  0.3043 -0.8094
   60CHL1  H27C 6920   3.533   0.457   8.768  0.4143  0.1922 -1.1358
   61CHL1    C3 6921   6.545   6.174  10.209 -0.0053 -0.0178  0.2494
   61CHL1    H3 6922   6.560   6.083  10.147  0.7315  0.7583 -0.7432
   61CHL1    O3 6923   6.498   6.135  10.338 -0.0327 -0.3865 -0.6296
   61CHL1   H3' 6924   6.476   6.220  10.376 -2.1095 -1.0827 -0.1815
   61CHL1    C4 6925   6.681   6.242  10.229 -0.0535  0.0396  0.4032
   61CHL1   H4A 6926   6.671   6.333  10.292  1.0279  1.7469 -1.7998
   61CHL1   H4B 6927   6.741   6.161  10.274 -1.2811 -0.2664  1.5127
   61CHL1    C5 6928   6.731   6.277  10.094 -0.3004  0.3859 -0.0847
   61CHL1    C6 6929   6.855   6.244  10.062  0.2700 -0.1211  0.3555
   61CHL1    H6 6930   6.920   6.189  10.131  2.7648  1.2684 -0.8215
   61CHL1    C7 6931   6.913   6.284   9.929  0.0730  0.1269 -0.2165
   61CHL1   H7A 6932   7.019   6.317   9.932  0.5973 -1.5251  0.0138
   61CHL1   H7B 6933   6.917   6.195   9.863 -1.0493 -0.0870  0.0026
   61CHL1    C8 6934   6.839   6.395   9.847  0.2057 -0.0557  0.3342
   61CHL1    H8 6935   6.857   6.482   9.913  0.7836 -1.0330  1.4817
   61CHL1   C14 6936   6.882   6.406   9.700 -0.4743 -0.2110  0.1086
   61CHL1   H14 6937   6.858   6.310   9.651 -1.8624  0.0631  0.2337
   61CHL1   C15 6938   7.031   6.430   9.675  0.1731 -0.6180 -0.0450
   61CHL1  H15A 6939   7.058   6.516   9.740 -0.1524 -0.2137 -0.4436
   61CHL1  H15B 6940   7.084   6.338   9.710  0.7556 -0.3602 -0.2457
   61CHL1   C16 6941   7.037   6.442   9.521  0.2876  0.1909  0.1031
   61CHL1  H16A 6942   7.114   6.522   9.514 -1.0946  1.6258  0.9352
   61CHL1  H16B 6943   7.080   6.351   9.474 -1.0639 -0.7628  0.6609
   61CHL1   C17 6944   6.891   6.477   9.477  0.1788 -0.6785  1.1249
   61CHL1   H17 6945   6.847   6.384   9.436 -1.8220 -0.4462  2.6853
   61CHL1   C13 6946   6.815   6.507   9.607  0.5956 -0.4040 -0.6537
   61CHL1   C18 6947   6.833   6.661   9.648  0.4309  0.2270 -0.4237
   61CHL1  H18A 6948   6.939   6.672   9.681  0.0344 -2.0805  1.8755
   61CHL1  H18B 6949   6.822   6.732   9.564  4.5833 -1.1748 -2.2999
   61CHL1  H18C 6950   6.765   6.685   9.733 -0.3648  1.1508 -1.3285
   61CHL1   C12 6951   6.667   6.469   9.611  0.1319 -0.2017 -0.3728
   61CHL1  H12A 6952   6.610   6.550   9.561 -0.3695 -0.2046  0.1931
   61CHL1  H12B 6953   6.651   6.369   9.566  0.7719  0.0687 -1.2270
   61CHL1   C11 6954   6.611   6.458   9.760  0.3548  0.5027 -0.0365
   61CHL1  H11A 6955   6.622   6.556   9.811  2.3477  0.8445 -1.0688
   61CHL1  H11B 6956   6.507   6.418   9.766  0.7300 -0.5897 -0.7534
   61CHL1    C9 6957   6.689   6.359   9.857 -0.4324  0.4722 -0.1578
   61CHL1    H9 6958   6.675   6.258   9.812 -0.5103  0.0933  0.6913
   61CHL1   C10 6959   6.631   6.356  10.000  0.2303 -0.3121  0.6820
   61CHL1   C19 6960   6.614   6.495  10.062  0.0292  0.3549 -0.4708
   61CHL1  H19A 6961   6.568   6.494  10.163  0.5072  2.3246 -0.1954
   61CHL1  H19B 6962   6.710   6.552  10.067  0.7651 -0.8211 -0.8927
   61CHL1  H19C 6963   6.544   6.556  10.001  0.8245  1.1933 -0.5582
   61CHL1    C1 6964   6.494   6.285   9.994 -0.6474  0.0460  0.0242
   61CHL1   H1A 6965   6.414   6.350   9.954  0.3503  0.9957 -0.4378
   61CHL1   H1B 6966   6.502   6.198   9.925  1.8997  1.1103 -1.0917
   61CHL1    C2 6967   6.445   6.251  10.139  0.6185 -0.3587  0.0335
   61CHL1   H2A 6968   6.348   6.197  10.138  0.0823  0.5356  1.8012
   61CHL1   H2B 6969   6.429   6.347  10.192  2.3834  0.1231 -0.2539
   61CHL1   C20 6970   6.887   6.571   9.359  0.1050 -0.6121 -0.6131
   61CHL1   H20 6971   6.935   6.666   9.391 -1.8764  0.9150 -2.0793
   61CHL1   C21 6972   6.746   6.629   9.322 -0.6403 -0.3926 -0.4608
   61CHL1  H21A 6973   6.692   6.658   9.415  1.8979  2.0092  0.3345
   61CHL1  H21B 6974   6.693   6.552   9.262  0.2652  0.3393 -2.2285
   61CHL1  H21C 6975   6.756   6.720   9.260  0.3093 -0.0518  0.1782
   61CHL1   C22 6976   6.961   6.520   9.234 -0.7914  0.0419 -0.2431
   61CHL1  H22A 6977   7.065   6.496   9.262  0.1778  1.8485 -2.1684
   61CHL1  H22B 6978   6.902   6.433   9.198  0.7205 -1.0964 -0.0178
   61CHL1   C23 6979   6.970   6.634   9.123  0.4074  0.1100 -0.1255
   61CHL1  H23A 6980   6.871   6.660   9.082 -0.6331  1.1843  2.9273
   61CHL1  H23B 6981   7.013   6.722   9.176 -0.2529 -0.8303  2.0292
   61CHL1   C24 6982   7.061   6.594   9.014  0.2149  0.9290 -0.4221
   61CHL1  H24A 6983   7.155   6.549   9.053  0.0820 -0.1658 -1.3325
   61CHL1  H24B 6984   7.007   6.514   8.958 -1.4397  0.4828  1.7696
   61CHL1   C25 6985   7.085   6.714   8.914 -0.5319  0.4399  0.2883
   61CHL1   H25 6986   7.128   6.801   8.967  1.4879 -1.2978  1.6040
   61CHL1   C26 6987   7.199   6.681   8.813  0.5322  0.5703  0.0132
   61CHL1  H26A 6988   7.194   6.575   8.778  1.4005  1.0163 -1.4807
   61CHL1  H26B 6989   7.195   6.744   8.722 -1.4256  0.2059 -0.1725
   61CHL1  H26C 6990   7.298   6.686   8.864  0.8032  0.1693 -0.4699
   61CHL1   C27 6991   6.963   6.743   8.829 -0.2166 -0.3999 -0.0933
   61CHL1  H27A 6992   6.992   6.826   8.761 -0.4935  0.2143  0.5217
   61CHL1  H27B 6993   6.923   6.662   8.764 -0.8150  0.2403 -0.5291
   61CHL1  H27C 6994   6.884   6.782   8.898  1.2793  2.1935  0.2114
   62CHL1    C3 6995   1.443   3.321   9.941  0.3361  0.2106 -0.5309
   62CHL1    H3 6996   1.545   3.365   9.937 -0.6111  2.3632 -1.7234
   62CHL1    O3 6997   1.403   3.323  10.079 -0.1551 -0.6243  0.0224
   62CHL1   H3' 6998   1.320   3.275  10.078 -0.2589 -0.4656  0.5870
   62CHL1    C4 6999   1.343   3.401   9.850  0.3274 -0.2020  0.4338
   62CHL1   H4A 7000   1.240   3.362   9.863  0.1858  0.0060 -0.0494
   62CHL1   H4B 7001   1.337   3.507   9.884  1.6535  0.0357 -0.0460
   62CHL1    C5 7002   1.388   3.391   9.706 -0.0761  0.0459 -0.0325
   62CHL1    C6 7003   1.411   3.503   9.633  0.5562 -0.8116  0.2887
   62CHL1    H6 7004   1.381   3.599   9.678 -2.2989 -1.4573 -0.1481
   62CHL1    C7 7005   1.456   3.510   9.494 -0.3941  0.0137 -0.0003
   62CHL1   H7A 7006   1.402   3.599   9.455  1.6971  1.3270  0.0237
   62CHL1   H7B 7007   1.565   3.529   9.505 -0.4019 -0.0867  0.2575
   62CHL1    C8 7008   1.425   3.379   9.423  0.2491  0.8913 -0.2888
   62CHL1    H8 7009   1.317   3.381   9.396  0.0485 -0.2986  0.3899
   62CHL1   C14 7010   1.508   3.379   9.290  0.3764  0.7070 -0.0889
   62CHL1   H14 7011   1.613   3.392   9.323  0.4066  0.6302 -0.1554
   62CHL1   C15 7012   1.486   3.493   9.193  0.2824 -0.1495  0.0294
   62CHL1  H15A 7013   1.381   3.525   9.179  0.3953  1.7631  2.9283
   62CHL1  H15B 7014   1.524   3.593   9.225 -2.8501  0.4841  2.0211
   62CHL1   C16 7015   1.534   3.444   9.051  0.2742  0.3608  1.0084
   62CHL1  H16A 7016   1.446   3.440   8.982  2.6197 -1.6599 -1.9870
   62CHL1  H16B 7017   1.609   3.514   9.009 -1.2394  0.3127 -1.9716
   62CHL1   C17 7018   1.580   3.294   9.077  0.7994 -0.2766 -0.2554
   62CHL1   H17 7019   1.686   3.302   9.109  0.3603  0.4039  1.0941
   62CHL1   C13 7020   1.502   3.251   9.203 -0.1924  0.8176 -0.0436
   62CHL1   C18 7021   1.355   3.219   9.166 -0.4621 -0.5443  0.8435
   62CHL1  H18A 7022   1.363   3.110   9.145  0.5050 -0.5582  1.2683
   62CHL1  H18B 7023   1.286   3.239   9.250  0.7198 -0.4404  1.8101
   62CHL1  H18C 7024   1.325   3.275   9.075 -1.1952 -1.9788  0.1858
   62CHL1   C12 7025   1.557   3.137   9.288 -0.0814  0.8158 -0.4356
   62CHL1  H12A 7026   1.559   3.037   9.241 -0.4212 -0.0408  1.3399
   62CHL1  H12B 7027   1.661   3.170   9.308 -0.1135  0.6836 -0.0587
   62CHL1   C11 7028   1.486   3.130   9.426 -0.3292  0.2186 -0.0523
   62CHL1  H11A 7029   1.384   3.095   9.399  0.8559 -2.4007 -1.3499
   62CHL1  H11B 7030   1.534   3.049   9.485  0.9505  1.0973  0.1200
   62CHL1    C9 7031   1.478   3.256   9.503  0.2967 -0.4151  0.0093
   62CHL1    H9 7032   1.582   3.293   9.514  1.2271 -2.5399 -1.4774
   62CHL1   C10 7033   1.411   3.252   9.644  0.2147 -0.1878  0.1567
   62CHL1   C19 7034   1.262   3.198   9.620  0.6262 -0.3892  0.3438
   62CHL1  H19A 7035   1.206   3.194   9.716  0.4978  1.0439  0.3400
   62CHL1  H19B 7036   1.191   3.259   9.560 -0.1917 -0.1505  1.5232
   62CHL1  H19C 7037   1.269   3.102   9.566  1.2157  0.2007 -0.6459
   62CHL1    C1 7038   1.478   3.154   9.743 -0.1942  0.2380  0.0278
   62CHL1   H1A 7039   1.458   3.053   9.701 -0.0287 -0.2258  1.0338
   62CHL1   H1B 7040   1.589   3.166   9.743 -0.1763  0.6645 -3.5850
   62CHL1    C2 7041   1.436   3.172   9.890  0.4922 -0.5149 -0.0822
   62CHL1   H2A 7042   1.496   3.112   9.961  2.2811  1.3137 -0.0289
   62CHL1   H2B 7043   1.329   3.141   9.898  0.3310  0.3720  1.2885
   62CHL1   C20 7044   1.577   3.209   8.947 -0.1780  0.7562 -0.3857
   62CHL1   H20 7045   1.471   3.209   8.914  0.0650 -2.0579 -1.2674
   62CHL1   C21 7046   1.622   3.065   8.964  0.1483 -0.1761  0.8404
   62CHL1  H21A 7047   1.726   3.066   9.002  1.2718  0.8657 -2.1274
   62CHL1  H21B 7048   1.624   2.996   8.876 -2.9623  1.9509 -1.0107
   62CHL1  H21C 7049   1.553   3.023   9.040 -0.7721  0.4865  0.3773
   62CHL1   C22 7050   1.652   3.273   8.839 -0.3945  0.0351 -0.1928
   62CHL1  H22A 7051   1.614   3.378   8.834 -1.6583 -0.3106  1.6132
   62CHL1  H22B 7052   1.760   3.272   8.864 -0.5258  1.1748  0.4482
   62CHL1   C23 7053   1.647   3.206   8.696  0.4194  0.3426  0.3148
   62CHL1  H23A 7054   1.669   3.098   8.711  0.6015  0.2045 -0.9052
   62CHL1  H23B 7055   1.539   3.203   8.673  0.6463  0.5981 -0.8127
   62CHL1   C24 7056   1.740   3.275   8.592 -0.8908  0.2624  0.3899
   62CHL1  H24A 7057   1.689   3.372   8.574 -1.9635 -0.3845 -0.1207
   62CHL1  H24B 7058   1.843   3.299   8.626 -0.2041  0.3613 -1.6940
   62CHL1   C25 7059   1.737   3.198   8.456  0.0610 -0.2397  0.5698
   62CHL1   H25 7060   1.634   3.167   8.426  1.0275 -1.4189 -1.6699
   62CHL1   C26 7061   1.787   3.286   8.339 -0.2422 -0.6991  0.7803
   62CHL1  H26A 7062   1.798   3.229   8.244  0.1832 -0.3455  0.6179
   62CHL1  H26B 7063   1.721   3.373   8.321  2.0521  1.1489  1.0953
   62CHL1  H26C 7064   1.884   3.336   8.361 -1.0916  1.4303 -0.2189
   62CHL1   C27 7065   1.827   3.076   8.468  0.1556  0.6700 -0.1806
   62CHL1  H27A 7066   1.791   3.017   8.555  0.3825 -0.6458 -0.9633
   62CHL1  H27B 7067   1.814   3.006   8.382  2.0155  2.6413 -2.1266
   62CHL1  H27C 7068   1.931   3.112   8.483 -0.0609  0.2056  2.8019
   63CHL1    C3 7069   2.685   4.932  10.208 -0.1490 -0.2810 -0.9333
   63CHL1    H3 7070   2.774   4.999  10.201  1.5163 -2.3831 -0.2920
   63CHL1    O3 7071   2.633   4.927  10.344  0.3906  0.4761 -0.0906
   63CHL1   H3' 7072   2.567   4.857  10.338  1.6425 -0.5802 -2.2344
   63CHL1    C4 7073   2.571   4.977  10.123 -0.3978 -0.1319 -0.3969
   63CHL1   H4A 7074   2.468   4.939  10.137  0.2624 -1.3209  1.4267
   63CHL1   H4B 7075   2.565   5.083  10.155  1.3924 -0.6198  1.6440
   63CHL1    C5 7076   2.597   4.973   9.975 -0.5340  0.4678 -0.9781
   63CHL1    C6 7077   2.585   5.079   9.894  0.5746  0.0843  0.3120
   63CHL1    H6 7078   2.546   5.169   9.945  2.1201  0.8514  0.1611
   63CHL1    C7 7079   2.594   5.077   9.745 -0.4116  0.3189  0.6312
   63CHL1   H7A 7080   2.510   5.127   9.692 -1.4762 -0.7632  1.2877
   63CHL1   H7B 7081   2.687   5.137   9.733 -0.2485 -0.2211 -0.8272
   63CHL1    C8 7082   2.603   4.929   9.688 -0.5171  0.2321 -0.3229
   63CHL1    H8 7083   2.509   4.876   9.714 -0.1628 -0.2366  0.0049
   63CHL1   C14 7084   2.648   4.930   9.542 -0.1247  0.1818 -0.3281
   63CHL1   H14 7085   2.744   4.985   9.539 -0.0735  0.2063  1.4257
   63CHL1   C15 7086   2.558   5.006   9.440 -0.9337 -0.0287  0.9602
   63CHL1  H15A 7087   2.452   4.994   9.469 -1.1848 -1.1471 -0.4079
   63CHL1  H15B 7088   2.569   5.117   9.446 -0.8281  0.0107 -0.0168
   63CHL1   C16 7089   2.589   4.933   9.309  0.2871 -0.0532 -0.3440
   63CHL1  H16A 7090   2.498   4.883   9.268 -1.5890  1.5496  1.7414
   63CHL1  H16B 7091   2.635   4.998   9.231 -2.0707  2.0576 -0.0281
   63CHL1   C17 7092   2.691   4.827   9.343  0.0407 -0.0672  0.1710
   63CHL1   H17 7093   2.788   4.880   9.341  0.0109  0.1180  2.1747
   63CHL1   C13 7094   2.666   4.786   9.482 -0.2716  0.0344  0.4797
   63CHL1   C18 7095   2.530   4.714   9.490 -0.4767 -0.2374 -0.4243
   63CHL1  H18A 7096   2.442   4.776   9.463 -0.4145 -0.3122 -0.8082
   63CHL1  H18B 7097   2.528   4.630   9.417  0.0021  3.0397 -4.4026
   63CHL1  H18C 7098   2.508   4.673   9.590 -0.2005 -0.6526 -0.5330
   63CHL1   C12 7099   2.779   4.718   9.566 -0.3260  0.6797 -0.0740
   63CHL1  H12A 7100   2.803   4.613   9.539  1.9341  1.0955  0.2468
   63CHL1  H12B 7101   2.871   4.779   9.556 -0.8136  1.4818  0.2583
   63CHL1   C11 7102   2.755   4.720   9.714  0.3048  0.3265  0.4965
   63CHL1  H11A 7103   2.670   4.650   9.726  0.6952 -0.1800  0.2953
   63CHL1  H11B 7104   2.841   4.678   9.769  1.9083  0.3119 -1.9283
   63CHL1    C9 7105   2.703   4.853   9.781 -0.2922  0.6616 -0.2033
   63CHL1    H9 7106   2.797   4.912   9.785  0.4825 -0.5836  0.3669
   63CHL1   C10 7107   2.657   4.840   9.928  0.0440 -0.1728 -0.2228
   63CHL1   C19 7108   2.549   4.732   9.934  0.1580 -0.0377 -0.3768
   63CHL1  H19A 7109   2.459   4.745   9.870  0.0129  2.4398  0.3011
   63CHL1  H19B 7110   2.594   4.635   9.901 -0.4411 -0.5510  0.3097
   63CHL1  H19C 7111   2.509   4.734  10.037 -0.6389 -2.6960 -0.5965
   63CHL1    C1 7112   2.772   4.795  10.024  0.1017 -0.1457  0.6219
   63CHL1   H1A 7113   2.821   4.699   9.995  1.2818  1.5558 -3.2518
   63CHL1   H1B 7114   2.853   4.870  10.017  0.5380 -0.8265 -1.8933
   63CHL1    C2 7115   2.735   4.796  10.169  0.2486  0.2044 -0.4446
   63CHL1   H2A 7116   2.815   4.767  10.240  0.8030 -0.3713 -1.3054
   63CHL1   H2B 7117   2.660   4.721  10.201  1.1346 -0.5973 -0.2340
   63CHL1   C20 7118   2.705   4.719   9.237  0.1247 -0.0840 -0.1187
   63CHL1   H20 7119   2.608   4.666   9.221  0.9757 -1.5880 -0.3579
   63CHL1   C21 7120   2.816   4.613   9.266 -0.6869 -0.1424  0.1273
   63CHL1  H21A 7121   2.847   4.571   9.168 -0.0185 -1.0727  0.7214
   63CHL1  H21B 7122   2.801   4.521   9.328 -0.5239 -2.7031 -3.4816
   63CHL1  H21C 7123   2.906   4.668   9.302  0.7280 -1.7459 -0.8832
   63CHL1   C22 7124   2.722   4.774   9.089  0.1708 -0.1087  0.2824
   63CHL1  H22A 7125   2.717   4.687   9.021  1.3218 -1.3783  1.7659
   63CHL1  H22B 7126   2.634   4.834   9.058 -0.3418 -1.3445 -0.6708
   63CHL1   C23 7127   2.850   4.853   9.065 -0.1616 -0.5423  0.0907
   63CHL1  H23A 7128   2.842   4.942   9.131 -0.5103 -1.0927  0.8031
   63CHL1  H23B 7129   2.939   4.789   9.085  0.0833 -0.0811  0.4701
   63CHL1   C24 7130   2.863   4.885   8.917 -0.9182  0.2650  0.3346
   63CHL1  H24A 7131   2.870   4.791   8.860  1.5653 -0.0560  1.1122
   63CHL1  H24B 7132   2.781   4.950   8.880 -0.6816  0.7844  0.7090
   63CHL1   C25 7133   2.984   4.977   8.871  0.4039  0.0167  0.0568
   63CHL1   H25 7134   3.082   4.932   8.896  0.4293  0.3580  0.5866
   63CHL1   C26 7135   2.977   5.004   8.717  0.1052 -0.2173  0.1058
   63CHL1  H26A 7136   2.972   4.912   8.655  1.1443 -0.0309 -0.2678
   63CHL1  H26B 7137   2.879   5.056   8.706  1.0227  1.6462  0.6003
   63CHL1  H26C 7138   3.054   5.078   8.686 -1.0063  0.1956 -1.8327
   63CHL1   C27 7139   2.981   5.117   8.941  0.2333 -0.1295  0.4990
   63CHL1  H27A 7140   2.883   5.165   8.919  0.2157 -1.6803 -3.1604
   63CHL1  H27B 7141   2.985   5.108   9.052 -1.2937 -0.1932  0.5683
   63CHL1  H27C 7142   3.056   5.185   8.895 -0.7689  1.6110  1.3427
   64CHL1    C3 7143   2.208   4.364  10.097 -0.4448  0.0463 -0.3483
   64CHL1    H3 7144   2.151   4.458  10.112  0.6700  0.7668 -0.5288
   64CHL1    O3 7145   2.274   4.336  10.222  0.3432 -0.1308 -0.3554
   64CHL1   H3' 7146   2.207   4.293  10.276 -1.7659  0.8868 -2.1068
   64CHL1    C4 7147   2.111   4.251  10.067  0.3303 -0.0872 -0.3528
   64CHL1   H4A 7148   2.157   4.150  10.068 -3.2338 -1.7938  0.8654
   64CHL1   H4B 7149   2.037   4.227  10.146 -1.2007 -2.3487 -2.3539
   64CHL1    C5 7150   2.038   4.264   9.935 -0.7080  0.0466 -0.3791
   64CHL1    C6 7151   1.902   4.254   9.928 -0.1515 -0.4229  1.0601
   64CHL1    H6 7152   1.850   4.238  10.023  1.4387 -0.8404  1.8708
   64CHL1    C7 7153   1.824   4.258   9.805 -0.1557 -0.0844 -0.4890
   64CHL1   H7A 7154   1.758   4.169   9.811 -0.1742 -0.0145  0.4766
   64CHL1   H7B 7155   1.769   4.355   9.807 -0.4928 -0.2836  0.4199
   64CHL1    C8 7156   1.920   4.252   9.685 -1.1454  0.2747 -0.3224
   64CHL1    H8 7157   1.948   4.145   9.681  0.2498  0.5994  0.2819
   64CHL1   C14 7158   1.848   4.289   9.567 -0.7976  0.3303 -0.6567
   64CHL1   H14 7159   1.829   4.398   9.573  0.0098  0.4575 -0.3689
   64CHL1   C15 7160   1.713   4.231   9.541 -0.4614 -0.6122  0.6187
   64CHL1  H15A 7161   1.713   4.121   9.558  1.2191 -0.6308  0.5835
   64CHL1  H15B 7162   1.622   4.262   9.597 -1.1351 -1.4284 -0.0032
   64CHL1   C16 7163   1.680   4.263   9.398  0.4619 -0.5149 -0.6978
   64CHL1  H16A 7164   1.633   4.177   9.345 -0.4454  0.0762 -0.8655
   64CHL1  H16B 7165   1.597   4.337   9.398  0.4913 -0.4496  1.4277
   64CHL1   C17 7166   1.809   4.313   9.328 -0.1629  0.3366  0.2990
   64CHL1   H17 7167   1.791   4.423   9.333 -0.6494  0.4574 -3.1671
   64CHL1   C13 7168   1.923   4.281   9.430 -1.1518  0.4917  0.3745
   64CHL1   C18 7169   1.959   4.130   9.398 -0.1473 -0.2350  0.0037
   64CHL1  H18A 7170   2.038   4.123   9.320 -1.0350 -2.9805 -0.6893
   64CHL1  H18B 7171   1.993   4.080   9.490 -1.8332  1.3908  1.5597
   64CHL1  H18C 7172   1.884   4.066   9.348 -0.7362 -0.5441  1.2659
   64CHL1   C12 7173   2.045   4.377   9.438  0.1997  0.0344  0.0805
   64CHL1  H12A 7174   2.114   4.364   9.353  0.7838 -0.4321  0.6182
   64CHL1  H12B 7175   2.009   4.481   9.431 -2.7609 -1.0998 -2.5195
   64CHL1   C11 7176   2.117   4.337   9.566  0.1522  0.1904 -0.2603
   64CHL1  H11A 7177   2.155   4.234   9.546  0.9799  0.3803  0.3126
   64CHL1  H11B 7178   2.208   4.400   9.569 -0.7574  1.6171 -1.8034
   64CHL1    C9 7179   2.048   4.332   9.701  0.0157  0.0915  0.1483
   64CHL1    H9 7180   2.016   4.434   9.728 -1.3682 -0.1171 -0.6609
   64CHL1   C10 7181   2.131   4.293   9.825  0.8983  0.4227  0.3496
   64CHL1   C19 7182   2.218   4.169   9.791 -0.1923 -0.3473 -0.5999
   64CHL1  H19A 7183   2.145   4.095   9.750 -0.8305  0.0872 -0.2477
   64CHL1  H19B 7184   2.307   4.192   9.729  2.4286 -0.0438  3.1050
   64CHL1  H19C 7185   2.263   4.121   9.880  0.0345 -0.1082 -0.5851
   64CHL1    C1 7186   2.227   4.408   9.851 -0.6264 -0.6973  0.1968
   64CHL1   H1A 7187   2.290   4.415   9.760  1.2216  1.4577  1.5544
   64CHL1   H1B 7188   2.167   4.501   9.851 -1.8029 -1.4414  0.4766
   64CHL1    C2 7189   2.308   4.397   9.982  0.1268 -0.3294  0.8659
   64CHL1   H2A 7190   2.347   4.498  10.008 -0.6481 -0.2983  1.9616
   64CHL1   H2B 7191   2.395   4.329   9.976  2.6631  2.8847 -0.5906
   64CHL1   C20 7192   1.823   4.290   9.174 -0.4229  0.9544 -0.3483
   64CHL1   H20 7193   1.838   4.181   9.159 -0.2306  1.2612 -2.6716
   64CHL1   C21 7194   1.954   4.362   9.129 -0.3563 -0.2318 -0.7253
   64CHL1  H21A 7195   1.963   4.471   9.147 -0.1817 -0.2341 -0.7926
   64CHL1  H21B 7196   1.979   4.344   9.022 -0.1752  0.3864 -0.7872
   64CHL1  H21C 7197   2.033   4.297   9.173 -0.9687 -1.7388 -1.7792
   64CHL1   C22 7198   1.708   4.332   9.085  0.3185  0.2015  1.0130
   64CHL1  H22A 7199   1.609   4.297   9.120  0.1749  0.7027  1.1149
   64CHL1  H22B 7200   1.705   4.443   9.093 -0.5602  0.2764 -0.1970
   64CHL1   C23 7201   1.738   4.301   8.934  0.8252  1.0535  0.4965
   64CHL1  H23A 7202   1.651   4.343   8.880 -0.5598 -0.3830  1.5831
   64CHL1  H23B 7203   1.828   4.353   8.896 -0.1502  2.4162  0.0152
   64CHL1   C24 7204   1.750   4.153   8.901  0.3533 -0.5446 -0.5692
   64CHL1  H24A 7205   1.842   4.108   8.944 -0.7072 -1.6606  0.5588
   64CHL1  H24B 7206   1.667   4.098   8.950 -0.1635  2.2061  1.7834
   64CHL1   C25 7207   1.760   4.126   8.752  0.1981  0.1134  0.0475
   64CHL1   H25 7208   1.846   4.187   8.716  2.0022 -3.1229 -1.3501
   64CHL1   C26 7209   1.804   3.980   8.726  0.0748 -0.7025  0.5747
   64CHL1  H26A 7210   1.728   3.905   8.757  0.6454 -1.3545  0.3919
   64CHL1  H26B 7211   1.823   3.984   8.617 -1.2186 -1.4628  0.3162
   64CHL1  H26C 7212   1.906   3.974   8.769 -0.7400 -1.0134  2.5091
   64CHL1   C27 7213   1.635   4.171   8.672  0.4378 -0.5622  0.3254
   64CHL1  H27A 7214   1.621   4.280   8.681 -0.8374 -0.7476  0.7819
   64CHL1  H27B 7215   1.647   4.141   8.566  0.6080 -1.7510  0.6681
   64CHL1  H27C 7216   1.542   4.123   8.710  0.2571 -0.3483  0.1511
   65CHL1    C3 7217   4.567   1.407  10.413 -0.2265 -0.3977 -0.0690
   65CHL1    H3 7218   4.526   1.509  10.403 -2.4500 -1.1714  0.7509
   65CHL1    O3 7219   4.610   1.372  10.545  1.0243 -0.7656 -0.6536
   65CHL1   H3' 7220   4.609   1.276  10.544  1.1624 -0.8392  2.4649
   65CHL1    C4 7221   4.450   1.316  10.376 -0.0222 -0.3245 -0.1181
   65CHL1   H4A 7222   4.465   1.211  10.410  2.8152  0.4151  1.0248
   65CHL1   H4B 7223   4.368   1.350  10.442 -0.3819  0.8337 -1.1492
   65CHL1    C5 7224   4.404   1.334  10.232 -0.0663 -0.0343 -0.9620
   65CHL1    C6 7225   4.276   1.371  10.203  0.1349  0.5085  0.0666
   65CHL1    H6 7226   4.208   1.373  10.290 -1.1104 -1.4224 -0.8144
   65CHL1    C7 7227   4.224   1.373  10.062  0.3084  0.5191  0.0494
   65CHL1   H7A 7228   4.129   1.317  10.047  1.0879 -0.3882 -1.6378
   65CHL1   H7B 7229   4.205   1.477  10.027  0.2878  0.3385 -0.4773
   65CHL1    C8 7230   4.317   1.306   9.966  0.3312 -0.1530  0.0998
   65CHL1    H8 7231   4.315   1.195   9.976  0.3059  0.0502  2.5942
   65CHL1   C14 7232   4.272   1.346   9.821  0.6319  0.0332 -0.7379
   65CHL1   H14 7233   4.281   1.456   9.819  0.0383  0.1167  0.5227
   65CHL1   C15 7234   4.137   1.318   9.775  0.1381  0.0992 -0.6656
   65CHL1  H15A 7235   4.114   1.209   9.780 -0.5937  0.2849  0.3092
   65CHL1  H15B 7236   4.047   1.371   9.813 -1.0744 -0.5731 -2.5551
   65CHL1   C16 7237   4.147   1.351   9.621 -0.5721 -0.1373  0.6632
   65CHL1  H16A 7238   4.089   1.280   9.560  1.6567 -1.8382  0.4497
   65CHL1  H16B 7239   4.131   1.461   9.613 -2.2672 -0.3331  1.3034
   65CHL1   C17 7240   4.296   1.340   9.579  0.1682 -0.1515  0.2623
   65CHL1   H17 7241   4.331   1.442   9.552 -0.0542  0.1503  1.1158
   65CHL1   C13 7242   4.362   1.296   9.708 -0.1989  0.3785 -0.8834
   65CHL1   C18 7243   4.379   1.139   9.717 -0.0537 -0.6125 -0.3618
   65CHL1  H18A 7244   4.290   1.088   9.674 -0.6071 -1.6231  1.8926
   65CHL1  H18B 7245   4.466   1.096   9.663  0.6812  0.7571 -0.2769
   65CHL1  H18C 7246   4.388   1.098   9.820  1.3783  2.1773  0.6606
   65CHL1   C12 7247   4.509   1.340   9.737 -0.2412  0.6862 -0.6924
   65CHL1  H12A 7248   4.573   1.295   9.659  0.4890  2.1582 -0.9646
   65CHL1  H12B 7249   4.505   1.451   9.728 -0.1582  0.7091 -0.4594
   65CHL1   C11 7250   4.558   1.301   9.877  0.0812 -0.2012  0.1220
   65CHL1  H11A 7251   4.571   1.191   9.881  0.6668 -0.0646  2.5531
   65CHL1  H11B 7252   4.663   1.336   9.894  0.0114  0.3219 -0.4937
   65CHL1    C9 7253   4.464   1.351   9.986 -0.4040 -0.3827  0.3608
   65CHL1    H9 7254   4.456   1.461   9.979 -1.8618 -0.5628 -1.5787
   65CHL1   C10 7255   4.515   1.306  10.129 -0.1503 -1.0987 -0.4063
   65CHL1   C19 7256   4.534   1.148  10.146 -0.0089 -0.3475 -0.1351
   65CHL1  H19A 7257   4.438   1.092  10.144  0.5812 -1.3639 -0.4575
   65CHL1  H19B 7258   4.610   1.102  10.078  1.1491 -0.0834  0.9618
   65CHL1  H19C 7259   4.574   1.121  10.246 -2.5567 -1.3049  0.6639
   65CHL1    C1 7260   4.644   1.385  10.168 -0.1126 -0.4594 -0.5141
   65CHL1   H1A 7261   4.729   1.344  10.110 -0.9404 -2.0086 -0.6924
   65CHL1   H1B 7262   4.622   1.487  10.129 -1.8622 -0.6189 -0.0251
   65CHL1    C2 7263   4.680   1.384  10.319 -0.1958 -0.0358 -0.0147
   65CHL1   H2A 7264   4.768   1.450  10.327  0.3554 -0.6216 -1.1135
   65CHL1   H2B 7265   4.710   1.280  10.345 -3.4844 -0.8580  0.7155
   65CHL1   C20 7266   4.323   1.254   9.450 -0.5289  0.5696 -0.4963
   65CHL1   H20 7267   4.295   1.150   9.475  2.8852 -1.1171 -3.2322
   65CHL1   C21 7268   4.477   1.250   9.416  0.9620  0.0763 -0.2623
   65CHL1  H21A 7269   4.529   1.343   9.446 -0.3558  0.8845 -0.4545
   65CHL1  H21B 7270   4.478   1.242   9.305  0.6333  1.9162 -0.4085
   65CHL1  H21C 7271   4.520   1.159   9.463 -0.6170 -0.8680 -0.5870
   65CHL1   C22 7272   4.230   1.288   9.325 -0.2702  0.6378  0.6139
   65CHL1  H22A 7273   4.124   1.281   9.357 -0.2931 -0.8060  0.2382
   65CHL1  H22B 7274   4.260   1.387   9.284 -3.0420  0.9469 -0.8151
   65CHL1   C23 7275   4.237   1.190   9.202  0.5232 -0.2106  0.0124
   65CHL1  H23A 7276   4.332   1.203   9.146  1.1050 -1.6791  0.6500
   65CHL1  H23B 7277   4.247   1.084   9.234  0.7684 -0.6285 -1.3752
   65CHL1   C24 7278   4.128   1.193   9.092  0.0080  0.2545  0.1600
   65CHL1  H24A 7279   4.087   1.092   9.071 -1.8526  0.7532  1.3224
   65CHL1  H24B 7280   4.038   1.252   9.119  0.1432  0.6943 -0.3413
   65CHL1   C25 7281   4.166   1.252   8.950 -0.3306 -0.1757 -0.3944
   65CHL1   H25 7282   4.076   1.285   8.893 -0.1344 -2.2382 -1.9527
   65CHL1   C26 7283   4.242   1.383   8.956 -0.2560  0.1965  0.4725
   65CHL1  H26A 7284   4.343   1.380   9.003 -0.5664  0.6586  1.1782
   65CHL1  H26B 7285   4.239   1.439   8.860 -0.1492  2.3327  1.6774
   65CHL1  H26C 7286   4.202   1.456   9.031  0.8360 -0.4156  1.6731
   65CHL1   C27 7287   4.236   1.159   8.861  0.3820 -0.3336 -0.0365
   65CHL1  H27A 7288   4.266   1.213   8.769  0.5277  1.0706  0.8182
   65CHL1  H27B 7289   4.321   1.109   8.912 -0.4987 -1.7721  0.0630
   65CHL1  H27C 7290   4.168   1.077   8.831 -2.2392  1.8903 -0.3985
   66CHL1    C3 7291   2.492   6.162  10.546  0.3586  0.1228 -0.6488
   66CHL1    H3 7292   2.444   6.262  10.544 -0.8029 -0.3657  1.3064
   66CHL1    O3 7293   2.527   6.135  10.682 -0.1792 -0.2528 -0.0640
   66CHL1   H3' 7294   2.623   6.126  10.682 -0.0832  0.2737 -2.9303
   66CHL1    C4 7295   2.401   6.057  10.474  0.1170  0.1740 -0.2975
   66CHL1   H4A 7296   2.454   5.959  10.474 -0.7359 -0.3297 -3.3656
   66CHL1   H4B 7297   2.313   6.066  10.541  0.0892  0.1112 -0.3269
   66CHL1    C5 7298   2.364   6.093  10.335 -0.8006  0.0060  0.1716
   66CHL1    C6 7299   2.240   6.109  10.299 -0.1279  0.3542 -0.5115
   66CHL1    H6 7300   2.162   6.086  10.374  1.4293 -0.8207  0.7847
   66CHL1    C7 7301   2.202   6.146  10.159 -0.3261  0.7694  0.0039
   66CHL1   H7A 7302   2.099   6.116  10.129 -1.1821  1.9642  1.6516
   66CHL1   H7B 7303   2.193   6.257  10.162  0.3576  0.9258 -2.4167
   66CHL1    C8 7304   2.315   6.119  10.053  0.4790  0.3625 -0.0925
   66CHL1    H8 7305   2.323   6.008  10.052  0.6930  0.3775 -0.4321
   66CHL1   C14 7306   2.284   6.180   9.921 -0.8723 -0.8037 -1.2102
   66CHL1   H14 7307   2.282   6.291   9.929 -2.7261 -0.9478  0.8401
   66CHL1   C15 7308   2.149   6.145   9.855  0.3823 -0.1182  0.1706
   66CHL1  H15A 7309   2.119   6.039   9.869  0.4741 -0.0696  0.7598
   66CHL1  H15B 7310   2.059   6.204   9.884  0.0132 -0.0912 -1.0256
   66CHL1   C16 7311   2.174   6.166   9.701 -0.9748  0.3466  0.6212
   66CHL1  H16A 7312   2.142   6.077   9.642 -0.3192 -1.0171  2.2660
   66CHL1  H16B 7313   2.108   6.249   9.670 -0.5318 -0.4008 -2.5225
   66CHL1   C17 7314   2.326   6.201   9.681  0.1871  0.4546  0.4440
   66CHL1   H17 7315   2.333   6.312   9.686  0.3299  0.4875 -0.4946
   66CHL1   C13 7316   2.388   6.153   9.817 -0.3226  0.6970  0.0861
   66CHL1   C18 7317   2.412   5.999   9.798 -0.4901 -0.8924 -0.0328
   66CHL1  H18A 7318   2.442   5.954   9.895  0.1173 -0.4666 -0.0194
   66CHL1  H18B 7319   2.321   5.947   9.761 -0.0170 -1.8583  0.1565
   66CHL1  H18C 7320   2.490   5.979   9.722 -3.2064  0.0225 -3.1632
   66CHL1   C12 7321   2.515   6.221   9.862  0.3824 -0.4171 -0.2079
   66CHL1  H12A 7322   2.596   6.212   9.786  0.5358  1.5688 -0.3115
   66CHL1  H12B 7323   2.500   6.330   9.876 -0.2570 -0.4834 -0.3580
   66CHL1   C11 7324   2.563   6.162   9.995 -0.4293  0.0802 -0.5076
   66CHL1  H11A 7325   2.588   6.057   9.971  0.1914 -0.2890  1.6506
   66CHL1  H11B 7326   2.651   6.222  10.026 -1.8214  1.1755  1.5208
   66CHL1    C9 7327   2.450   6.175  10.103  0.4362 -0.3161 -0.0459
   66CHL1    H9 7328   2.431   6.283  10.122 -0.2748 -0.5698  0.7432
   66CHL1   C10 7329   2.486   6.116  10.242 -0.4712  0.1589  0.3264
   66CHL1   C19 7330   2.565   5.986  10.217  0.7760 -0.2304  0.0057
   66CHL1  H19A 7331   2.654   5.996  10.151  0.8272  3.3852  0.4851
   66CHL1  H19B 7332   2.576   5.924  10.308  0.1029 -0.6441 -0.1954
   66CHL1  H19C 7333   2.489   5.921  10.170 -1.6145  2.6974 -0.3565
   66CHL1    C1 7334   2.585   6.219  10.310 -0.3303  0.2260 -0.1966
   66CHL1   H1A 7335   2.673   6.218  10.243 -0.0980 -0.3829  0.1150
   66CHL1   H1B 7336   2.546   6.324  10.307 -4.1385 -1.1138 -1.5860
   66CHL1    C2 7337   2.617   6.179  10.459  0.2288  1.3671 -0.3472
   66CHL1   H2A 7338   2.677   6.260  10.506 -0.2695  0.1046  2.5723
   66CHL1   H2B 7339   2.664   6.081  10.478 -1.3252  0.8759  1.0659
   66CHL1   C20 7340   2.372   6.168   9.538 -0.4179  0.6332  0.6031
   66CHL1   H20 7341   2.345   6.063   9.514 -1.2597  1.0706 -0.4079
   66CHL1   C21 7342   2.526   6.176   9.525 -0.3711 -0.3279 -0.2274
   66CHL1  H21A 7343   2.582   6.099   9.582 -0.9465 -0.5419  0.0491
   66CHL1  H21B 7344   2.548   6.268   9.583 -0.5371 -0.2097 -0.3501
   66CHL1  H21C 7345   2.562   6.183   9.420 -1.3409  0.0344 -0.5364
   66CHL1   C22 7346   2.304   6.264   9.427  0.1295  0.2705 -0.2992
   66CHL1  H22A 7347   2.196   6.274   9.450  0.3296 -2.6197  2.2670
   66CHL1  H22B 7348   2.347   6.365   9.439 -0.5943  0.6030 -0.4922
   66CHL1   C23 7349   2.313   6.209   9.287  0.0369  0.0470  0.0662
   66CHL1  H23A 7350   2.420   6.203   9.260 -0.4900 -1.0311 -1.8535
   66CHL1  H23B 7351   2.269   6.108   9.276  0.4967 -0.1421 -0.0403
   66CHL1   C24 7352   2.255   6.313   9.178 -0.3794 -0.0095  0.3878
   66CHL1  H24A 7353   2.144   6.327   9.177 -0.4123 -0.2594  0.2994
   66CHL1  H24B 7354   2.304   6.407   9.210  0.8302 -0.4731 -0.0884
   66CHL1   C25 7355   2.302   6.287   9.039  0.5356  0.1624  0.4813
   66CHL1   H25 7356   2.412   6.272   9.029  0.4873 -0.4639  0.8545
   66CHL1   C26 7357   2.229   6.163   8.990  0.6987 -0.4817 -0.3106
   66CHL1  H26A 7358   2.249   6.148   8.882 -0.7355 -2.9254 -0.2813
   66CHL1  H26B 7359   2.275   6.079   9.047  1.9332  0.6200  0.3464
   66CHL1  H26C 7360   2.119   6.162   9.009  0.9201  0.2376  1.0865
   66CHL1   C27 7361   2.275   6.405   8.946 -0.3410  0.0871 -0.3181
   66CHL1  H27A 7362   2.273   6.377   8.838 -1.9959  1.2747 -0.6093
   66CHL1  H27B 7363   2.178   6.451   8.973 -0.3572 -0.0033 -0.2209
   66CHL1  H27C 7364   2.339   6.494   8.964  0.3875 -0.6827  1.0167
   67CHL1    C3 7365   6.511   0.113  10.210 -0.2584 -0.0738  0.1116
   67CHL1    H3 7366   6.559   0.211  10.190 -0.5147  0.2660  1.1387
   67CHL1    O3 7367   6.505   0.078  10.348 -1.4055  0.3327 -0.3822
   67CHL1   H3' 7368   6.459  -0.007  10.355 -0.6958  0.0543  1.1862
   67CHL1    C4 7369   6.368   0.131  10.168 -0.0294  0.4155  0.0128
   67CHL1   H4A 7370   6.303   0.048  10.205  0.9134  0.4028  1.6758
   67CHL1   H4B 7371   6.335   0.224  10.220 -0.0334  1.3843 -1.6915
   67CHL1    C5 7372   6.347   0.154  10.022 -0.0073 -0.8509  0.9481
   67CHL1    C6 7373   6.274   0.255   9.972 -0.4546 -0.3601  0.1129
   67CHL1    H6 7374   6.235   0.327  10.045  1.5178  0.7842  0.0826
   67CHL1    C7 7375   6.245   0.270   9.824  0.1884  0.7539  0.0900
   67CHL1   H7A 7376   6.136   0.290   9.818  0.3282  1.5519  0.1226
   67CHL1   H7B 7377   6.298   0.360   9.785  3.2215  0.4135  3.1832
   67CHL1    C8 7378   6.279   0.146   9.734 -0.1863  0.9377 -0.0688
   67CHL1    H8 7379   6.203   0.066   9.738  2.2999 -1.4482  1.9722
   67CHL1   C14 7380   6.280   0.192   9.586  0.4314  0.0901 -0.6532
   67CHL1   H14 7381   6.349   0.280   9.586 -0.7705  1.0521 -1.3551
   67CHL1   C15 7382   6.155   0.250   9.523  0.0078 -0.4106 -0.9900
   67CHL1  H15A 7383   6.066   0.187   9.543  0.2457 -0.7591 -1.0352
   67CHL1  H15B 7384   6.143   0.353   9.565  2.0491  0.0059 -1.3717
   67CHL1   C16 7385   6.191   0.251   9.375 -0.2046  0.2671  0.0712
   67CHL1  H16A 7386   6.108   0.194   9.328 -2.5322  1.2032  2.8919
   67CHL1  H16B 7387   6.187   0.349   9.323  0.1182 -0.7727 -1.9684
   67CHL1   C17 7388   6.330   0.175   9.359  0.4787  0.7407 -0.4573
   67CHL1   H17 7389   6.404   0.257   9.368 -0.2246  1.7081 -3.0245
   67CHL1   C13 7390   6.348   0.093   9.488  0.0190 -0.2910  0.2250
   67CHL1   C18 7391   6.264  -0.034   9.471  0.2738  0.8049  0.0867
   67CHL1  H18A 7392   6.313  -0.123   9.427  0.0220  0.7211 -0.0299
   67CHL1  H18B 7393   6.230  -0.075   9.569 -0.7248  2.0352  0.2664
   67CHL1  H18C 7394   6.171  -0.024   9.411  0.3860 -2.5512 -0.7678
   67CHL1   C12 7395   6.486   0.055   9.533 -0.0521  0.2167  0.0891
   67CHL1  H12A 7396   6.547  -0.008   9.466 -1.7250  1.7443 -2.9796
   67CHL1  H12B 7397   6.552   0.145   9.535  1.0442 -0.5979  0.8549
   67CHL1   C11 7398   6.476  -0.006   9.672  0.6372  0.1372  0.0867
   67CHL1  H11A 7399   6.419  -0.101   9.680 -0.8388  1.1807  2.2385
   67CHL1  H11B 7400   6.580  -0.037   9.697  0.7872  1.4585  1.1228
   67CHL1    C9 7401   6.418   0.090   9.776 -0.0237 -0.0074  0.4315
   67CHL1    H9 7402   6.480   0.181   9.764  0.5761 -0.6848 -1.8935
   67CHL1   C10 7403   6.420   0.050   9.925  0.9345 -0.2922  0.1828
   67CHL1   C19 7404   6.346  -0.080   9.941  0.1419 -0.3553 -0.4004
   67CHL1  H19A 7405   6.403  -0.163   9.894 -2.5708 -1.7608 -1.2612
   67CHL1  H19B 7406   6.347  -0.114  10.047  2.5857 -2.4092 -1.0352
   67CHL1  H19C 7407   6.244  -0.082   9.898  0.3244 -0.6327 -0.8221
   67CHL1    C1 7408   6.561   0.032   9.977 -0.5532  0.7557  0.0063
   67CHL1   H1A 7409   6.597  -0.055   9.918 -0.3984  1.3746 -0.8172
   67CHL1   H1B 7410   6.625   0.118   9.946  0.4508 -0.0525 -0.1701
   67CHL1    C2 7411   6.576   0.001  10.131  0.1029  0.3068 -0.6381
   67CHL1   H2A 7412   6.681  -0.018  10.162 -0.8025  0.6238  2.9148
   67CHL1   H2B 7413   6.526  -0.096  10.150  0.4137  0.4968  1.3354
   67CHL1   C20 7414   6.344   0.105   9.220  0.2523 -0.5928 -0.2781
   67CHL1   H20 7415   6.291   0.007   9.227 -0.4365 -0.2245 -0.2927
   67CHL1   C21 7416   6.489   0.097   9.186  0.1675  0.6264  0.0349
   67CHL1  H21A 7417   6.547   0.047   9.266  0.3433  1.8663  0.6836
   67CHL1  H21B 7418   6.527   0.201   9.183  1.7059  0.0488 -1.4584
   67CHL1  H21C 7419   6.508   0.044   9.090  2.1378  0.0236  0.7456
   67CHL1   C22 7420   6.265   0.183   9.111  0.3976  0.3104  0.0855
   67CHL1  H22A 7421   6.159   0.199   9.142  1.3335  1.9174  2.7012
   67CHL1  H22B 7422   6.315   0.281   9.097  1.7115 -0.4185 -0.3865
   67CHL1   C23 7423   6.272   0.130   8.969  0.0077  0.4418 -0.2047
   67CHL1  H23A 7424   6.374   0.141   8.927  0.6649 -1.5470  0.8048
   67CHL1  H23B 7425   6.249   0.021   8.968 -2.0314  0.8341  0.8564
   67CHL1   C24 7426   6.181   0.207   8.865  0.0776  0.0192 -0.1565
   67CHL1  H24A 7427   6.076   0.173   8.867 -0.7582  2.4779  2.7745
   67CHL1  H24B 7428   6.192   0.318   8.864 -0.2618  0.0466 -2.1099
   67CHL1   C25 7429   6.228   0.185   8.712 -0.7536  0.2297 -0.6061
   67CHL1   H25 7430   6.329   0.230   8.698 -1.1530  1.3415  0.0121
   67CHL1   C26 7431   6.222   0.030   8.676  0.3138  0.2997  0.1896
   67CHL1  H26A 7432   6.129  -0.010   8.722  1.9971 -0.7221  2.8916
   67CHL1  H26B 7433   6.212   0.017   8.566 -1.2299  0.9167  0.2559
   67CHL1  H26C 7434   6.309  -0.028   8.715  1.0292 -0.1893 -2.0519
   67CHL1   C27 7435   6.131   0.262   8.622  0.5666 -0.7042 -0.5031
   67CHL1  H27A 7436   6.028   0.220   8.621  0.4228 -0.3561 -1.7933
   67CHL1  H27B 7437   6.125   0.371   8.642 -3.2660 -0.7160 -1.1059
   67CHL1  H27C 7438   6.168   0.263   8.517  1.4164  1.6873 -0.2081
   68CHL1    C3 7439   5.149   1.134  10.214 -0.8956  0.8958 -0.5312
   68CHL1    H3 7440   5.159   1.245  10.209  0.2109  0.8081 -0.4466
   68CHL1    O3 7441   5.150   1.102  10.354  0.1641 -0.5086  0.5903
   68CHL1   H3' 7442   5.235   1.119  10.393  0.3512  0.0619 -0.0442
   68CHL1    C4 7443   5.010   1.097  10.163 -0.3308  0.3978  0.1845
   68CHL1   H4A 7444   4.983   0.992  10.189  1.7728 -0.6048 -1.5567
   68CHL1   H4B 7445   4.930   1.155  10.214 -1.6137  0.0252 -1.3783
   68CHL1    C5 7446   4.998   1.091  10.013 -0.1393 -0.2766  0.5781
   68CHL1    C6 7447   4.904   1.148   9.949 -0.5265  0.1005  0.0274
   68CHL1    H6 7448   4.827   1.192  10.014  0.8241 -0.2600  1.9141
   68CHL1    C7 7449   4.888   1.169   9.803  0.0482 -0.5147  0.2059
   68CHL1   H7A 7450   4.784   1.141   9.772  0.2385 -0.5855 -0.3791
   68CHL1   H7B 7451   4.917   1.273   9.778  0.8368 -0.5656  0.9087
   68CHL1    C8 7452   4.976   1.068   9.716  0.4971  0.3686  0.1482
   68CHL1    H8 7453   4.926   0.970   9.733 -0.1434  0.6375 -0.1369
   68CHL1   C14 7454   4.979   1.108   9.570 -0.5563  0.0622  0.5331
   68CHL1   H14 7455   5.034   1.204   9.565 -2.8638  1.4575  1.2594
   68CHL1   C15 7456   4.844   1.143   9.503 -0.3580 -0.3344 -0.6801
   68CHL1  H15A 7457   4.766   1.076   9.544  2.1364 -1.5446  2.2630
   68CHL1  H15B 7458   4.811   1.247   9.523 -0.0726  0.1749 -2.7541
   68CHL1   C16 7459   4.889   1.116   9.356 -0.8188  0.6492  0.0571
   68CHL1  H16A 7460   4.836   1.022   9.329 -0.4789  0.2278  0.8278
   68CHL1  H16B 7461   4.865   1.190   9.277 -0.4083 -1.6115 -2.2436
   68CHL1   C17 7462   5.037   1.071   9.351  0.3592 -0.1985 -0.8343
   68CHL1   H17 7463   5.102   1.161   9.341  2.0868 -1.0700  2.0131
   68CHL1   C13 7464   5.060   1.007   9.491 -0.0210  0.0198  0.1459
   68CHL1   C18 7465   5.011   0.863   9.491  0.6196  0.6175  0.5462
   68CHL1  H18A 7466   5.073   0.810   9.415 -2.6120 -2.2052 -0.2439
   68CHL1  H18B 7467   5.021   0.812   9.589  0.4089  3.1831  1.9447
   68CHL1  H18C 7468   4.903   0.860   9.466  0.3618 -1.1616  1.8402
   68CHL1   C12 7469   5.204   1.014   9.549 -0.0693 -0.2344 -0.2687
   68CHL1  H12A 7470   5.282   0.962   9.490 -1.4932 -0.7805 -1.7165
   68CHL1  H12B 7471   5.236   1.118   9.525 -2.7696  0.7407  0.1126
   68CHL1   C11 7472   5.209   0.976   9.696 -0.4621 -0.2110  0.2685
   68CHL1  H11A 7473   5.175   0.871   9.710 -0.9977 -0.0560  0.1305
   68CHL1  H11B 7474   5.313   0.974   9.736 -0.2742 -2.4188 -0.2551
   68CHL1    C9 7475   5.114   1.061   9.779  0.3100 -0.6183 -0.0870
   68CHL1    H9 7476   5.163   1.159   9.764 -0.4301 -0.3087 -0.5275
   68CHL1   C10 7477   5.115   1.025   9.933 -0.1658 -0.4969 -0.6727
   68CHL1   C19 7478   5.094   0.875   9.953  0.1927  0.0291 -0.1911
   68CHL1  H19A 7479   5.002   0.839   9.902  1.0495 -2.3017 -0.1647
   68CHL1  H19B 7480   5.182   0.818   9.916 -0.8551 -1.5706 -0.3051
   68CHL1  H19C 7481   5.088   0.848  10.060 -0.2395  1.6077  0.1913
   68CHL1    C1 7482   5.255   1.061   9.993 -0.5324 -0.5169  0.1618
   68CHL1   H1A 7483   5.322   0.986   9.946  0.7279  0.7712 -0.1382
   68CHL1   H1B 7484   5.286   1.163   9.962 -0.5028 -0.6815 -0.3610
   68CHL1    C2 7485   5.260   1.056  10.151 -0.5325  0.7756  1.1683
   68CHL1   H2A 7486   5.360   1.084  10.192 -0.9701  1.5206  1.7624
   68CHL1   H2B 7487   5.238   0.954  10.188  1.3177 -0.3774 -0.8103
   68CHL1   C20 7488   5.072   0.984   9.229  0.1561 -0.1177  0.0485
   68CHL1   H20 7489   5.014   0.890   9.228  2.4050 -1.5498 -0.6396
   68CHL1   C21 7490   5.221   0.939   9.226 -0.1691  0.0731  0.3103
   68CHL1  H21A 7491   5.249   0.889   9.131 -0.2452 -0.4809  0.5739
   68CHL1  H21B 7492   5.242   0.858   9.299  0.1835 -0.4087 -0.3192
   68CHL1  H21C 7493   5.291   1.021   9.250 -1.2617  1.1332 -0.0677
   68CHL1   C22 7494   5.021   1.054   9.099 -0.1555  0.2509 -0.4887
   68CHL1  H22A 7495   4.915   1.082   9.117 -1.2284 -3.1979 -1.0847
   68CHL1  H22B 7496   5.076   1.149   9.083  0.3444  0.2234  1.0070
   68CHL1   C23 7497   5.036   0.977   8.965  0.7759  0.0090  1.2968
   68CHL1  H23A 7498   5.142   0.971   8.930  0.4175 -1.5154  0.4592
   68CHL1  H23B 7499   5.002   0.874   8.988 -0.6195 -0.4523 -2.5144
   68CHL1   C24 7500   4.944   1.024   8.856  0.5167 -0.2486 -0.5616
   68CHL1  H24A 7501   4.847   1.062   8.895  0.0918  2.0568 -3.6637
   68CHL1  H24B 7502   4.997   1.104   8.801  1.1122 -0.5774 -0.4647
   68CHL1   C25 7503   4.912   0.923   8.753  1.9140 -0.6555 -0.2195
   68CHL1   H25 7504   4.849   0.842   8.796  0.2904  0.3007 -0.7172
   68CHL1   C26 7505   4.833   0.983   8.641  0.1697 -0.5315 -0.2763
   68CHL1  H26A 7506   4.893   1.068   8.601 -2.4500  1.9239  0.8495
   68CHL1  H26B 7507   4.810   0.910   8.561 -1.9130 -0.4708  0.2354
   68CHL1  H26C 7508   4.742   1.029   8.684 -0.2901  0.7783 -2.5225
   68CHL1   C27 7509   5.032   0.865   8.688 -0.4459  0.5308  0.0462
   68CHL1  H27A 7510   5.105   0.946   8.663 -0.7006  1.2314  1.5283
   68CHL1  H27B 7511   5.086   0.804   8.764  0.9974  3.0152  1.0806
   68CHL1  H27C 7512   5.014   0.803   8.598 -1.2876  0.8204  0.0194
   69CHL1    C3 7513   3.944   5.887   6.628  0.3141  0.1261 -0.3561
   69CHL1    H3 7514   4.047   5.847   6.645  0.5889  1.0552  0.1765
   69CHL1    O3 7515   3.906   5.870   6.495 -0.4967  0.2956  0.4206
   69CHL1   H3' 7516   3.924   5.776   6.485  1.1497  0.4782  1.3592
   69CHL1    C4 7517   3.840   5.800   6.712  0.1578  1.1855  0.6965
   69CHL1   H4A 7518   3.736   5.832   6.688  0.7543  1.0327 -2.4121
   69CHL1   H4B 7519   3.831   5.698   6.667  3.5958  0.2209  2.0538
   69CHL1    C5 7520   3.862   5.811   6.861 -0.1860 -0.3333  0.0855
   69CHL1    C6 7521   3.880   5.704   6.933  0.0173 -0.3926 -0.1459
   69CHL1    H6 7522   3.868   5.607   6.883 -1.2909  0.0638 -0.7319
   69CHL1    C7 7523   3.891   5.704   7.080  0.4468  0.9183 -0.3470
   69CHL1   H7A 7524   3.822   5.632   7.127 -1.8232  1.3193 -2.9529
   69CHL1   H7B 7525   3.991   5.663   7.107 -0.1061 -1.9422 -2.4311
   69CHL1    C8 7526   3.869   5.847   7.145 -0.3687 -0.0123  0.0907
   69CHL1    H8 7527   3.760   5.869   7.153 -0.1220  1.8776 -1.4940
   69CHL1   C14 7528   3.942   5.852   7.277 -0.3447  0.3061 -0.9028
   69CHL1   H14 7529   4.050   5.857   7.253  0.2621  0.4189  1.6983
   69CHL1   C15 7530   3.914   5.742   7.378 -0.0020 -0.4475 -0.1217
   69CHL1  H15A 7531   3.816   5.689   7.376 -0.6993  0.8637 -2.0703
   69CHL1  H15B 7532   3.989   5.660   7.369 -0.7621 -1.2169  0.4703
   69CHL1   C16 7533   3.942   5.808   7.516 -0.1489  0.4540 -0.1593
   69CHL1  H16A 7534   3.848   5.821   7.575  0.0750 -0.3712  0.3853
   69CHL1  H16B 7535   4.012   5.754   7.583 -1.0314  0.4612  0.7824
   69CHL1   C17 7536   3.997   5.945   7.484  0.2361 -0.2045 -0.1500
   69CHL1   H17 7537   4.105   5.934   7.462  0.3908 -0.7628  0.8653
   69CHL1   C13 7538   3.919   5.981   7.345 -0.0422  0.3748 -1.0593
   69CHL1   C18 7539   3.768   6.005   7.379  0.4590 -0.1391 -0.0805
   69CHL1  H18A 7540   3.757   6.104   7.429  1.1818  0.6752 -1.5328
   69CHL1  H18B 7541   3.691   6.010   7.299 -2.6372 -0.2836  2.7514
   69CHL1  H18C 7542   3.729   5.926   7.448  0.9924  1.5120  2.1836
   69CHL1   C12 7543   3.972   6.097   7.266 -0.0514  0.0286 -0.1816
   69CHL1  H12A 7544   3.957   6.201   7.305  2.9174  0.6349 -0.4843
   69CHL1  H12B 7545   4.082   6.086   7.250 -0.1673  0.9709 -1.7570
   69CHL1   C11 7546   3.912   6.098   7.125  0.2334 -0.8284  0.5460
   69CHL1  H11A 7547   3.803   6.119   7.132  0.4915  0.4120  0.9882
   69CHL1  H11B 7548   3.952   6.181   7.062 -2.4094 -0.6475 -0.9505
   69CHL1    C9 7549   3.927   5.961   7.057 -0.5024 -0.4413 -0.4016
   69CHL1    H9 7550   4.035   5.936   7.055 -0.6582 -1.1534 -0.0536
   69CHL1   C10 7551   3.867   5.960   6.908 -0.2437  0.3566 -0.6279
   69CHL1   C19 7552   3.721   6.005   6.914  0.1166  0.3329  0.3180
   69CHL1  H19A 7553   3.665   5.935   6.980 -1.5710  0.5877 -0.7991
   69CHL1  H19B 7554   3.710   6.107   6.955  1.3349  0.2941  0.7484
   69CHL1  H19C 7555   3.661   6.005   6.820  1.0028 -0.8723 -0.2559
   69CHL1    C1 7556   3.962   6.048   6.816 -0.3317  0.3437 -0.1940
   69CHL1   H1A 7557   3.952   6.156   6.842  1.6613  0.4690  0.0745
   69CHL1   H1B 7558   4.064   6.017   6.845  0.1215  3.6912  2.0963
   69CHL1    C2 7559   3.938   6.036   6.668  0.1374  1.5508 -0.4681
   69CHL1   H2A 7560   4.011   6.093   6.607 -0.9928  2.7009 -0.7619
   69CHL1   H2B 7561   3.837   6.079   6.654  0.7900  2.0054 -4.3421
   69CHL1   C20 7562   3.987   6.042   7.597  0.1785  0.5504 -0.3936
   69CHL1   H20 7563   3.883   6.080   7.608 -0.2861 -0.9792  0.7369
   69CHL1   C21 7564   4.091   6.155   7.575  0.3739  0.4994  0.5837
   69CHL1  H21A 7565   4.100   6.193   7.471  3.6133 -1.2532  0.1346
   69CHL1  H21B 7566   4.197   6.130   7.600  1.3559  3.7731 -0.1127
   69CHL1  H21C 7567   4.063   6.238   7.642  1.7035  0.0743  1.6881
   69CHL1   C22 7568   4.014   5.972   7.734 -0.3193 -0.0788  0.0758
   69CHL1  H22A 7569   3.948   5.888   7.761  1.4259 -1.3382  0.4955
   69CHL1  H22B 7570   4.114   5.928   7.712 -0.9889 -2.0753  0.9950
   69CHL1   C23 7571   4.036   6.066   7.860  0.2061  0.2209  0.4748
   69CHL1  H23A 7572   4.121   6.132   7.833  1.3095 -1.2721  0.2813
   69CHL1  H23B 7573   3.950   6.137   7.867 -1.0606 -1.2349 -0.0414
   69CHL1   C24 7574   4.053   5.991   7.994 -0.1859 -0.5220  0.2491
   69CHL1  H24A 7575   3.974   5.913   7.992 -1.1314  0.3510  2.0993
   69CHL1  H24B 7576   4.154   5.944   7.993 -0.9948 -2.3007 -0.3549
   69CHL1   C25 7577   4.025   6.073   8.125 -0.7195  0.3122  0.1632
   69CHL1   H25 7578   4.097   6.157   8.115 -1.1310  0.4786 -1.5788
   69CHL1   C26 7579   3.875   6.121   8.133  0.4468  0.3639 -0.1390
   69CHL1  H26A 7580   3.856   6.194   8.214 -0.9022 -0.0853 -0.0430
   69CHL1  H26B 7581   3.862   6.187   8.045 -1.0001 -1.3240 -1.2269
   69CHL1  H26C 7582   3.798   6.040   8.131 -0.0827  0.7448  2.7767
   69CHL1   C27 7583   4.055   5.991   8.248 -0.2411  0.1448 -0.0759
   69CHL1  H27A 7584   4.154   5.942   8.249 -0.9223 -1.2744  0.3150
   69CHL1  H27B 7585   4.054   6.046   8.345  2.8513 -1.3845  0.8791
   69CHL1  H27C 7586   3.972   5.921   8.272 -1.1318  0.8722 -0.9525
   70CHL1    C3 7587   3.028   2.675   7.082  0.1739 -0.5608 -0.1934
   70CHL1    H3 7588   2.990   2.577   7.117 -0.3325 -0.2340  0.1833
   70CHL1    O3 7589   2.981   2.672   6.948  0.6563 -0.1701 -0.0081
   70CHL1   H3' 7590   3.008   2.752   6.903  1.0695 -1.8575 -2.8853
   70CHL1    C4 7591   2.957   2.779   7.166  0.2699 -0.4274  0.5575
   70CHL1   H4A 7592   2.990   2.878   7.127  0.0305 -0.6332 -0.1693
   70CHL1   H4B 7593   2.847   2.775   7.151  0.3608 -0.4547 -0.1190
   70CHL1    C5 7594   2.993   2.772   7.316  0.2397 -0.6239 -0.4672
   70CHL1    C6 7595   2.896   2.751   7.410 -0.2139 -0.6275 -0.0609
   70CHL1    H6 7596   2.790   2.741   7.380 -1.3152  2.7366  2.4073
   70CHL1    C7 7597   2.935   2.763   7.554 -0.2030 -0.1298 -0.0851
   70CHL1   H7A 7598   2.861   2.824   7.609 -1.1891  0.4198 -1.9857
   70CHL1   H7B 7599   2.934   2.661   7.598 -2.5049 -0.0388  0.1266
   70CHL1    C8 7600   3.078   2.811   7.591 -0.1836  0.3363  0.4450
   70CHL1    H8 7601   3.063   2.920   7.577  2.1292  0.2716 -3.0295
   70CHL1   C14 7602   3.122   2.789   7.731  0.2266 -0.7431 -0.5227
   70CHL1   H14 7603   3.133   2.679   7.740  2.3174 -0.4400  1.0107
   70CHL1   C15 7604   3.023   2.836   7.845  0.3895 -0.3160  0.3532
   70CHL1  H15A 7605   2.983   2.937   7.823  3.4357  1.3181  2.0641
   70CHL1  H15B 7606   2.933   2.771   7.854 -0.1986  0.4253 -0.1825
   70CHL1   C16 7607   3.119   2.844   7.966  0.2159 -0.7231 -0.2668
   70CHL1  H16A 7608   3.104   2.949   7.998 -1.0312 -0.5258 -1.4275
   70CHL1  H16B 7609   3.083   2.773   8.044  2.4675 -1.7699 -0.1637
   70CHL1   C17 7610   3.270   2.819   7.918 -0.5085 -0.1415  0.0811
   70CHL1   H17 7611   3.280   2.709   7.927 -2.1848 -0.3562 -0.5755
   70CHL1   C13 7612   3.267   2.846   7.761 -0.1271 -0.4509 -0.4649
   70CHL1   C18 7613   3.265   2.992   7.737 -0.4905 -0.5813  0.1671
   70CHL1  H18A 7614   3.250   3.015   7.629  0.6131  1.1259  0.3650
   70CHL1  H18B 7615   3.186   3.037   7.800  1.2132  1.3024  1.0013
   70CHL1  H18C 7616   3.367   3.033   7.751  0.5046 -2.3601 -1.5521
   70CHL1   C12 7617   3.361   2.761   7.676 -0.2849  0.5209 -0.2152
   70CHL1  H12A 7618   3.468   2.787   7.690  0.6067 -2.0109 -1.8434
   70CHL1  H12B 7619   3.338   2.656   7.704 -0.0894  0.2330 -1.1291
   70CHL1   C11 7620   3.334   2.772   7.525 -0.1068 -0.8723 -0.0228
   70CHL1  H11A 7621   3.369   2.870   7.487  1.5692 -2.1427 -1.8761
   70CHL1  H11B 7622   3.402   2.705   7.468 -1.0999  0.0640 -2.3658
   70CHL1    C9 7623   3.181   2.747   7.489 -0.4303 -0.1247 -0.5691
   70CHL1    H9 7624   3.168   2.638   7.506  1.6806  0.0196  2.2927
   70CHL1   C10 7625   3.144   2.784   7.342  0.7361 -0.1536  0.2228
   70CHL1   C19 7626   3.204   2.925   7.308 -0.1968  0.8882  0.1582
   70CHL1  H19A 7627   3.313   2.916   7.293 -0.0968 -1.1268  1.8733
   70CHL1  H19B 7628   3.156   2.963   7.215 -2.1981 -0.6407  0.5337
   70CHL1  H19C 7629   3.173   2.999   7.384  0.7031  2.0233 -0.5631
   70CHL1    C1 7630   3.216   2.681   7.243 -0.4308  0.5315  0.3163
   70CHL1   H1A 7631   3.325   2.690   7.256 -0.1311 -0.3552 -1.3908
   70CHL1   H1B 7632   3.197   2.578   7.280 -0.1737  0.2219 -0.4111
   70CHL1    C2 7633   3.175   2.682   7.092 -0.5752  0.0543  0.7567
   70CHL1   H2A 7634   3.224   2.602   7.031  1.2159  1.9181 -0.3085
   70CHL1   H2B 7635   3.201   2.783   7.054  0.1429  0.0731  1.2859
   70CHL1   C20 7636   3.377   2.889   8.009 -0.2327  0.2052 -0.9528
   70CHL1   H20 7637   3.359   2.998   8.021 -2.1602 -0.2391  0.4169
   70CHL1   C21 7638   3.521   2.867   7.958  0.1532 -0.1506  0.1460
   70CHL1  H21A 7639   3.592   2.938   8.005  0.0375  1.3772 -1.9040
   70CHL1  H21B 7640   3.532   2.873   7.848 -1.5429 -1.1388 -0.0990
   70CHL1  H21C 7641   3.557   2.763   7.976  3.0352  0.8919  0.6972
   70CHL1   C22 7642   3.373   2.823   8.148  0.2005  0.0405 -0.2053
   70CHL1  H22A 7643   3.276   2.840   8.200 -0.1778 -3.7954  0.4969
   70CHL1  H22B 7644   3.383   2.713   8.134 -0.0583 -0.0360  0.2068
   70CHL1   C23 7645   3.491   2.871   8.238 -0.4554 -0.1890  0.4856
   70CHL1  H23A 7646   3.582   2.827   8.193 -1.9777 -2.4844 -0.4459
   70CHL1  H23B 7647   3.483   2.981   8.224  0.9262  0.0586  1.5608
   70CHL1   C24 7648   3.477   2.832   8.388  0.5087 -0.0352  0.2882
   70CHL1  H24A 7649   3.405   2.901   8.435 -1.3980 -1.7211 -0.0975
   70CHL1  H24B 7650   3.423   2.735   8.398  0.6206 -0.1614 -0.2988
   70CHL1   C25 7651   3.605   2.823   8.471  1.0240  0.7619 -0.3180
   70CHL1   H25 7652   3.658   2.919   8.455  0.6828  0.9721 -0.2033
   70CHL1   C26 7653   3.571   2.800   8.615 -0.8424 -0.2075 -0.1625
   70CHL1  H26A 7654   3.508   2.884   8.651 -0.5148 -0.5421  1.2200
   70CHL1  H26B 7655   3.524   2.699   8.618 -0.9574 -0.1481 -0.0099
   70CHL1  H26C 7656   3.666   2.798   8.672  0.0570  1.0993 -1.5592
   70CHL1   C27 7657   3.708   2.717   8.427  1.3252 -0.2121  0.0421
   70CHL1  H27A 7658   3.661   2.618   8.409  2.1946 -0.7454  0.6325
   70CHL1  H27B 7659   3.761   2.758   8.338  0.3331  2.2246  0.5360
   70CHL1  H27C 7660   3.784   2.723   8.508  1.8848 -0.7759 -0.4398
   71CHL1    C3 7661   3.217   4.786   6.879 -0.3599  0.5705  0.6244
   71CHL1    H3 7662   3.216   4.677   6.899 -0.5149  0.8173  2.0040
   71CHL1    O3 7663   3.223   4.797   6.736 -0.5186  0.3283 -0.3680
   71CHL1   H3' 7664   3.221   4.891   6.716 -0.9399  0.3852 -0.0652
   71CHL1    C4 7665   3.096   4.869   6.932  0.0716 -1.0080  0.2762
   71CHL1   H4A 7666   3.104   4.973   6.893 -4.4126 -0.0669  1.5839
   71CHL1   H4B 7667   3.004   4.831   6.885  0.1686 -1.3768  0.3825
   71CHL1    C5 7668   3.101   4.876   7.079 -0.2961 -0.3978 -0.2483
   71CHL1    C6 7669   2.994   4.835   7.154 -0.2262 -0.4999  1.0171
   71CHL1    H6 7670   2.900   4.826   7.098  0.4555  0.3902 -0.2919
   71CHL1    C7 7671   2.976   4.824   7.302 -1.0569 -0.2185 -0.3966
   71CHL1   H7A 7672   2.886   4.883   7.330  1.1781  3.1333 -0.1260
   71CHL1   H7B 7673   2.965   4.720   7.341  0.9921 -0.7914 -1.2674
   71CHL1    C8 7674   3.084   4.893   7.377  0.1410  0.9603  0.6302
   71CHL1    H8 7675   3.065   5.001   7.362 -0.7607  0.2803 -3.8830
   71CHL1   C14 7676   3.076   4.843   7.525  0.3863  0.2960  0.5280
   71CHL1   H14 7677   3.095   4.734   7.514  0.3283  0.3245  0.1289
   71CHL1   C15 7678   2.948   4.870   7.608 -0.2811 -0.0083  0.4963
   71CHL1  H15A 7679   2.919   4.976   7.595 -1.5440 -0.4551 -0.4030
   71CHL1  H15B 7680   2.860   4.804   7.591  0.0711 -0.4526  0.4089
   71CHL1   C16 7681   2.999   4.856   7.754  0.0739  0.4898  1.2268
   71CHL1  H16A 7682   2.969   4.942   7.818 -0.1795  1.4050 -0.1015
   71CHL1  H16B 7683   2.954   4.768   7.804  0.4753 -0.4697 -0.0660
   71CHL1   C17 7684   3.158   4.842   7.746 -0.2027 -0.2987  0.1301
   71CHL1   H17 7685   3.178   4.733   7.746 -0.6209 -0.3770 -0.4501
   71CHL1   C13 7686   3.193   4.899   7.609 -0.3775  0.4977 -0.4730
   71CHL1   C18 7687   3.192   5.053   7.623  0.3395 -0.2139 -0.3641
   71CHL1  H18A 7688   3.291   5.087   7.661 -0.4182 -0.4265  1.8599
   71CHL1  H18B 7689   3.170   5.117   7.535 -0.6639 -0.3679 -0.2366
   71CHL1  H18C 7690   3.126   5.085   7.706  0.8620  1.6224 -0.6313
   71CHL1   C12 7691   3.327   4.848   7.549 -0.1278 -0.2739  0.0049
   71CHL1  H12A 7692   3.413   4.896   7.600 -1.5167  2.0341  0.2495
   71CHL1  H12B 7693   3.332   4.738   7.567 -2.1475  0.1417  3.8117
   71CHL1   C11 7694   3.341   4.889   7.402 -0.3470 -0.6798 -0.1896
   71CHL1  H11A 7695   3.356   4.999   7.390  1.0120 -1.0532 -2.1381
   71CHL1  H11B 7696   3.427   4.840   7.351 -0.5078 -0.8846 -0.2645
   71CHL1    C9 7697   3.219   4.854   7.308  0.0053  0.1838 -0.5876
   71CHL1    H9 7698   3.211   4.743   7.312 -2.2771  0.1944 -3.4069
   71CHL1   C10 7699   3.232   4.890   7.160  0.1062  0.1318  0.4838
   71CHL1   C19 7700   3.278   5.036   7.151  0.0828 -0.1357 -0.6947
   71CHL1  H19A 7701   3.253   5.078   7.051 -3.9839 -0.6868 -0.0129
   71CHL1  H19B 7702   3.206   5.090   7.216  0.6514 -0.1672 -0.0359
   71CHL1  H19C 7703   3.382   5.064   7.178  0.6609 -1.1483 -1.8127
   71CHL1    C1 7704   3.344   4.810   7.087  0.1488  0.6193  0.6652
   71CHL1   H1A 7705   3.438   4.840   7.138  0.0131  0.2802  1.1171
   71CHL1   H1B 7706   3.324   4.704   7.114 -2.0449  1.4692  2.5000
   71CHL1    C2 7707   3.349   4.829   6.933  0.2168  0.1623  0.6217
   71CHL1   H2A 7708   3.428   4.765   6.889  0.8612  1.2997  0.0951
   71CHL1   H2B 7709   3.374   4.932   6.899 -3.3298  1.0818  0.6275
   71CHL1   C20 7710   3.223   4.900   7.876 -0.2558  0.3546  0.7630
   71CHL1   H20 7711   3.190   5.006   7.882  0.6903  0.7202 -0.1671
   71CHL1   C21 7712   3.377   4.905   7.863  0.1510 -0.0622 -0.4360
   71CHL1  H21A 7713   3.429   4.811   7.836  0.8779 -0.1379  1.1993
   71CHL1  H21B 7714   3.432   4.944   7.951 -1.5160  2.0200 -0.2807
   71CHL1  H21C 7715   3.415   4.977   7.787  2.0276  0.6268  1.1320
   71CHL1   C22 7716   3.183   4.825   8.010  1.0297  0.7764  0.2881
   71CHL1  H22A 7717   3.073   4.831   8.021  0.8649  1.1041 -1.4705
   71CHL1  H22B 7718   3.214   4.719   7.996 -2.6986 -0.2231 -0.8421
   71CHL1   C23 7719   3.240   4.893   8.137 -0.2669 -0.2789  0.2222
   71CHL1  H23A 7720   3.351   4.891   8.133 -0.1799  2.5096  0.2998
   71CHL1  H23B 7721   3.217   5.001   8.139  2.3865  0.3339 -0.5642
   71CHL1   C24 7722   3.205   4.820   8.265 -0.5423  0.2390  0.0072
   71CHL1  H24A 7723   3.099   4.831   8.296 -0.4542 -1.0127  0.7802
   71CHL1  H24B 7724   3.222   4.712   8.243 -0.7462  0.4649 -1.3083
   71CHL1   C25 7725   3.290   4.887   8.377 -0.2144  0.1634  0.3493
   71CHL1   H25 7726   3.294   4.995   8.351  1.9934  0.7164  2.8107
   71CHL1   C26 7727   3.211   4.884   8.509  0.3134  0.1823  0.0526
   71CHL1  H26A 7728   3.108   4.924   8.494  0.0141 -0.6868 -0.2496
   71CHL1  H26B 7729   3.195   4.781   8.547 -1.4906  0.1634 -0.6712
   71CHL1  H26C 7730   3.255   4.944   8.591  0.3594  4.0197 -2.5974
   71CHL1   C27 7731   3.439   4.833   8.385 -0.5772 -0.2769 -0.0480
   71CHL1  H27A 7732   3.503   4.885   8.460 -0.9558  1.0661 -0.6589
   71CHL1  H27B 7733   3.438   4.726   8.416  4.1326 -0.2656  0.4998
   71CHL1  H27C 7734   3.487   4.828   8.285 -2.0465  0.1412 -0.7907
   72CHL1    C3 7735   2.926   3.353   7.178  0.3288  0.5368 -0.2276
   72CHL1    H3 7736   2.957   3.450   7.223  1.8963 -0.2445  0.4373
   72CHL1    O3 7737   2.960   3.361   7.036 -0.6310 -0.4480 -0.1502
   72CHL1   H3' 7738   2.926   3.445   7.005  2.0596  0.1617 -1.5951
   72CHL1    C4 7739   3.004   3.245   7.256  0.1105 -0.5360 -0.0954
   72CHL1   H4A 7740   2.990   3.146   7.209 -0.2355  0.6214 -2.5146
   72CHL1   H4B 7741   3.112   3.272   7.254 -0.1868  0.7347  0.3329
   72CHL1    C5 7742   2.956   3.242   7.399  0.3857  0.0919  0.1686
   72CHL1    C6 7743   3.046   3.254   7.499 -0.0621  0.9181  0.4181
   72CHL1    H6 7744   3.154   3.262   7.476 -0.4002 -0.9111 -2.0401
   72CHL1    C7 7745   3.005   3.260   7.644  0.4864  0.0904 -0.3148
   72CHL1   H7A 7746   3.060   3.186   7.707 -1.7871 -0.4102  1.1343
   72CHL1   H7B 7747   3.021   3.361   7.686 -2.4201  1.0442 -1.3904
   72CHL1    C8 7748   2.861   3.210   7.671  0.5259 -0.0396 -0.2242
   72CHL1    H8 7749   2.862   3.099   7.680 -0.4518 -0.2411 -2.3513
   72CHL1   C14 7750   2.830   3.269   7.810  0.0573  0.3825 -0.5559
   72CHL1   H14 7751   2.812   3.376   7.787 -1.6523  0.3380  0.5190
   72CHL1   C15 7752   2.937   3.265   7.918  0.1986 -0.3959 -0.2302
   72CHL1  H15A 7753   2.992   3.168   7.918 -0.3449 -0.7076 -0.8180
   72CHL1  H15B 7754   2.995   3.360   7.923 -2.9505  1.5588  0.5196
   72CHL1   C16 7755   2.856   3.277   8.050  0.0618 -0.6220  0.0689
   72CHL1  H16A 7756   2.879   3.186   8.110  0.4230 -0.1414  0.6736
   72CHL1  H16B 7757   2.873   3.372   8.105  1.0757 -1.0161  0.4400
   72CHL1   C17 7758   2.709   3.276   8.005  0.1786 -0.2148  0.3076
   72CHL1   H17 7759   2.675   3.381   7.991 -0.0869  0.0764  2.9750
   72CHL1   C13 7760   2.703   3.206   7.869  0.1803 -1.2926 -0.6611
   72CHL1   C18 7761   2.720   3.051   7.888 -0.0999  0.7632 -0.2184
   72CHL1  H18A 7762   2.815   3.031   7.943 -1.8118 -3.1358  1.5264
   72CHL1  H18B 7763   2.640   3.002   7.947  1.0949 -0.3294  0.5155
   72CHL1  H18C 7764   2.723   3.000   7.789  0.3072  2.4715 -1.1018
   72CHL1   C12 7765   2.583   3.237   7.773  0.2773  0.0402  0.3838
   72CHL1  H12A 7766   2.496   3.178   7.810 -0.4553  0.4809 -0.6037
   72CHL1  H12B 7767   2.562   3.345   7.789  2.8447  0.2655  2.5099
   72CHL1   C11 7768   2.614   3.212   7.623 -0.2559  0.5689  0.4489
   72CHL1  H11A 7769   2.613   3.103   7.597 -1.2167  0.6173  0.2725
   72CHL1  H11B 7770   2.538   3.258   7.556 -3.0798 -1.5810  2.0523
   72CHL1    C9 7771   2.758   3.258   7.573 -0.4952 -0.0873 -0.8383
   72CHL1    H9 7772   2.764   3.368   7.587 -0.1592 -0.3262  0.9430
   72CHL1   C10 7773   2.801   3.233   7.424 -0.4045  0.2704  0.0963
   72CHL1   C19 7774   2.763   3.088   7.391  0.2415  0.4070  0.5826
   72CHL1  H19A 7775   2.802   3.019   7.469 -0.7965  0.4716  1.1681
   72CHL1  H19B 7776   2.652   3.087   7.386  0.1129  1.1850  2.5091
   72CHL1  H19C 7777   2.791   3.053   7.290 -0.4554  1.0172  0.1755
   72CHL1    C1 7778   2.720   3.334   7.333 -0.0855 -0.4251 -1.0170
   72CHL1   H1A 7779   2.613   3.313   7.356  0.1881 -0.5924  0.1145
   72CHL1   H1B 7780   2.731   3.438   7.369  1.2051 -0.0566 -2.3998
   72CHL1    C2 7781   2.769   3.337   7.192  0.2965  0.4533 -0.1271
   72CHL1   H2A 7782   2.733   3.422   7.130  0.4604  0.2360 -0.5279
   72CHL1   H2B 7783   2.738   3.238   7.150  0.1217  0.2967  0.3734
   72CHL1   C20 7784   2.621   3.214   8.120 -0.2020  0.2276 -0.4124
   72CHL1   H20 7785   2.648   3.108   8.138 -0.2262  0.0607 -1.3161
   72CHL1   C21 7786   2.477   3.201   8.077  0.2038 -0.1511 -0.1298
   72CHL1  H21A 7787   2.404   3.215   8.159 -0.7289 -0.4987 -0.8942
   72CHL1  H21B 7788   2.466   3.097   8.041  0.5469 -0.9055  1.8821
   72CHL1  H21C 7789   2.446   3.264   7.991 -0.1802  0.5410  0.5085
   72CHL1   C22 7790   2.632   3.303   8.244  0.5231 -0.3913 -1.0020
   72CHL1  H22A 7791   2.574   3.248   8.321 -0.4073 -1.0983 -2.1898
   72CHL1  H22B 7792   2.738   3.297   8.277 -0.0148 -0.2630  0.7805
   72CHL1   C23 7793   2.575   3.446   8.241 -0.2914 -0.6835  0.2238
   72CHL1  H23A 7794   2.559   3.481   8.137  0.5449  0.1192  0.3598
   72CHL1  H23B 7795   2.475   3.437   8.289  0.4874 -0.9077  1.8455
   72CHL1   C24 7796   2.672   3.560   8.296 -1.1215  0.4120  0.2807
   72CHL1  H24A 7797   2.708   3.528   8.396 -2.9372 -1.3497  0.4082
   72CHL1  H24B 7798   2.761   3.576   8.232 -0.7726  0.7112  0.8406
   72CHL1   C25 7799   2.598   3.700   8.321  0.2205  0.4079  0.5417
   72CHL1   H25 7800   2.522   3.679   8.399 -1.8145 -0.4500 -1.6041
   72CHL1   C26 7801   2.688   3.819   8.354  0.4682 -0.0609  0.5719
   72CHL1  H26A 7802   2.758   3.830   8.268  1.2860 -0.0284  1.2369
   72CHL1  H26B 7803   2.626   3.911   8.368  0.4694  0.0760 -0.2748
   72CHL1  H26C 7804   2.758   3.817   8.441  0.6415  2.4507  0.5467
   72CHL1   C27 7805   2.519   3.746   8.195 -0.0922  0.2155  0.3446
   72CHL1  H27A 7806   2.445   3.669   8.164 -1.2536  1.2237  0.5780
   72CHL1  H27B 7807   2.465   3.838   8.228 -1.0422 -0.6678  1.2731
   72CHL1  H27C 7808   2.592   3.756   8.112  1.8752 -0.1229  1.9694
   73CHL1    C3 7809   3.199   6.190   7.117 -0.0489 -0.0022 -0.4071
   73CHL1    H3 7810   3.195   6.086   7.157 -2.2904 -0.2384 -1.1835
   73CHL1    O3 7811   3.247   6.180   6.977  0.3306  0.1066  0.1712
   73CHL1   H3' 7812   3.301   6.258   6.966  0.7947 -0.2917 -0.4111
   73CHL1    C4 7813   3.058   6.258   7.132  0.2661  0.2244  0.3158
   73CHL1   H4A 7814   3.068   6.360   7.089  1.7467  0.1679  0.4995
   73CHL1   H4B 7815   2.983   6.203   7.071 -2.8134  0.8351  3.3905
   73CHL1    C5 7816   3.024   6.259   7.277  0.3011  0.8356  0.5967
   73CHL1    C6 7817   2.912   6.187   7.305 -0.3143  0.4609 -0.1720
   73CHL1    H6 7818   2.849   6.142   7.227 -2.1503  1.2648  0.8010
   73CHL1    C7 7819   2.858   6.185   7.449  0.5073 -0.0267 -0.3125
   73CHL1   H7A 7820   2.754   6.223   7.457  1.2108  1.7326  0.6053
   73CHL1   H7B 7821   2.861   6.080   7.484 -0.3162  0.1748  0.3755
   73CHL1    C8 7822   2.934   6.276   7.556  0.3304 -0.3393  0.6212
   73CHL1    H8 7823   2.888   6.376   7.544 -0.7953 -0.9663 -0.4218
   73CHL1   C14 7824   2.911   6.219   7.694  1.0638  0.3413  0.2800
   73CHL1   H14 7825   2.959   6.118   7.690 -1.4417 -0.9140  0.9364
   73CHL1   C15 7826   2.771   6.193   7.739  0.9608  0.0137 -0.2787
   73CHL1  H15A 7827   2.697   6.272   7.715 -1.3175 -1.3863  1.8646
   73CHL1  H15B 7828   2.742   6.098   7.688  0.5455 -0.0341  0.0446
   73CHL1   C16 7829   2.786   6.160   7.890  0.0966 -0.4171 -0.5991
   73CHL1  H16A 7830   2.724   6.229   7.951 -1.1116 -1.1239 -1.0062
   73CHL1  H16B 7831   2.760   6.056   7.918  1.3617 -1.0086 -1.5578
   73CHL1   C17 7832   2.935   6.186   7.921  0.0342 -0.6937 -0.2738
   73CHL1   H17 7833   2.989   6.091   7.901  3.0179  0.8244  0.3198
   73CHL1   C13 7834   2.981   6.284   7.812 -0.0046  0.0557 -0.2072
   73CHL1   C18 7835   2.935   6.423   7.843 -0.2666 -0.5721  0.1107
   73CHL1  H18A 7836   2.830   6.429   7.878  0.1203 -0.2839  1.2362
   73CHL1  H18B 7837   2.989   6.477   7.924 -0.6560  0.5152 -0.3480
   73CHL1  H18C 7838   2.938   6.489   7.754 -1.3167  0.8517  1.1154
   73CHL1   C12 7839   3.129   6.281   7.782  0.2016 -0.1807  0.8427
   73CHL1  H12A 7840   3.183   6.343   7.857  0.1786 -2.4860  2.8250
   73CHL1  H12B 7841   3.158   6.174   7.775 -0.7229 -0.6375  3.4651
   73CHL1   C11 7842   3.161   6.343   7.639 -0.3429  0.2172 -0.3759
   73CHL1  H11A 7843   3.147   6.454   7.638 -2.7001 -0.0410 -0.4633
   73CHL1  H11B 7844   3.269   6.322   7.625 -0.1581 -0.2622  1.6326
   73CHL1    C9 7845   3.086   6.278   7.524  0.2225  0.2940  0.1197
   73CHL1    H9 7846   3.118   6.171   7.530  1.6444  0.7805  1.4673
   73CHL1   C10 7847   3.115   6.317   7.377 -0.3782  0.7986  0.8535
   73CHL1   C19 7848   3.098   6.480   7.366  0.2635  0.4053  0.0217
   73CHL1  H19A 7849   3.003   6.513   7.415  1.7060  0.9787  2.5041
   73CHL1  H19B 7850   3.184   6.523   7.421 -1.6455  0.3393  3.1783
   73CHL1  H19C 7851   3.098   6.506   7.258  2.4280 -0.1297 -0.1212
   73CHL1    C1 7852   3.262   6.274   7.342 -0.5147 -0.0817 -0.4797
   73CHL1   H1A 7853   3.333   6.327   7.409 -0.3854 -1.9423  0.9013
   73CHL1   H1B 7854   3.272   6.168   7.374  0.3153  0.4647  1.1620
   73CHL1    C2 7855   3.298   6.273   7.192  0.2017 -0.3145  0.2382
   73CHL1   H2A 7856   3.404   6.238   7.189 -0.1264 -1.1151 -2.1687
   73CHL1   H2B 7857   3.308   6.381   7.165 -1.7894  0.1848  1.4148
   73CHL1   C20 7858   2.952   6.227   8.070 -0.6967 -0.2317  0.3118
   73CHL1   H20 7859   2.890   6.316   8.097 -1.6446 -1.3769  2.0026
   73CHL1   C21 7860   3.102   6.258   8.102  0.5832 -0.9085 -0.2719
   73CHL1  H21A 7861   3.136   6.347   8.045 -0.6507 -0.3166 -0.0978
   73CHL1  H21B 7862   3.163   6.166   8.086  2.4635  0.8862 -3.8923
   73CHL1  H21C 7863   3.106   6.291   8.208 -0.9234  2.6087 -1.2552
   73CHL1   C22 7864   2.914   6.113   8.170  0.6388  0.0106  0.9808
   73CHL1  H22A 7865   2.809   6.082   8.155  1.3973 -1.4105 -1.8115
   73CHL1  H22B 7866   2.986   6.034   8.138  0.5365 -0.0498  0.9012
   73CHL1   C23 7867   2.933   6.135   8.325 -0.1217  0.0822 -0.0229
   73CHL1  H23A 7868   3.040   6.159   8.341  0.4936 -0.9906 -2.2797
   73CHL1  H23B 7869   2.860   6.215   8.347  1.2351  1.3101  0.0598
   73CHL1   C24 7870   2.878   6.016   8.404  0.2367  0.5196 -1.0460
   73CHL1  H24A 7871   2.778   5.988   8.365 -0.4169  0.0050  0.9699
   73CHL1  H24B 7872   2.961   5.945   8.384  0.7484 -0.1595  3.0415
   73CHL1   C25 7873   2.886   6.035   8.556 -0.2624 -0.3476 -0.0366
   73CHL1   H25 7874   2.813   6.106   8.599 -0.5267  1.1005 -2.7806
   73CHL1   C26 7875   2.850   5.905   8.627 -0.2558 -0.2894  0.2074
   73CHL1  H26A 7876   2.765   5.866   8.568 -0.1673 -0.3693  0.1341
   73CHL1  H26B 7877   2.942   5.843   8.622  0.5423  0.8916 -0.1086
   73CHL1  H26C 7878   2.816   5.923   8.731 -1.9004 -1.2068 -0.1535
   73CHL1   C27 7879   3.030   6.076   8.607  0.6683  0.3176 -0.3747
   73CHL1  H27A 7880   3.076   6.159   8.550 -0.6975  0.1198 -1.7858
   73CHL1  H27B 7881   3.031   6.106   8.714 -0.5029 -2.7869  0.5563
   73CHL1  H27C 7882   3.094   5.986   8.605  1.0682  0.5249  1.7660
   74CHL1    C3 7883   1.765   4.918   6.914  0.0899 -0.6404  0.4164
   74CHL1    H3 7884   1.873   4.912   6.939  0.4655 -0.7846 -1.1267
   74CHL1    O3 7885   1.750   4.943   6.776 -0.0518 -0.0580  0.1818
   74CHL1   H3' 7886   1.661   4.920   6.751 -0.3726 -0.2356  1.4511
   74CHL1    C4 7887   1.709   4.778   6.959 -0.7341 -0.2615 -1.3516
   74CHL1   H4A 7888   1.603   4.769   6.928 -0.6836  0.0440 -1.6141
   74CHL1   H4B 7889   1.757   4.698   6.899 -0.3863 -0.0843 -1.3115
   74CHL1    C5 7890   1.713   4.749   7.108 -1.0670  0.6577  0.9044
   74CHL1    C6 7891   1.771   4.636   7.153  0.5197  0.4005 -0.2243
   74CHL1    H6 7892   1.818   4.563   7.085  1.6148  0.1380  0.7959
   74CHL1    C7 7893   1.795   4.601   7.300 -0.1787 -0.1861  0.2091
   74CHL1   H7A 7894   1.760   4.498   7.325  0.8697 -0.5388  0.2666
   74CHL1   H7B 7895   1.897   4.611   7.342 -0.4539  1.7670  0.4820
   74CHL1    C8 7896   1.713   4.698   7.390  0.4593  0.0510 -0.0004
   74CHL1    H8 7897   1.606   4.668   7.391  0.5553 -0.2748  1.2246
   74CHL1   C14 7898   1.763   4.685   7.534 -0.0448 -0.0116  0.4348
   74CHL1   H14 7899   1.858   4.742   7.530 -0.8424  1.1985 -2.9157
   74CHL1   C15 7900   1.781   4.543   7.587  0.8509  0.2754  0.4458
   74CHL1  H15A 7901   1.703   4.475   7.547  0.1836  2.2785 -1.8107
   74CHL1  H15B 7902   1.886   4.511   7.568  1.6313  3.2240 -0.4923
   74CHL1   C16 7903   1.775   4.565   7.741  0.1855  0.3788  1.1813
   74CHL1  H16A 7904   1.709   4.488   7.785  1.2526 -1.7574 -0.8139
   74CHL1  H16B 7905   1.878   4.542   7.776  1.2312  2.5865 -0.2620
   74CHL1   C17 7906   1.747   4.713   7.764  0.0788  0.0944  0.6361
   74CHL1   H17 7907   1.843   4.768   7.765  0.0117  0.2588 -0.9416
   74CHL1   C13 7908   1.671   4.754   7.632 -0.1337 -0.5696 -0.1687
   74CHL1   C18 7909   1.525   4.694   7.639 -0.1180  0.0101 -0.3608
   74CHL1  H18A 7910   1.469   4.689   7.544 -2.6590  0.8976  1.0501
   74CHL1  H18B 7911   1.518   4.593   7.684 -1.3741  0.5213  0.6161
   74CHL1  H18C 7912   1.462   4.766   7.696 -1.3483 -0.9547 -0.4902
   74CHL1   C12 7913   1.664   4.906   7.591  0.2180  0.0337  0.7647
   74CHL1  H12A 7914   1.584   4.955   7.651 -0.5906  2.2800 -2.0468
   74CHL1  H12B 7915   1.758   4.960   7.615 -0.4178  1.6888 -0.4139
   74CHL1   C11 7916   1.630   4.932   7.441  0.5250  0.1926  0.0810
   74CHL1  H11A 7917   1.523   4.903   7.433  1.6000 -3.9484 -0.4132
   74CHL1  H11B 7918   1.652   5.039   7.418  2.6119  0.3250  2.5089
   74CHL1    C9 7919   1.707   4.838   7.341 -0.1869 -0.6531  0.2741
   74CHL1    H9 7920   1.810   4.878   7.349 -1.5205  2.8007  1.2371
   74CHL1   C10 7921   1.666   4.860   7.199  0.0114  0.0057 -0.4890
   74CHL1   C19 7922   1.509   4.864   7.187 -0.1013 -0.0728 -0.6533
   74CHL1  H19A 7923   1.454   4.787   7.246 -1.5911  2.1831  0.9979
   74CHL1  H19B 7924   1.471   4.959   7.231  1.9950  0.1800  0.6977
   74CHL1  H19C 7925   1.478   4.868   7.081  0.8398 -1.0988 -0.9654
   74CHL1    C1 7926   1.720   5.000   7.153  0.5262  0.3377 -0.3124
   74CHL1   H1A 7927   1.670   5.077   7.215  0.8890  0.6031 -0.3448
   74CHL1   H1B 7928   1.829   5.008   7.176 -0.0174 -0.7698  2.9679
   74CHL1    C2 7929   1.697   5.029   7.002  0.1526 -0.0080 -0.2424
   74CHL1   H2A 7930   1.738   5.126   6.966  1.9256 -1.0878 -1.1955
   74CHL1   H2B 7931   1.589   5.023   6.978  0.1031  2.9682 -0.9492
   74CHL1   C20 7932   1.683   4.734   7.901 -0.9744 -0.0811 -0.3964
   74CHL1   H20 7933   1.577   4.700   7.909 -0.0621 -2.3486  2.9694
   74CHL1   C21 7934   1.677   4.887   7.935 -0.3151 -0.0776 -0.3538
   74CHL1  H21A 7935   1.586   4.939   7.900  0.8097  1.2931 -1.2946
   74CHL1  H21B 7936   1.762   4.946   7.895  0.5303 -1.6804 -0.9472
   74CHL1  H21C 7937   1.676   4.906   8.045 -1.0676  0.5379 -0.4633
   74CHL1   C22 7938   1.747   4.659   8.028 -0.2535 -0.2014 -0.2746
   74CHL1  H22A 7939   1.693   4.679   8.123  1.4594  0.9779  0.4821
   74CHL1  H22B 7940   1.739   4.549   8.011 -0.1058 -0.1238 -0.8304
   74CHL1   C23 7941   1.890   4.701   8.047 -0.1616  0.2637  0.3585
   74CHL1  H23A 7942   1.945   4.700   7.950  1.4687  0.2429  1.2697
   74CHL1  H23B 7943   1.899   4.803   8.090  1.2145 -1.1101  3.3980
   74CHL1   C24 7944   1.956   4.606   8.156 -1.0113  0.0231  0.9441
   74CHL1  H24A 7945   1.893   4.594   8.247  0.1730 -2.0853  1.4932
   74CHL1  H24B 7946   1.955   4.507   8.106  3.5997 -0.8811  2.4342
   74CHL1   C25 7947   2.101   4.655   8.201  0.4455 -0.5071 -0.8650
   74CHL1   H25 7948   2.085   4.747   8.261 -1.6765 -1.2650 -0.1913
   74CHL1   C26 7949   2.163   4.544   8.289 -0.1634  0.2498 -0.0742
   74CHL1  H26A 7950   2.263   4.584   8.319  0.5164 -1.4151 -0.0563
   74CHL1  H26B 7951   2.097   4.521   8.375 -1.9487  2.1015 -0.9237
   74CHL1  H26C 7952   2.183   4.450   8.233  0.7226  0.2475  0.2282
   74CHL1   C27 7953   2.196   4.696   8.084  0.3376 -0.1002  0.1503
   74CHL1  H27A 7954   2.214   4.601   8.029 -0.1630  0.8402 -1.6627
   74CHL1  H27B 7955   2.149   4.773   8.019 -0.0147 -0.0779  0.4257
   74CHL1  H27C 7956   2.291   4.727   8.132  0.3133 -0.5047  0.4619
   75CHL1    C3 7957   5.407   0.077   6.697  0.0083 -0.6943 -0.4188
   75CHL1    H3 7958   5.507   0.029   6.686 -0.1546 -1.7568  2.3118
   75CHL1    O3 7959   5.357   0.100   6.567  0.9617  0.6598 -0.5129
   75CHL1   H3' 7960   5.268   0.064   6.564  1.2205 -0.0613  0.2356
   75CHL1    C4 7961   5.313  -0.025   6.770 -0.6734  0.2248 -0.3551
   75CHL1   H4A 7962   5.209   0.010   6.753 -0.6816  0.1127 -0.5271
   75CHL1   H4B 7963   5.336  -0.123   6.725 -1.2499  1.1670 -2.7730
   75CHL1    C5 7964   5.344  -0.023   6.919  0.5049  0.1270 -0.2695
   75CHL1    C6 7965   5.387  -0.134   6.983 -0.4900  0.8188 -0.2166
   75CHL1    H6 7966   5.403  -0.222   6.919 -4.5282 -0.4044  0.3003
   75CHL1    C7 7967   5.420  -0.138   7.129  0.1562 -0.1739 -0.0867
   75CHL1   H7A 7968   5.397  -0.238   7.172  1.0256  0.4116  1.7903
   75CHL1   H7B 7969   5.528  -0.111   7.138  0.3782 -0.4515 -1.7261
   75CHL1    C8 7970   5.335  -0.029   7.206 -0.3133  0.4285 -0.4093
   75CHL1    H8 7971   5.228  -0.047   7.180 -0.1358  2.0513 -2.4092
   75CHL1   C14 7972   5.370  -0.028   7.359  0.2376 -0.2904 -0.3444
   75CHL1   H14 7973   5.476   0.005   7.359  0.3321 -0.6021 -0.8902
   75CHL1   C15 7974   5.366  -0.158   7.445 -0.0678  0.5906  0.6171
   75CHL1  H15A 7975   5.270  -0.209   7.422 -1.5285  3.0189  1.0881
   75CHL1  H15B 7976   5.449  -0.230   7.427 -0.9309 -0.8584  2.2830
   75CHL1   C16 7977   5.359  -0.112   7.591 -0.0429 -0.3758  0.8869
   75CHL1  H16A 7978   5.272  -0.152   7.647  0.8308  1.1154  3.4014
   75CHL1  H16B 7979   5.451  -0.153   7.635  0.1285  1.1921  2.0385
   75CHL1   C17 7980   5.363   0.044   7.587  0.2390  0.5036  0.8612
   75CHL1   H17 7981   5.471   0.071   7.584  0.7224 -1.5522 -1.7400
   75CHL1   C13 7982   5.305   0.079   7.449  0.6410 -0.9377  0.6912
   75CHL1   C18 7983   5.155   0.049   7.448  0.1328  0.2891  0.7386
   75CHL1  H18A 7984   5.086   0.130   7.479  0.0461  0.0403  1.1967
   75CHL1  H18B 7985   5.131   0.014   7.346  0.5515  0.7498  0.4829
   75CHL1  H18C 7986   5.133  -0.043   7.507 -0.5398 -0.3544 -0.4937
   75CHL1   C12 7987   5.332   0.215   7.379 -0.4758  0.0230 -0.0567
   75CHL1  H12A 7988   5.276   0.301   7.420  2.7159  1.3925  1.6211
   75CHL1  H12B 7989   5.441   0.236   7.389 -0.7830  1.6480 -0.0075
   75CHL1   C11 7990   5.302   0.227   7.228 -0.7489  0.8748 -0.8349
   75CHL1  H11A 7991   5.193   0.204   7.218 -0.3875 -1.7450  0.7265
   75CHL1  H11B 7992   5.339   0.322   7.185 -1.1701  1.6573  0.5058
   75CHL1    C9 7993   5.363   0.108   7.148  0.3686 -0.2093 -0.1298
   75CHL1    H9 7994   5.473   0.117   7.154  0.1900  0.0109  3.6106
   75CHL1   C10 7995   5.320   0.114   6.997  0.2017  0.3620  0.7819
   75CHL1   C19 7996   5.167   0.155   6.984 -0.5364  0.2711 -0.1091
   75CHL1  H19A 7997   5.099   0.082   7.033 -0.2758  0.5322  0.6485
   75CHL1  H19B 7998   5.150   0.260   7.016 -0.6801  0.0983  0.3839
   75CHL1  H19C 7999   5.139   0.152   6.876 -0.0485 -0.7350 -0.2130
   75CHL1    C1 8000   5.418   0.209   6.918 -0.5424 -0.0068  0.1914
   75CHL1   H1A 8001   5.405   0.314   6.950 -0.0619  0.2747 -0.5056
   75CHL1   H1B 8002   5.520   0.179   6.952  0.2680  0.2739 -1.8885
   75CHL1    C2 8003   5.405   0.215   6.766  0.3484 -0.4725 -0.3532
   75CHL1   H2A 8004   5.485   0.272   6.714  0.4216 -1.5325 -1.4433
   75CHL1   H2B 8005   5.313   0.269   6.737  0.2842 -0.6315 -0.4489
   75CHL1   C20 8006   5.305   0.113   7.710  0.4743  0.3106  0.5721
   75CHL1   H20 8007   5.194   0.108   7.715  0.2454  2.2830 -1.6821
   75CHL1   C21 8008   5.328   0.267   7.694  0.5919 -0.3682 -0.2308
   75CHL1  H21A 8009   5.273   0.317   7.611  0.0059 -0.2189  0.2417
   75CHL1  H21B 8010   5.437   0.283   7.678  0.7867  0.1748  1.4995
   75CHL1  H21C 8011   5.298   0.314   7.790  1.3706 -1.2869  0.4610
   75CHL1   C22 8012   5.362   0.058   7.848  0.5076  0.5315  0.6480
   75CHL1  H22A 8013   5.334  -0.047   7.870  1.1561  0.2901  0.3308
   75CHL1  H22B 8014   5.472   0.061   7.835  0.6222  1.1946  1.6822
   75CHL1   C23 8015   5.312   0.136   7.971  0.2754 -0.0469 -0.2273
   75CHL1  H23A 8016   5.350   0.240   7.963  1.9910 -0.3880  2.7208
   75CHL1  H23B 8017   5.202   0.144   7.966  0.2848  1.7340  1.8460
   75CHL1   C24 8018   5.373   0.076   8.109 -0.2153 -0.3252  0.2034
   75CHL1  H24A 8019   5.316  -0.019   8.116  0.2554 -0.6001  0.2933
   75CHL1  H24B 8020   5.480   0.060   8.086 -0.4122 -0.0636 -0.9726
   75CHL1   C25 8021   5.343   0.171   8.223 -0.1328 -0.3578 -0.7478
   75CHL1   H25 8022   5.351   0.274   8.182 -3.6440  0.5735  0.7035
   75CHL1   C26 8023   5.203   0.150   8.281  0.5143  0.0886  0.3172
   75CHL1  H26A 8024   5.186   0.198   8.379 -1.2722 -0.5503  0.3357
   75CHL1  H26B 8025   5.127   0.195   8.214  0.2704  1.6778  1.6232
   75CHL1  H26C 8026   5.183   0.040   8.285  1.7570 -0.2244 -1.2501
   75CHL1   C27 8027   5.456   0.171   8.321 -0.1529  0.1181  0.1441
   75CHL1  H27A 8028   5.546   0.197   8.261  0.6597 -0.3787  1.1243
   75CHL1  H27B 8029   5.439   0.254   8.393 -2.3847  0.1356 -0.3831
   75CHL1  H27C 8030   5.472   0.077   8.379 -1.2139 -0.1939 -0.0514
   76CHL1    C3 8031   2.195   1.913   7.220 -0.1848  0.0230  0.0217
   76CHL1    H3 8032   2.189   1.803   7.237 -1.2295  0.1161  0.3102
   76CHL1    O3 8033   2.126   1.966   7.106  0.1585 -0.2646  0.3825
   76CHL1   H3' 8034   2.185   1.956   7.032 -1.0651  0.4210 -0.7118
   76CHL1    C4 8035   2.140   1.983   7.339  0.0100  0.0317 -0.5797
   76CHL1   H4A 8036   2.144   2.093   7.329 -1.0508  0.1128 -0.1328
   76CHL1   H4B 8037   2.034   1.952   7.351  0.3100 -0.7686  0.1024
   76CHL1    C5 8038   2.226   1.950   7.463  0.1240  0.2516 -0.2627
   76CHL1    C6 8039   2.177   1.885   7.570 -0.0676 -0.2805 -0.6883
   76CHL1    H6 8040   2.072   1.854   7.577  0.1699 -0.6213  1.8454
   76CHL1    C7 8041   2.249   1.860   7.692 -0.1223  0.5200  0.1889
   76CHL1   H7A 8042   2.176   1.885   7.772  2.4860  3.4421  1.7732
   76CHL1   H7B 8043   2.280   1.753   7.693 -2.0031 -0.0891 -2.8467
   76CHL1    C8 8044   2.376   1.944   7.708  0.1103  0.5865 -0.4019
   76CHL1    H8 8045   2.351   2.049   7.735  0.3908  0.0792  2.0255
   76CHL1   C14 8046   2.454   1.893   7.827 -0.3582 -0.4141  0.0287
   76CHL1   H14 8047   2.494   1.795   7.793 -2.7707 -0.9210 -1.4600
   76CHL1   C15 8048   2.382   1.866   7.962 -0.1880 -0.0948  0.2966
   76CHL1  H15A 8049   2.305   1.943   7.983 -0.0506  0.1992 -0.2817
   76CHL1  H15B 8050   2.337   1.764   7.964 -1.1612  0.3445  1.2139
   76CHL1   C16 8051   2.495   1.878   8.063  0.3009 -0.3157  0.1813
   76CHL1  H16A 8052   2.469   1.956   8.137 -0.2852 -0.9400  0.6299
   76CHL1  H16B 8053   2.505   1.780   8.114 -0.1253 -0.6438 -0.3544
   76CHL1   C17 8054   2.627   1.912   7.983 -0.4823  0.2325  0.1061
   76CHL1   H17 8055   2.672   1.812   7.965  0.8192  1.1927 -2.1706
   76CHL1   C13 8056   2.570   1.977   7.853  0.9372  0.0703  0.6030
   76CHL1   C18 8057   2.536   2.127   7.891  0.5762  0.2412 -0.3221
   76CHL1  H18A 8058   2.632   2.179   7.912  2.3444 -2.5742 -1.0436
   76CHL1  H18B 8059   2.494   2.175   7.799  1.8462  2.1527  0.0599
   76CHL1  H18C 8060   2.458   2.128   7.969  1.9052 -0.0199  1.0217
   76CHL1   C12 8061   2.669   1.968   7.726  0.9094 -0.3753 -0.4202
   76CHL1  H12A 8062   2.764   2.025   7.728 -0.0890  1.3602 -1.5374
   76CHL1  H12B 8063   2.689   1.859   7.719 -3.7754 -1.4677  1.3255
   76CHL1   C11 8064   2.596   2.012   7.601 -0.0443 -0.4221 -0.4747
   76CHL1  H11A 8065   2.592   2.123   7.608 -2.2335 -0.6225  1.8970
   76CHL1  H11B 8066   2.663   2.005   7.513  0.7790 -0.2464  0.1202
   76CHL1    C9 8067   2.457   1.945   7.582  0.1165  0.1215 -0.1989
   76CHL1    H9 8068   2.474   1.837   7.563  0.5575  0.2400 -0.4869
   76CHL1   C10 8069   2.378   2.000   7.461 -0.0546 -0.2098  1.1356
   76CHL1   C19 8070   2.385   2.158   7.451 -0.1117  0.0742 -0.8384
   76CHL1  H19A 8071   2.356   2.209   7.546 -0.1540 -0.5335 -0.5234
   76CHL1  H19B 8072   2.487   2.196   7.428  0.0773 -1.1550 -2.0671
   76CHL1  H19C 8073   2.324   2.195   7.366 -0.8436  0.3109 -0.2138
   76CHL1    C1 8074   2.435   1.936   7.323  0.6122 -0.2524  0.2806
   76CHL1   H1A 8075   2.543   1.953   7.304  0.4731 -0.2110 -0.4693
   76CHL1   H1B 8076   2.431   1.825   7.337 -2.0526 -0.3060 -0.6720
   76CHL1    C2 8077   2.339   1.961   7.200 -0.0899 -1.3762  0.4277
   76CHL1   H2A 8078   2.391   1.927   7.107 -0.4870 -0.7833 -0.0196
   76CHL1   H2B 8079   2.332   2.072   7.196  0.7858 -1.3588 -0.9553
   76CHL1   C20 8080   2.727   1.999   8.077 -0.2698 -0.0490  0.7584
   76CHL1   H20 8081   2.658   2.076   8.118  0.2433  0.0647  1.4153
   76CHL1   C21 8082   2.855   2.063   8.018  0.0723 -0.0999  0.1008
   76CHL1  H21A 8083   2.829   2.118   7.926  0.7376 -0.5372 -0.3589
   76CHL1  H21B 8084   2.930   1.983   7.997 -1.7046 -2.0023  0.8610
   76CHL1  H21C 8085   2.885   2.143   8.089 -0.6531  0.6456 -0.4328
   76CHL1   C22 8086   2.768   1.912   8.197 -0.1469 -0.3307 -0.0795
   76CHL1  H22A 8087   2.678   1.859   8.233 -2.4211  2.5088 -1.3686
   76CHL1  H22B 8088   2.835   1.830   8.164 -1.3805 -2.2378  2.0231
   76CHL1   C23 8089   2.837   1.980   8.312  0.2825  0.3235  0.5379
   76CHL1  H23A 8090   2.916   2.045   8.268 -0.3777  1.8266  1.5150
   76CHL1  H23B 8091   2.760   2.044   8.361 -0.0160  0.0347  0.4510
   76CHL1   C24 8092   2.910   1.884   8.414 -0.1042 -0.4796 -0.3598
   76CHL1  H24A 8093   2.846   1.808   8.464  0.9283 -0.7873  0.5217
   76CHL1  H24B 8094   2.986   1.824   8.360  2.7560 -0.2864  3.2060
   76CHL1   C25 8095   2.987   1.956   8.527 -0.2852  0.1899 -0.0075
   76CHL1   H25 8096   2.918   2.037   8.561  1.5732  1.4570  0.8075
   76CHL1   C26 8097   2.998   1.878   8.658  0.4526 -0.4228 -0.1538
   76CHL1  H26A 8098   2.906   1.886   8.719  0.5578  2.2830 -0.3152
   76CHL1  H26B 8099   3.028   1.773   8.637 -1.0819 -0.6732 -1.1394
   76CHL1  H26C 8100   3.067   1.930   8.728 -0.3406  1.6636 -0.9127
   76CHL1   C27 8101   3.123   2.002   8.469 -0.2183  0.2055  0.2128
   76CHL1  H27A 8102   3.174   2.073   8.538 -0.4844 -0.8061  1.4610
   76CHL1  H27B 8103   3.189   1.918   8.439  0.0206  1.2971 -2.5075
   76CHL1  H27C 8104   3.090   2.053   8.376 -0.2272 -0.8813 -0.3924
   77CHL1    C3 8105   2.634   0.181   6.959  0.0594  0.3077 -0.3251
   77CHL1    H3 8106   2.713   0.243   7.007 -0.3255  0.4478  0.1247
   77CHL1    O3 8107   2.628   0.189   6.814  0.3373  0.2451 -0.4667
   77CHL1   H3' 8108   2.563   0.126   6.781  1.4715 -0.8234 -0.6824
   77CHL1    C4 8109   2.671   0.040   7.003  0.0415  0.3314  0.8784
   77CHL1   H4A 8110   2.607  -0.039   6.957  2.4224 -0.8108 -0.6305
   77CHL1   H4B 8111   2.772   0.026   6.958 -0.0754  3.5522 -0.4682
   77CHL1    C5 8112   2.673   0.019   7.151 -0.5281 -0.3078 -0.1705
   77CHL1    C6 8113   2.782  -0.032   7.223  0.4002  0.1023  1.1681
   77CHL1    H6 8114   2.877  -0.048   7.169 -0.3925  1.4132 -0.6810
   77CHL1    C7 8115   2.781  -0.045   7.372 -0.1978  0.0116  0.7972
   77CHL1   H7A 8116   2.853  -0.122   7.407  0.2821  0.6636  1.2439
   77CHL1   H7B 8117   2.807   0.053   7.417 -1.6828  1.1158 -0.6755
   77CHL1    C8 8118   2.629  -0.065   7.420  0.0893 -1.2749  0.4809
   77CHL1    H8 8119   2.593  -0.163   7.384 -1.0263 -0.7754  0.2087
   77CHL1   C14 8120   2.636  -0.065   7.575  0.6975 -0.2463  0.2265
   77CHL1   H14 8121   2.670   0.040   7.589  0.4836  0.0590 -1.5020
   77CHL1   C15 8122   2.735  -0.170   7.642 -0.7722  0.3624  0.3088
   77CHL1  H15A 8123   2.700  -0.264   7.595  1.6046 -0.9733  1.1576
   77CHL1  H15B 8124   2.845  -0.157   7.636 -0.7219 -0.0932  0.2372
   77CHL1   C16 8125   2.671  -0.173   7.789  0.2845  0.0680 -0.5691
   77CHL1  H16A 8126   2.635  -0.277   7.808 -1.0600  0.5951 -0.2186
   77CHL1  H16B 8127   2.750  -0.150   7.863  0.4105  1.3705 -1.0969
   77CHL1   C17 8128   2.550  -0.080   7.796 -0.2603  0.1399 -0.2019
   77CHL1   H17 8129   2.586   0.020   7.827  1.5731 -0.4960 -0.2088
   77CHL1   C13 8130   2.500  -0.069   7.646  0.2328 -0.1335  0.5657
   77CHL1   C18 8131   2.422  -0.203   7.613 -0.2480 -0.5284 -0.8068
   77CHL1  H18A 8132   2.409  -0.225   7.505  1.6415 -2.4811 -0.6833
   77CHL1  H18B 8133   2.469  -0.293   7.660  0.3204  1.0575  1.7371
   77CHL1  H18C 8134   2.319  -0.198   7.655 -0.5990  0.1177 -1.7475
   77CHL1   C12 8135   2.422   0.055   7.592  0.2386  0.1812 -0.4317
   77CHL1  H12A 8136   2.319   0.053   7.634  0.8125  1.2441  1.0469
   77CHL1  H12B 8137   2.470   0.150   7.625 -2.5332  1.8962 -1.1331
   77CHL1   C11 8138   2.412   0.053   7.444  0.3793  0.6089 -0.1687
   77CHL1  H11A 8139   2.348  -0.034   7.417  0.9773 -0.5464  2.0013
   77CHL1  H11B 8140   2.358   0.141   7.403  1.2139  2.1675  1.9809
   77CHL1    C9 8141   2.542   0.048   7.365  0.2741  0.5472  0.2016
   77CHL1    H9 8142   2.592   0.138   7.404  0.6495  0.2572  0.3906
   77CHL1   C10 8143   2.534   0.055   7.215  0.1573  0.7275 -0.6221
   77CHL1   C19 8144   2.441  -0.055   7.164 -0.0392  0.3635 -0.1268
   77CHL1  H19A 8145   2.474  -0.160   7.180 -0.2502 -0.0476 -2.1675
   77CHL1  H19B 8146   2.340  -0.032   7.203 -0.3346 -1.1808  0.0517
   77CHL1  H19C 8147   2.440  -0.052   7.052  2.1486  0.5717 -0.1505
   77CHL1    C1 8148   2.496   0.198   7.176  0.1343 -0.1441  0.3879
   77CHL1   H1A 8149   2.390   0.206   7.208  0.4290 -1.4196  1.7065
   77CHL1   H1B 8150   2.549   0.282   7.224  0.0829  1.4237 -2.1711
   77CHL1    C2 8151   2.502   0.220   7.023  0.3498  0.3075 -0.3954
   77CHL1   H2A 8152   2.463   0.321   7.000 -1.6138  0.1108  1.8013
   77CHL1   H2B 8153   2.434   0.144   6.977  0.4979 -0.6118  0.8839
   77CHL1   C20 8154   2.442  -0.111   7.899  0.3777  0.7906  0.0858
   77CHL1   H20 8155   2.386  -0.205   7.875 -0.3129  0.9263  1.1331
   77CHL1   C21 8156   2.349   0.004   7.916  0.4937  0.2572  0.8978
   77CHL1  H21A 8157   2.288   0.028   7.825 -1.1262  1.2809  2.2247
   77CHL1  H21B 8158   2.394   0.093   7.964  1.0785  0.5007 -0.0762
   77CHL1  H21C 8159   2.272  -0.018   7.992  1.7347  0.5159  2.2419
   77CHL1   C22 8160   2.515  -0.156   8.035 -0.2400 -0.5788 -0.7782
   77CHL1  H22A 8161   2.531  -0.265   8.025 -1.9850 -1.1128  1.7825
   77CHL1  H22B 8162   2.613  -0.104   8.047 -1.8175  1.9606  1.7072
   77CHL1   C23 8163   2.437  -0.122   8.163  0.7900  0.6059  0.1387
   77CHL1  H23A 8164   2.448  -0.012   8.172  0.6280  0.9444 -3.0600
   77CHL1  H23B 8165   2.332  -0.157   8.155  0.8849  0.6233 -1.3964
   77CHL1   C24 8166   2.492  -0.202   8.281  0.6386  0.2702 -0.0869
   77CHL1  H24A 8167   2.481  -0.309   8.256 -0.9745  0.1308  1.0876
   77CHL1  H24B 8168   2.595  -0.167   8.302 -0.0082  2.3687 -0.2679
   77CHL1   C25 8169   2.414  -0.182   8.407 -0.2521 -0.4284 -0.4398
   77CHL1   H25 8170   2.308  -0.202   8.380 -1.1818  2.5822  0.7868
   77CHL1   C26 8171   2.463  -0.280   8.518  0.1254  1.0985  0.0087
   77CHL1  H26A 8172   2.561  -0.256   8.566 -0.0501  3.3434 -0.6975
   77CHL1  H26B 8173   2.383  -0.275   8.595 -0.0127  0.9302 -0.1251
   77CHL1  H26C 8174   2.464  -0.377   8.463 -1.9393 -0.2581  2.2746
   77CHL1   C27 8175   2.419  -0.030   8.453  0.8387  0.3680 -0.6231
   77CHL1  H27A 8176   2.355  -0.022   8.544 -1.6637 -1.7585 -2.1005
   77CHL1  H27B 8177   2.523   0.001   8.472  0.2799  0.2370  2.9175
   77CHL1  H27C 8178   2.371   0.038   8.379 -1.3101  0.2611  0.6242
   78CHL1    C3 8179   4.935   1.522   6.605  0.0488  0.4574 -0.3822
   78CHL1    H3 8180   4.920   1.413   6.591  2.0175 -0.1783  2.1303
   78CHL1    O3 8181   4.901   1.583   6.480  0.0486 -0.4964  0.7437
   78CHL1   H3' 8182   4.926   1.519   6.413 -1.3528  0.4453 -0.7157
   78CHL1    C4 8183   4.839   1.584   6.708 -0.0730  0.4696 -0.0471
   78CHL1   H4A 8184   4.862   1.692   6.721  1.6083  0.0531  0.5159
   78CHL1   H4B 8185   4.731   1.573   6.684 -0.2628 -0.1328  1.0408
   78CHL1    C5 8186   4.868   1.524   6.844 -0.1057 -0.1030  0.4052
   78CHL1    C6 8187   4.771   1.452   6.900 -0.0414 -0.2643 -0.1549
   78CHL1    H6 8188   4.674   1.439   6.849 -2.0720  0.0801  3.3633
   78CHL1    C7 8189   4.782   1.402   7.045  0.0787 -0.0014  1.3359
   78CHL1   H7A 8190   4.688   1.435   7.095 -0.7612 -0.2678 -0.0308
   78CHL1   H7B 8191   4.781   1.291   7.045  0.9601 -0.0121  0.9607
   78CHL1    C8 8192   4.903   1.464   7.118 -0.6195 -0.1973 -0.5345
   78CHL1    H8 8193   4.874   1.563   7.158  1.2015  0.1281  0.0165
   78CHL1   C14 8194   4.939   1.383   7.239  0.7451 -0.1445  0.0565
   78CHL1   H14 8195   4.974   1.287   7.196  0.7282 -0.0486 -0.1734
   78CHL1   C15 8196   4.830   1.370   7.342  0.1019 -0.4437 -0.0160
   78CHL1  H15A 8197   4.779   1.469   7.353 -1.9604 -1.4758 -0.0230
   78CHL1  H15B 8198   4.745   1.300   7.326 -0.4859 -0.4583  2.7452
   78CHL1   C16 8199   4.909   1.305   7.467  0.1466  0.3005  0.5068
   78CHL1  H16A 8200   4.882   1.364   7.557  2.4058  0.1467  1.3184
   78CHL1  H16B 8201   4.884   1.198   7.484  0.9996  0.5123  3.2607
   78CHL1   C17 8202   5.061   1.321   7.434  0.4323 -0.2586 -0.0538
   78CHL1   H17 8203   5.081   1.226   7.380 -0.3488  0.0242 -0.8657
   78CHL1   C13 8204   5.065   1.427   7.325  0.2722  0.5086  0.5040
   78CHL1   C18 8205   5.054   1.566   7.389 -0.6468 -0.4508  0.3721
   78CHL1  H18A 8206   5.050   1.645   7.311 -1.1820  0.2700  1.1196
   78CHL1  H18B 8207   4.957   1.566   7.444 -0.8263  2.1395  0.1034
   78CHL1  H18C 8208   5.143   1.585   7.453  0.4933 -1.2088 -0.9572
   78CHL1   C12 8209   5.182   1.416   7.226  0.6797  0.5365 -0.1835
   78CHL1  H12A 8210   5.267   1.463   7.279  1.6348 -1.7724  0.4230
   78CHL1  H12B 8211   5.199   1.308   7.203  2.7934  0.2983  2.3226
   78CHL1   C11 8212   5.158   1.497   7.098 -0.4772 -0.5760  0.1623
   78CHL1  H11A 8213   5.160   1.606   7.122 -0.5101 -0.1458 -1.7056
   78CHL1  H11B 8214   5.246   1.483   7.032 -0.7590 -0.5661 -0.2124
   78CHL1    C9 8215   5.026   1.477   7.025  0.8169  0.2062  1.0664
   78CHL1    H9 8216   5.027   1.371   6.990 -1.0369  0.5708 -0.1485
   78CHL1   C10 8217   5.010   1.559   6.895  0.6558  0.4077 -0.6279
   78CHL1   C19 8218   5.024   1.707   6.928  0.4762  0.3077  0.1454
   78CHL1  H19A 8219   5.007   1.776   6.843 -1.8221  1.3691  1.4107
   78CHL1  H19B 8220   4.968   1.740   7.018  2.5370 -0.5721  1.8225
   78CHL1  H19C 8221   5.133   1.731   6.933  0.8542 -1.4458  0.6627
   78CHL1    C1 8222   5.106   1.514   6.784  0.3412  0.1839 -0.4297
   78CHL1   H1A 8223   5.210   1.542   6.810  0.6832  0.3249 -1.9056
   78CHL1   H1B 8224   5.107   1.403   6.777  3.3560  0.1879 -0.5193
   78CHL1    C2 8225   5.083   1.555   6.638  0.1145 -0.0060 -0.0409
   78CHL1   H2A 8226   5.164   1.518   6.571  1.4422  2.2107  0.2648
   78CHL1   H2B 8227   5.095   1.666   6.636 -0.1464  0.0115 -0.8395
   78CHL1   C20 8228   5.143   1.339   7.563 -0.4720  0.7386  0.0635
   78CHL1   H20 8229   5.114   1.436   7.607 -0.1999  1.6672 -1.7775
   78CHL1   C21 8230   5.295   1.349   7.528  0.4752 -0.5353 -0.0795
   78CHL1  H21A 8231   5.325   1.254   7.479 -0.2865 -1.0211  0.3827
   78CHL1  H21B 8232   5.359   1.359   7.618 -0.4727  2.4955  0.3044
   78CHL1  H21C 8233   5.324   1.434   7.462 -1.5388  0.2902  0.0675
   78CHL1   C22 8234   5.115   1.236   7.668  0.6020  0.7115  0.4358
   78CHL1  H22A 8235   5.008   1.205   7.664  0.3619  1.6241 -0.1402
   78CHL1  H22B 8236   5.166   1.137   7.656  1.4945  1.0189  1.5806
   78CHL1   C23 8237   5.152   1.287   7.811  0.0794  0.9730  0.3634
   78CHL1  H23A 8238   5.249   1.340   7.801  1.5477 -1.7462 -0.2337
   78CHL1  H23B 8239   5.082   1.371   7.832  2.2358  2.7019  0.8068
   78CHL1   C24 8240   5.131   1.186   7.928 -0.0508 -0.1284 -0.2302
   78CHL1  H24A 8241   5.025   1.154   7.913  0.8779 -3.4671 -0.0238
   78CHL1  H24B 8242   5.181   1.089   7.911 -2.6501 -0.9450 -3.9189
   78CHL1   C25 8243   5.151   1.242   8.070  0.4468 -0.3743  0.7824
   78CHL1   H25 8244   5.259   1.233   8.094  0.7036 -1.4388 -0.7054
   78CHL1   C26 8245   5.112   1.386   8.103  0.2638 -0.1428  0.2273
   78CHL1  H26A 8246   5.129   1.398   8.212 -1.5898  0.2767  0.4973
   78CHL1  H26B 8247   5.180   1.458   8.053 -1.5910  0.6957 -1.1505
   78CHL1  H26C 8248   5.008   1.422   8.087 -0.9492 -2.3629  2.5787
   78CHL1   C27 8249   5.072   1.140   8.164 -0.0602 -0.1480 -0.4829
   78CHL1  H27A 8250   4.962   1.151   8.154 -0.3882 -1.3679  1.5935
   78CHL1  H27B 8251   5.113   1.041   8.137 -1.2830 -0.6693 -0.4190
   78CHL1  H27C 8252   5.104   1.166   8.268 -3.8750 -0.0499  0.7139
   79CHL1    C3 8253   3.388   1.452   7.356 -0.0931 -0.2993 -0.2456
   79CHL1    H3 8254   3.482   1.482   7.407 -1.9524  3.5367  1.1220
   79CHL1    O3 8255   3.384   1.489   7.224 -0.6168 -0.0076  0.5897
   79CHL1   H3' 8256   3.323   1.423   7.189 -0.8735 -0.4127  1.7909
   79CHL1    C4 8257   3.380   1.303   7.366  0.1392 -0.0192 -0.1385
   79CHL1   H4A 8258   3.289   1.261   7.318  0.9115 -0.9057 -0.8481
   79CHL1   H4B 8259   3.463   1.262   7.306 -0.1001 -1.2446  0.3543
   79CHL1    C5 8260   3.376   1.256   7.509 -0.4174  0.3766  0.0523
   79CHL1    C6 8261   3.466   1.168   7.548 -0.1450 -0.7301  0.0689
   79CHL1    H6 8262   3.543   1.132   7.479  1.0480  2.2952 -0.2777
   79CHL1    C7 8263   3.470   1.114   7.691 -0.6284  0.3605  0.2252
   79CHL1   H7A 8264   3.484   1.005   7.678 -0.4120  0.2940  1.0006
   79CHL1   H7B 8265   3.543   1.162   7.759 -0.1985  1.2443 -0.8557
   79CHL1    C8 8266   3.336   1.137   7.762  0.7164  0.1616 -0.0939
   79CHL1    H8 8267   3.262   1.064   7.723 -3.6578  3.2748  2.0265
   79CHL1   C14 8268   3.342   1.109   7.915  0.3434  0.3916 -0.1110
   79CHL1   H14 8269   3.406   1.186   7.965  1.7315 -1.8478  1.6581
   79CHL1   C15 8270   3.393   0.972   7.961 -0.3778  0.9019  0.2874
   79CHL1  H15A 8271   3.348   0.891   7.899  0.5840  0.5246  0.0819
   79CHL1  H15B 8272   3.503   0.966   7.953 -0.4074 -0.7781  0.8123
   79CHL1   C16 8273   3.339   0.959   8.106  0.2027  0.2981  1.3286
   79CHL1  H16A 8274   3.301   0.856   8.119  0.6386  0.5287  4.9470
   79CHL1  H16B 8275   3.425   0.972   8.174  1.8036 -1.7598 -0.2301
   79CHL1   C17 8276   3.228   1.065   8.126 -0.2922  0.0679 -0.0169
   79CHL1   H17 8277   3.265   1.154   8.181 -0.8896  0.6176 -0.4953
   79CHL1   C13 8278   3.205   1.129   7.986  0.1328 -0.0871 -0.6704
   79CHL1   C18 8279   3.095   1.046   7.909 -0.1824  0.2688  0.2848
   79CHL1  H18A 8280   3.132   0.941   7.910  0.2422  0.4294  2.0789
   79CHL1  H18B 8281   2.997   1.040   7.961 -1.8629 -0.7524 -2.8440
   79CHL1  H18C 8282   3.073   1.074   7.804 -2.2259 -2.1126  0.0320
   79CHL1   C12 8283   3.179   1.284   7.981  0.5923  0.4697 -0.0319
   79CHL1  H12A 8284   3.085   1.322   8.025 -0.1388 -0.4771 -0.7559
   79CHL1  H12B 8285   3.273   1.329   8.020  1.6046 -0.7938 -0.9572
   79CHL1   C11 8286   3.175   1.336   7.842  0.2756 -0.3835  0.4596
   79CHL1  H11A 8287   3.077   1.298   7.805 -0.2986  2.1504 -0.7861
   79CHL1  H11B 8288   3.181   1.447   7.840  1.8636 -0.4710 -0.5192
   79CHL1    C9 8289   3.295   1.285   7.745  0.0657 -0.3802  0.4565
   79CHL1    H9 8290   3.381   1.349   7.773 -0.0646  1.4464 -3.0189
   79CHL1   C10 8291   3.266   1.312   7.594 -0.6639  0.5797  0.3057
   79CHL1   C19 8292   3.132   1.251   7.554  0.5250  0.2585  0.0070
   79CHL1  H19A 8293   3.040   1.303   7.589 -0.2190 -0.4212 -0.9046
   79CHL1  H19B 8294   3.127   1.247   7.443 -2.0296 -2.0298  0.1595
   79CHL1  H19C 8295   3.136   1.143   7.579 -0.2432  0.1935 -0.1290
   79CHL1    C1 8296   3.269   1.471   7.583  0.1266  0.2711 -0.4746
   79CHL1   H1A 8297   3.170   1.495   7.627 -0.4506 -4.7866  1.2828
   79CHL1   H1B 8298   3.348   1.517   7.645  0.2591 -2.0742  1.1411
   79CHL1    C2 8299   3.276   1.522   7.434 -0.5143  0.3709  1.2103
   79CHL1   H2A 8300   3.288   1.633   7.431 -0.1029  0.3014 -0.4931
   79CHL1   H2B 8301   3.177   1.507   7.386  0.0326 -0.6930  0.3917
   79CHL1   C20 8302   3.108   1.010   8.205 -0.4050 -0.3705  0.3623
   79CHL1   H20 8303   3.070   0.915   8.161  1.2293 -0.3491 -1.1379
   79CHL1   C21 8304   2.990   1.118   8.210  0.2857 -0.6890  0.4001
   79CHL1  H21A 8305   2.923   1.112   8.121 -2.4461 -1.2619  2.4275
   79CHL1  H21B 8306   3.033   1.220   8.209  2.0549 -1.3980 -1.5867
   79CHL1  H21C 8307   2.925   1.104   8.298 -0.3793  0.0415  0.0238
   79CHL1   C22 8308   3.146   0.977   8.350 -0.0832  0.2400  0.0180
   79CHL1  H22A 8309   3.237   0.915   8.335  0.0204  0.6168 -0.9131
   79CHL1  H22B 8310   3.162   1.066   8.416 -0.1980  1.1726 -1.2007
   79CHL1   C23 8311   3.046   0.883   8.423 -0.4057  0.7675 -0.3345
   79CHL1  H23A 8312   2.940   0.914   8.415 -0.4128 -0.1070 -4.5614
   79CHL1  H23B 8313   3.038   0.790   8.363 -1.3542  0.5182  0.1639
   79CHL1   C24 8314   3.090   0.847   8.567  0.4735 -0.1376  0.3203
   79CHL1  H24A 8315   3.182   0.784   8.568  0.3000 -0.3838  2.1961
   79CHL1  H24B 8316   3.120   0.939   8.621  2.0044 -0.2585 -0.2832
   79CHL1   C25 8317   2.986   0.774   8.656 -0.6118  0.1719  0.4358
   79CHL1   H25 8318   2.978   0.676   8.605  0.5501 -0.7809  2.0555
   79CHL1   C26 8319   3.053   0.756   8.794 -0.3220 -0.4428  0.5268
   79CHL1  H26A 8320   3.059   0.854   8.848  1.2262  0.6641 -1.5936
   79CHL1  H26B 8321   2.984   0.690   8.851  1.4064 -3.0628 -0.3259
   79CHL1  H26C 8322   3.150   0.707   8.773 -0.3317  1.3338 -4.1271
   79CHL1   C27 8323   2.852   0.839   8.664 -0.1051 -0.5410  0.3773
   79CHL1  H27A 8324   2.781   0.776   8.722 -1.2309  0.5213  0.1958
   79CHL1  H27B 8325   2.859   0.935   8.719  1.9859 -1.3311  1.5157
   79CHL1  H27C 8326   2.796   0.849   8.568 -2.4354 -3.6843  1.3432
   80CHL1    C3 8327   2.072   5.212   6.925  0.3381  0.0356 -0.4223
   80CHL1    H3 8328   2.008   5.121   6.919  1.4657 -1.1176  3.6731
   80CHL1    O3 8329   2.117   5.242   6.794 -0.1824  0.0023 -0.4645
   80CHL1   H3' 8330   2.197   5.295   6.803 -1.0695  1.5072 -1.2318
   80CHL1    C4 8331   2.001   5.330   6.997  0.3314 -0.9762  0.5663
   80CHL1   H4A 8332   2.063   5.422   6.989 -0.8281 -0.3629 -1.9092
   80CHL1   H4B 8333   1.919   5.349   6.924  1.2645 -1.3242 -0.5802
   80CHL1    C5 8334   1.969   5.317   7.142  0.2739 -0.0285  0.4620
   80CHL1    C6 8335   1.840   5.343   7.190  0.0339  0.9931  0.1220
   80CHL1    H6 8336   1.763   5.374   7.118 -0.3274 -0.7485 -0.2734
   80CHL1    C7 8337   1.796   5.328   7.331 -0.7267  0.4496  0.3862
   80CHL1   H7A 8338   1.741   5.419   7.364 -0.0635  0.4112  1.6588
   80CHL1   H7B 8339   1.739   5.233   7.337  1.3277 -0.8553 -0.4875
   80CHL1    C8 8340   1.932   5.319   7.419 -0.5198  0.2154  0.8463
   80CHL1    H8 8341   1.976   5.421   7.415  0.7998 -0.3570  0.1531
   80CHL1   C14 8342   1.885   5.281   7.562 -0.0320 -0.4500 -0.1851
   80CHL1   H14 8343   1.832   5.185   7.544  0.5265 -0.5456 -1.3912
   80CHL1   C15 8344   1.797   5.373   7.634 -0.2990  0.2732  0.1564
   80CHL1  H15A 8345   1.825   5.480   7.628  1.1817 -0.0026  1.4894
   80CHL1  H15B 8346   1.697   5.350   7.593  0.0675 -1.5414  0.2461
   80CHL1   C16 8347   1.810   5.335   7.783 -0.0207  0.1298  0.2248
   80CHL1  H16A 8348   1.850   5.424   7.837  0.7773  1.6924 -2.8540
   80CHL1  H16B 8349   1.722   5.285   7.829  0.7292 -1.7989 -0.4145
   80CHL1   C17 8350   1.918   5.221   7.795 -0.1337  0.1715  0.7106
   80CHL1   H17 8351   1.856   5.131   7.773 -0.5889  0.5146  0.6046
   80CHL1   C13 8352   1.996   5.247   7.666 -0.1595 -0.1586 -0.0896
   80CHL1   C18 8353   2.087   5.371   7.697  0.0229 -0.0439 -0.3746
   80CHL1  H18A 8354   2.123   5.399   7.595 -2.8056 -0.9543 -1.6722
   80CHL1  H18B 8355   2.035   5.461   7.735 -0.9925 -1.2158  1.0583
   80CHL1  H18C 8356   2.179   5.347   7.755  0.5210 -3.0363 -2.2587
   80CHL1   C12 8357   2.085   5.130   7.605  0.6058  0.2189  0.3400
   80CHL1  H12A 8358   2.171   5.119   7.674 -1.2595 -0.9974  2.5219
   80CHL1  H12B 8359   2.024   5.039   7.588 -0.3428  1.1081 -1.1450
   80CHL1   C11 8360   2.140   5.181   7.470  1.0957 -0.6231  0.0339
   80CHL1  H11A 8361   2.211   5.265   7.483 -0.6262  1.0125 -0.7423
   80CHL1  H11B 8362   2.203   5.097   7.433  1.9995  1.3374 -3.0680
   80CHL1    C9 8363   2.029   5.218   7.364 -0.1911  0.6894  0.0442
   80CHL1    H9 8364   1.970   5.125   7.347 -0.3174  0.6375  0.7439
   80CHL1   C10 8365   2.087   5.264   7.224  0.5891  0.6492 -0.3192
   80CHL1   C19 8366   2.199   5.368   7.250 -0.8241 -0.1905 -0.2558
   80CHL1  H19A 8367   2.286   5.346   7.317 -2.3036  0.4438  1.9436
   80CHL1  H19B 8368   2.242   5.386   7.150 -2.4003  0.5089 -0.8273
   80CHL1  H19C 8369   2.159   5.465   7.288  0.3873 -0.1697  0.9984
   80CHL1    C1 8370   2.159   5.146   7.151 -0.4908  0.3838 -0.3255
   80CHL1   H1A 8371   2.250   5.118   7.209 -0.6992 -0.6812 -0.5053
   80CHL1   H1B 8372   2.095   5.055   7.148  0.0499 -0.0129 -0.0316
   80CHL1    C2 8373   2.195   5.169   7.006 -0.3756  0.4260  0.2080
   80CHL1   H2A 8374   2.226   5.068   6.973 -1.1006  0.4576 -0.6003
   80CHL1   H2B 8375   2.286   5.230   6.986 -0.6359  0.2547 -1.6258
   80CHL1   C20 8376   1.988   5.220   7.925 -0.3115 -0.0385 -0.2258
   80CHL1   H20 8377   2.063   5.300   7.942  0.5510  0.2415 -4.6627
   80CHL1   C21 8378   2.062   5.081   7.920  0.6897 -1.4353 -0.1380
   80CHL1  H21A 8379   1.999   5.003   7.874 -0.1336 -0.0750 -1.3499
   80CHL1  H21B 8380   2.083   5.045   8.023 -0.5834 -1.5713  0.0824
   80CHL1  H21C 8381   2.157   5.084   7.863 -0.3188 -0.4576 -1.8245
   80CHL1   C22 8382   1.898   5.212   8.049  0.1262  0.2439 -0.4712
   80CHL1  H22A 8383   1.839   5.305   8.040 -1.6331 -0.9474 -1.5177
   80CHL1  H22B 8384   1.823   5.131   8.042  0.8992 -0.6383  1.1432
   80CHL1   C23 8385   1.972   5.221   8.182 -0.1485 -0.4168  0.2041
   80CHL1  H23A 8386   2.068   5.165   8.187  1.1087  1.7162  0.3842
   80CHL1  H23B 8387   1.985   5.331   8.194 -1.0944  0.0756 -2.8153
   80CHL1   C24 8388   1.885   5.172   8.300 -0.0598  0.8177 -0.0824
   80CHL1  H24A 8389   1.789   5.226   8.309  0.2457  1.1902  0.9589
   80CHL1  H24B 8390   1.864   5.068   8.266 -1.6357  0.8494  0.7940
   80CHL1   C25 8391   1.966   5.175   8.426 -0.2271  0.1063 -0.0869
   80CHL1   H25 8392   2.064   5.128   8.402 -0.3054  0.4556 -1.1050
   80CHL1   C26 8393   1.987   5.311   8.483  0.5448  0.1179 -0.9068
   80CHL1  H26A 8394   2.049   5.314   8.575 -0.0570  2.5164 -0.5658
   80CHL1  H26B 8395   2.039   5.376   8.410  1.3193 -1.4662 -1.8021
   80CHL1  H26C 8396   1.892   5.358   8.516  0.7875 -0.0791  0.1108
   80CHL1   C27 8397   1.907   5.080   8.530 -0.1181  0.3932 -0.1009
   80CHL1  H27A 8398   1.879   4.982   8.486  0.0576  0.1887  0.2429
   80CHL1  H27B 8399   1.978   5.056   8.612 -2.1083  0.9172  1.8249
   80CHL1  H27C 8400   1.811   5.122   8.570 -0.8926 -1.8800  0.5050
   81CHL1    C3 8401   6.555   5.845   6.987 -0.2419  0.3490  0.4646
   81CHL1    H3 8402   6.651   5.802   7.020 -0.2876 -1.3457 -1.5834
   81CHL1    O3 8403   6.559   5.820   6.851  0.1411  0.0803 -0.1683
   81CHL1   H3' 8404   6.487   5.869   6.811 -1.4897 -1.7818  0.3706
   81CHL1    C4 8405   6.433   5.771   7.043  0.2769  0.2064 -0.0664
   81CHL1   H4A 8406   6.339   5.793   6.987 -0.0876 -2.2160 -0.4642
   81CHL1   H4B 8407   6.451   5.662   7.026 -0.1071  0.3935 -1.7921
   81CHL1    C5 8408   6.400   5.807   7.188  0.1797  0.1873 -0.0662
   81CHL1    C6 8409   6.380   5.707   7.276  0.1318 -0.5193 -0.5701
   81CHL1    H6 8410   6.396   5.602   7.247  0.0102 -0.4237 -0.9755
   81CHL1    C7 8411   6.358   5.734   7.428 -0.6147 -0.3117 -0.5832
   81CHL1   H7A 8412   6.266   5.688   7.470 -0.6901  0.0393 -0.3606
   81CHL1   H7B 8413   6.457   5.702   7.466 -0.1650 -0.7711 -2.0930
   81CHL1    C8 8414   6.331   5.883   7.457 -0.3522  0.0245  0.2246
   81CHL1    H8 8415   6.228   5.908   7.423 -0.4246 -0.5080  0.0459
   81CHL1   C14 8416   6.361   5.915   7.597  0.1572 -0.2762  0.6479
   81CHL1   H14 8417   6.470   5.902   7.615  0.0041 -0.6797  1.3224
   81CHL1   C15 8418   6.287   5.834   7.702  0.1054  0.5573  0.0493
   81CHL1  H15A 8419   6.189   5.799   7.666  0.2421  0.2596 -0.0340
   81CHL1  H15B 8420   6.349   5.746   7.732  0.4710  1.5714  2.3571
   81CHL1   C16 8421   6.273   5.921   7.834 -0.4602 -0.1878 -0.0506
   81CHL1  H16A 8422   6.166   5.949   7.847  0.4374  3.1440  0.6585
   81CHL1  H16B 8423   6.308   5.863   7.922  0.3495 -1.3423 -1.1211
   81CHL1   C17 8424   6.359   6.041   7.809  0.8389 -0.7212  0.6682
   81CHL1   H17 8425   6.464   6.017   7.834  1.7844  1.5297 -1.0144
   81CHL1   C13 8426   6.345   6.063   7.651 -0.3633 -0.2063 -0.5786
   81CHL1   C18 8427   6.201   6.110   7.623  0.4375  0.4582  0.2490
   81CHL1  H18A 8428   6.177   6.106   7.514  0.8456  0.4448  0.1609
   81CHL1  H18B 8429   6.119   6.052   7.670  1.0073 -0.3031  0.2955
   81CHL1  H18C 8430   6.193   6.215   7.659 -1.8494  0.9226 -1.4588
   81CHL1   C12 8431   6.453   6.146   7.573  0.9801  0.4173  0.4877
   81CHL1  H12A 8432   6.424   6.251   7.594  0.5283  0.1171  1.3694
   81CHL1  H12B 8433   6.549   6.116   7.620  0.3796  0.5526  1.8220
   81CHL1   C11 8434   6.446   6.116   7.421  0.0819 -0.3662 -0.1558
   81CHL1  H11A 8435   6.359   6.175   7.387  0.0320  0.7740  1.8311
   81CHL1  H11B 8436   6.539   6.162   7.382  0.9721 -0.5637  1.6775
   81CHL1    C9 8437   6.430   5.970   7.376  0.7479  0.4737  0.1080
   81CHL1    H9 8438   6.535   5.934   7.389  0.2328 -0.7637  0.9089
   81CHL1   C10 8439   6.407   5.962   7.227  0.9055  0.0651  0.2457
   81CHL1   C19 8440   6.278   6.024   7.185 -0.1418 -0.1947 -0.1508
   81CHL1  H19A 8441   6.273   6.022   7.074  0.4889 -0.4972 -0.1759
   81CHL1  H19B 8442   6.190   5.981   7.237 -0.9685  2.6645  0.9585
   81CHL1  H19C 8443   6.274   6.134   7.203 -0.0745 -0.1447 -0.4430
   81CHL1    C1 8444   6.521   6.027   7.152  0.3003  0.1203 -0.1733
   81CHL1   H1A 8445   6.513   6.138   7.158  1.6232  0.1943  0.3603
   81CHL1   H1B 8446   6.616   6.010   7.207  1.1323  0.5260 -1.4553
   81CHL1    C2 8447   6.534   5.997   7.002  0.4031  0.3333 -0.2610
   81CHL1   H2A 8448   6.621   6.049   6.956  0.7821 -2.7542 -3.1777
   81CHL1   H2B 8449   6.442   6.032   6.950  1.0231  1.4733 -0.5961
   81CHL1   C20 8450   6.338   6.157   7.902 -0.9464  0.1876 -0.3313
   81CHL1   H20 8451   6.231   6.187   7.894 -1.4388 -0.6542  2.5392
   81CHL1   C21 8452   6.441   6.269   7.876  0.8290 -0.2822  0.1603
   81CHL1  H21A 8453   6.542   6.228   7.898  1.3603 -0.7432 -2.8950
   81CHL1  H21B 8454   6.431   6.359   7.940 -1.4732 -1.7168  1.8896
   81CHL1  H21C 8455   6.455   6.316   7.777  0.5614  0.4939  0.4920
   81CHL1   C22 8456   6.352   6.120   8.054 -0.3663  0.2539 -0.3926
   81CHL1  H22A 8457   6.427   6.039   8.069 -2.0748 -1.1354  0.8246
   81CHL1  H22B 8458   6.391   6.207   8.111  2.0225 -0.9988 -0.0526
   81CHL1   C23 8459   6.216   6.077   8.108 -0.0376  0.2632  0.7684
   81CHL1  H23A 8460   6.135   6.148   8.082 -0.4011  0.6022  2.7613
   81CHL1  H23B 8461   6.190   5.975   8.071 -0.4826  0.5239  0.3537
   81CHL1   C24 8462   6.223   6.064   8.260 -0.2267 -0.1831 -0.9024
   81CHL1  H24A 8463   6.303   5.988   8.276  0.4952  1.1184  2.0963
   81CHL1  H24B 8464   6.248   6.163   8.304 -0.8396 -0.7723  0.8041
   81CHL1   C25 8465   6.094   6.012   8.337  0.0390  0.5414 -0.7563
   81CHL1   H25 8466   6.017   6.086   8.310 -2.8129 -2.1903 -0.4226
   81CHL1   C26 8467   6.054   5.869   8.297 -0.1221  0.3121  0.3390
   81CHL1  H26A 8468   5.967   5.844   8.360 -1.8892  0.4826 -1.9655
   81CHL1  H26B 8469   6.007   5.864   8.197  0.6115  0.2081 -0.0025
   81CHL1  H26C 8470   6.138   5.800   8.320 -0.4054 -0.1461  0.0085
   81CHL1   C27 8471   6.120   6.020   8.492 -0.1803  0.0391  0.5295
   81CHL1  H27A 8472   6.022   5.984   8.531  0.1070 -0.5217  0.7307
   81CHL1  H27B 8473   6.196   5.946   8.524  0.9546  0.7168 -0.5684
   81CHL1  H27C 8474   6.141   6.124   8.525  0.1339  0.4257 -0.8571
   82CHL1    C3 8475   0.587   6.592   6.959 -0.0697  0.5078  0.5406
   82CHL1    H3 8476   0.581   6.483   6.942  1.7063  0.7024 -1.5936
   82CHL1    O3 8477   0.597   6.648   6.834  0.3746 -0.1374 -0.1511
   82CHL1   H3' 8478   0.543   6.727   6.829 -1.7312 -1.6556 -3.3223
   82CHL1    C4 8479   0.452   6.633   7.032  0.1720  0.1428 -0.7782
   82CHL1   H4A 8480   0.450   6.743   7.015  1.2169  0.2050 -0.5254
   82CHL1   H4B 8481   0.361   6.596   6.979  0.5922 -0.6863 -0.9354
   82CHL1    C5 8482   0.455   6.593   7.176 -0.1092  0.2047  0.9444
   82CHL1    C6 8483   0.350   6.536   7.232  0.5279  0.5634 -0.2847
   82CHL1    H6 8484   0.256   6.534   7.175  0.7275 -2.8493 -0.5721
   82CHL1    C7 8485   0.334   6.498   7.373  0.4166  0.0048 -0.8143
   82CHL1   H7A 8486   0.230   6.523   7.402  1.2192  4.5701 -1.4779
   82CHL1   H7B 8487   0.363   6.392   7.388  0.7978  0.0678 -1.0949
   82CHL1    C8 8488   0.428   6.592   7.460  0.0569  0.4352 -0.6953
   82CHL1    H8 8489   0.390   6.696   7.467 -1.3999 -0.1871  0.9867
   82CHL1   C14 8490   0.437   6.530   7.604  0.3859 -0.0502  0.2303
   82CHL1   H14 8491   0.489   6.432   7.597  0.2924 -0.2893  2.4611
   82CHL1   C15 8492   0.309   6.498   7.682 -0.2506 -0.1120 -0.4757
   82CHL1  H15A 8493   0.247   6.590   7.682  1.4238  1.0495  0.9145
   82CHL1  H15B 8494   0.271   6.401   7.645  1.1291 -1.0348  0.4713
   82CHL1   C16 8495   0.358   6.464   7.827 -0.8711 -0.4380  0.3136
   82CHL1  H16A 8496   0.316   6.533   7.903 -0.7633  0.0105 -0.0331
   82CHL1  H16B 8497   0.347   6.360   7.864  0.0462 -0.5552  0.2680
   82CHL1   C17 8498   0.515   6.505   7.832 -0.3776 -0.4090 -0.0751
   82CHL1   H17 8499   0.578   6.415   7.812  1.4047  0.3485  1.9391
   82CHL1   C13 8500   0.535   6.598   7.708  0.6877  0.1134 -0.1622
   82CHL1   C18 8501   0.482   6.739   7.748  0.0478  0.1692 -0.1301
   82CHL1  H18A 8502   0.382   6.742   7.796 -0.9094 -0.1387 -2.0359
   82CHL1  H18B 8503   0.560   6.785   7.812  1.6978 -0.6461 -1.5108
   82CHL1  H18C 8504   0.490   6.804   7.657 -0.9952  1.2417  0.5280
   82CHL1   C12 8505   0.673   6.608   7.635  0.6504 -0.1448  0.4130
   82CHL1  H12A 8506   0.752   6.664   7.690 -0.7565  1.4710  0.8205
   82CHL1  H12B 8507   0.711   6.505   7.613  1.7292  0.4053 -0.3599
   82CHL1   C11 8508   0.666   6.671   7.496 -0.1825  0.2495 -0.2378
   82CHL1  H11A 8509   0.642   6.780   7.498  0.9687  0.5711 -2.2420
   82CHL1  H11B 8510   0.768   6.668   7.453  1.7151  2.3939  3.8979
   82CHL1    C9 8511   0.571   6.593   7.399  0.2451 -0.2229 -0.2440
   82CHL1    H9 8512   0.597   6.486   7.389  3.2754  0.5853 -1.9029
   82CHL1   C10 8513   0.578   6.638   7.249  0.5689 -0.1337 -0.2101
   82CHL1   C19 8514   0.589   6.792   7.253  0.0950  0.2570 -0.1098
   82CHL1  H19A 8515   0.574   6.843   7.155 -1.2511 -0.5014 -0.3074
   82CHL1  H19B 8516   0.538   6.840   7.339  0.2827 -0.8577  0.6308
   82CHL1  H19C 8517   0.692   6.822   7.282  1.2008 -1.9183 -1.6072
   82CHL1    C1 8518   0.708   6.592   7.184 -0.0771  0.0947 -0.5222
   82CHL1   H1A 8519   0.800   6.629   7.234 -0.6351 -1.7996  1.9982
   82CHL1   H1B 8520   0.699   6.482   7.187  0.9798  0.0000 -0.6373
   82CHL1    C2 8521   0.719   6.617   7.032 -0.4168 -0.2985  0.4547
   82CHL1   H2A 8522   0.798   6.551   6.988  1.2003  2.5143 -1.0192
   82CHL1   H2B 8523   0.753   6.721   7.014 -1.8604  0.0028 -0.5361
   82CHL1   C20 8524   0.567   6.559   7.966  0.9025 -0.4151  0.0098
   82CHL1   H20 8525   0.506   6.648   7.992 -1.3041 -2.0985  0.7577
   82CHL1   C21 8526   0.714   6.592   7.949 -0.0195 -0.5030 -1.0911
   82CHL1  H21A 8527   0.743   6.689   7.904 -0.1010  0.4394  0.8354
   82CHL1  H21B 8528   0.773   6.520   7.888 -0.0134 -1.2070 -0.2714
   82CHL1  H21C 8529   0.764   6.609   8.047  1.1867  2.0189 -2.1067
   82CHL1   C22 8530   0.541   6.451   8.075 -0.7440  0.1400  0.5281
   82CHL1  H22A 8531   0.434   6.425   8.064 -1.4767  2.5428  1.6390
   82CHL1  H22B 8532   0.605   6.361   8.065  0.5997  0.9970  1.2201
   82CHL1   C23 8533   0.555   6.514   8.210  0.3750  0.1542 -0.6639
   82CHL1  H23A 8534   0.650   6.572   8.214 -0.9144  2.3820 -1.4107
   82CHL1  H23B 8535   0.473   6.589   8.218 -0.2088 -0.6446  1.0256
   82CHL1   C24 8536   0.546   6.410   8.330 -1.0707 -0.3060  0.4285
   82CHL1  H24A 8537   0.487   6.322   8.298  1.2990 -1.4823 -0.8596
   82CHL1  H24B 8538   0.649   6.369   8.332 -1.3319 -0.9374  0.7529
   82CHL1   C25 8539   0.481   6.460   8.461  0.3914  0.4798 -0.2916
   82CHL1   H25 8540   0.529   6.555   8.494 -1.5522  1.1555  0.6142
   82CHL1   C26 8541   0.329   6.487   8.439 -0.0185 -0.4320 -0.4179
   82CHL1  H26A 8542   0.310   6.555   8.353 -2.9378  1.1192  1.3722
   82CHL1  H26B 8543   0.265   6.396   8.438 -0.1312 -0.3475 -0.7307
   82CHL1  H26C 8544   0.290   6.544   8.526  0.5555 -0.7143  0.0323
   82CHL1   C27 8545   0.505   6.362   8.588 -0.4922  0.0031 -0.0754
   82CHL1  H27A 8546   0.447   6.268   8.576 -1.4658  0.5009  0.7048
   82CHL1  H27B 8547   0.611   6.340   8.613 -1.1123 -1.0663  1.7298
   82CHL1  H27C 8548   0.456   6.409   8.676  1.2330  2.3539 -0.3126
   83CHL1    C3 8549   3.565   0.914   7.012  0.5868  0.0386  0.3122
   83CHL1    H3 8550   3.668   0.918   7.056  0.7440  0.1677 -0.0680
   83CHL1    O3 8551   3.575   0.954   6.873 -0.2738  0.4354 -0.0190
   83CHL1   H3' 8552   3.493   0.997   6.845 -0.6417 -0.7110 -0.7264
   83CHL1    C4 8553   3.513   0.770   7.000 -0.1411 -0.3095 -0.0189
   83CHL1   H4A 8554   3.420   0.773   6.940 -1.1361 -1.1487  1.4554
   83CHL1   H4B 8555   3.589   0.715   6.940 -0.0421  0.1836 -0.3412
   83CHL1    C5 8556   3.489   0.717   7.135  0.5976 -0.3529  0.4018
   83CHL1    C6 8557   3.554   0.610   7.188  0.1722 -0.2329  0.0314
   83CHL1    H6 8558   3.619   0.552   7.120  2.0097  0.1783  1.4154
   83CHL1    C7 8559   3.542   0.553   7.323 -0.0506  0.4085 -0.8195
   83CHL1   H7A 8560   3.551   0.443   7.305  0.1236 -0.0055  1.6564
   83CHL1   H7B 8561   3.627   0.591   7.384  0.5460  0.0392 -1.4056
   83CHL1    C8 8562   3.415   0.600   7.391 -0.7339  0.2157  0.7255
   83CHL1    H8 8563   3.333   0.547   7.338  0.8253  1.7213 -3.3779
   83CHL1   C14 8564   3.416   0.558   7.542  0.0031  0.5441 -0.0982
   83CHL1   H14 8565   3.499   0.619   7.583 -0.8901 -0.5767  3.6545
   83CHL1   C15 8566   3.464   0.414   7.587 -0.0460  0.8223 -0.4935
   83CHL1  H15A 8567   3.414   0.340   7.520  0.5590  1.9754 -2.2576
   83CHL1  H15B 8568   3.575   0.401   7.585  0.0039  0.1637  2.8434
   83CHL1   C16 8569   3.411   0.412   7.731 -0.8340 -0.3657  0.7257
   83CHL1  H16A 8570   3.329   0.336   7.730 -2.9841  1.9178  0.0944
   83CHL1  H16B 8571   3.473   0.398   7.822  0.6842  4.4867  0.5243
   83CHL1   C17 8572   3.330   0.544   7.756  0.4129  0.0547  0.1365
   83CHL1   H17 8573   3.400   0.617   7.801 -0.7102  1.9626 -1.1304
   83CHL1   C13 8574   3.300   0.600   7.612  0.7467  0.6657  0.1983
   83CHL1   C18 8575   3.173   0.529   7.555  0.4071 -0.0374  0.6598
   83CHL1  H18A 8576   3.145   0.550   7.450 -0.3989 -0.4514  0.7854
   83CHL1  H18B 8577   3.179   0.419   7.573  0.6160 -0.3370 -1.1600
   83CHL1  H18C 8578   3.078   0.555   7.606  0.7981  0.4292  1.1506
   83CHL1   C12 8579   3.288   0.755   7.610  1.0113 -0.5527  0.0879
   83CHL1  H12A 8580   3.197   0.792   7.661 -0.4505  0.7338 -3.3299
   83CHL1  H12B 8581   3.374   0.803   7.662  0.3920 -2.0612  2.5746
   83CHL1   C11 8582   3.276   0.799   7.463 -0.2260  0.0150  0.5731
   83CHL1  H11A 8583   3.183   0.763   7.414  0.1070  0.1475 -0.1660
   83CHL1  H11B 8584   3.267   0.910   7.466 -2.0806 -0.0797 -0.4051
   83CHL1    C9 8585   3.394   0.756   7.371 -0.1574 -0.3240  0.2204
   83CHL1    H9 8586   3.481   0.796   7.428  0.3401 -0.7245 -0.2488
   83CHL1   C10 8587   3.399   0.804   7.229 -0.6882 -0.6980 -0.3387
   83CHL1   C19 8588   3.260   0.805   7.174  0.5283  0.2729 -0.9299
   83CHL1  H19A 8589   3.188   0.869   7.230 -1.4070 -1.7303 -1.0603
   83CHL1  H19B 8590   3.252   0.825   7.065 -2.0826 -0.3024 -0.8654
   83CHL1  H19C 8591   3.211   0.709   7.198  1.3035  0.4187  1.3933
   83CHL1    C1 8592   3.448   0.951   7.225 -0.7189  0.7867  0.2833
   83CHL1   H1A 8593   3.376   1.014   7.282 -0.4426  1.5979 -0.2625
   83CHL1   H1B 8594   3.549   0.962   7.270 -1.0145  1.5142  0.7831
   83CHL1    C2 8595   3.472   1.008   7.088  0.5454 -0.3330  0.4198
   83CHL1   H2A 8596   3.519   1.109   7.097  0.1723 -0.2151  1.0650
   83CHL1   H2B 8597   3.371   1.013   7.041 -0.9364 -1.7145  3.3767
   83CHL1   C20 8598   3.215   0.518   7.866 -0.0035  0.3990 -0.2317
   83CHL1   H20 8599   3.154   0.436   7.823 -0.3715  0.4170  0.2439
   83CHL1   C21 8600   3.129   0.637   7.888  0.6635  0.6195  0.3954
   83CHL1  H21A 8601   3.103   0.685   7.792 -3.3080  3.4088  2.7381
   83CHL1  H21B 8602   3.178   0.702   7.964  0.6480  0.9086  0.1579
   83CHL1  H21C 8603   3.036   0.600   7.936  0.1422  0.3348 -0.8275
   83CHL1   C22 8604   3.277   0.472   8.003  0.4419 -0.5080 -0.5905
   83CHL1  H22A 8605   3.311   0.368   7.987  0.3653 -0.9201  1.8517
   83CHL1  H22B 8606   3.362   0.534   8.037 -0.0162 -0.6117  0.7772
   83CHL1   C23 8607   3.163   0.450   8.106 -0.2260  0.1223  0.0743
   83CHL1  H23A 8608   3.117   0.542   8.149  0.7694  0.0112  1.4102
   83CHL1  H23B 8609   3.089   0.391   8.049  1.2214 -3.1812  1.5077
   83CHL1   C24 8610   3.196   0.359   8.228 -0.0692 -0.2620  0.4556
   83CHL1  H24A 8611   3.105   0.324   8.281  0.6293 -2.1455  0.4176
   83CHL1  H24B 8612   3.249   0.266   8.198  1.8506  0.2300  2.2128
   83CHL1   C25 8613   3.311   0.417   8.314  0.8553  0.8807 -0.2868
   83CHL1   H25 8614   3.389   0.446   8.240  1.6372 -2.0856 -0.7217
   83CHL1   C26 8615   3.270   0.545   8.395  0.0950 -0.6162  0.7014
   83CHL1  H26A 8616   3.225   0.622   8.329  0.1705  0.2736  1.6829
   83CHL1  H26B 8617   3.187   0.529   8.468  0.0374  1.1567  1.0541
   83CHL1  H26C 8618   3.356   0.592   8.448  2.1122 -3.2602 -0.1006
   83CHL1   C27 8619   3.369   0.304   8.403 -0.1445  0.0249  0.2849
   83CHL1  H27A 8620   3.450   0.349   8.464  0.2562  0.2377 -0.4002
   83CHL1  H27B 8621   3.294   0.255   8.469 -2.1275 -1.5673 -3.0167
   83CHL1  H27C 8622   3.415   0.233   8.331 -2.2128  3.0014 -4.1838
   84CHL1    C3 8623   5.699   3.996   6.868  0.5899 -0.3054  0.0980
   84CHL1    H3 8624   5.716   3.886   6.867  0.0559 -0.3811 -1.9268
   84CHL1    O3 8625   5.705   4.038   6.730  0.0037 -0.1045 -0.7851
   84CHL1   H3' 8626   5.648   4.114   6.715  1.3024  0.7884 -1.2824
   84CHL1    C4 8627   5.566   4.040   6.926  0.2640 -0.1923 -0.5093
   84CHL1   H4A 8628   5.545   4.149   6.925 -1.5909 -0.5296 -3.1587
   84CHL1   H4B 8629   5.482   3.999   6.867 -0.0324 -2.1448  1.2348
   84CHL1    C5 8630   5.564   3.981   7.068 -0.8985  0.2405  0.7220
   84CHL1    C6 8631   5.462   3.902   7.103 -0.0728  1.1275  0.3279
   84CHL1    H6 8632   5.385   3.888   7.026 -2.6151  3.0193  2.4506
   84CHL1    C7 8633   5.453   3.837   7.236  0.3582 -1.0040 -0.3055
   84CHL1   H7A 8634   5.348   3.855   7.270  0.8357 -1.0404  1.2365
   84CHL1   H7B 8635   5.471   3.728   7.223 -1.0842 -1.3603  0.4986
   84CHL1    C8 8636   5.543   3.904   7.341  0.0135  0.2477  1.0721
   84CHL1    H8 8637   5.484   3.992   7.376 -0.3215 -0.1118  1.4139
   84CHL1   C14 8638   5.564   3.813   7.460 -0.0528 -0.3095 -0.2436
   84CHL1   H14 8639   5.634   3.733   7.428  2.8694  1.9549  0.2207
   84CHL1   C15 8640   5.436   3.741   7.515  0.0490 -0.4137 -0.6543
   84CHL1  H15A 8641   5.346   3.805   7.508 -0.4797 -0.9342  1.2921
   84CHL1  H15B 8642   5.424   3.648   7.455  0.7453 -0.4251 -0.7780
   84CHL1   C16 8643   5.472   3.721   7.664 -0.3682  0.1315  0.8023
   84CHL1  H16A 8644   5.399   3.778   7.724 -0.7187  1.6364 -1.0023
   84CHL1  H16B 8645   5.464   3.611   7.681 -0.8124 -0.0178 -0.3153
   84CHL1   C17 8646   5.620   3.771   7.689  0.6374  0.4297 -0.1143
   84CHL1   H17 8647   5.691   3.687   7.671  0.6616  0.1778  1.0876
   84CHL1   C13 8648   5.637   3.877   7.580 -0.3827 -0.1338 -0.0782
   84CHL1   C18 8649   5.562   4.004   7.634 -0.2407  0.1741 -0.1121
   84CHL1  H18A 8650   5.462   3.976   7.675 -0.2544  0.3023 -0.0570
   84CHL1  H18B 8651   5.612   4.042   7.726 -1.4542  0.5177  0.4169
   84CHL1  H18C 8652   5.545   4.088   7.564 -0.3558 -0.6112 -1.0374
   84CHL1   C12 8653   5.778   3.920   7.529 -0.5172  0.5244 -0.2074
   84CHL1  H12A 8654   5.834   3.976   7.607 -0.2682 -0.8184  0.5907
   84CHL1  H12B 8655   5.816   3.816   7.516 -0.5575  0.5645 -0.6426
   84CHL1   C11 8656   5.779   3.996   7.398  0.7096 -0.4490 -1.1154
   84CHL1  H11A 8657   5.751   4.100   7.426 -0.2293 -1.8917  3.9458
   84CHL1  H11B 8658   5.882   4.000   7.358  0.6806  2.7662 -0.9934
   84CHL1    C9 8659   5.681   3.942   7.292 -0.1131  0.0035  0.0455
   84CHL1    H9 8660   5.733   3.850   7.258  0.0449 -0.5559  1.7769
   84CHL1   C10 8661   5.681   4.029   7.161  0.0826 -0.1849 -0.1861
   84CHL1   C19 8662   5.635   4.172   7.202  0.8879  0.1172 -0.0986
   84CHL1  H19A 8663   5.544   4.171   7.266 -0.2122 -0.1598 -1.6338
   84CHL1  H19B 8664   5.718   4.216   7.260  1.3116  0.7305 -1.1648
   84CHL1  H19C 8665   5.619   4.247   7.122  0.6757 -0.1683 -0.3247
   84CHL1    C1 8666   5.814   4.018   7.088  0.4165  0.9337  0.0734
   84CHL1   H1A 8667   5.894   4.077   7.137  1.9416 -3.0301  2.6883
   84CHL1   H1B 8668   5.838   3.909   7.087 -3.5901 -0.0263 -0.5537
   84CHL1    C2 8669   5.813   4.063   6.942  0.5934 -0.4733  0.0262
   84CHL1   H2A 8670   5.913   4.037   6.903  0.4937 -1.6202  0.5166
   84CHL1   H2B 8671   5.794   4.173   6.944 -1.8489 -0.8686  0.7601
   84CHL1   C20 8672   5.634   3.804   7.837 -0.4410  1.0205  0.2671
   84CHL1   H20 8673   5.570   3.890   7.863 -0.6676  1.0677 -0.4662
   84CHL1   C21 8674   5.783   3.837   7.869 -0.6085  0.2680  0.5543
   84CHL1  H21A 8675   5.858   3.757   7.851  0.6409  1.3451  0.8953
   84CHL1  H21B 8676   5.797   3.869   7.974  1.4579  1.9773 -0.1908
   84CHL1  H21C 8677   5.829   3.920   7.811 -1.3602 -0.4597 -1.1291
   84CHL1   C22 8678   5.593   3.685   7.932 -0.7554  0.0589  0.2261
   84CHL1  H22A 8679   5.498   3.640   7.896 -0.3163  0.3116 -1.3023
   84CHL1  H22B 8680   5.663   3.599   7.925 -1.7341 -0.6273 -1.3341
   84CHL1   C23 8681   5.576   3.717   8.077  1.0161  0.0624  0.3220
   84CHL1  H23A 8682   5.558   3.630   8.144  0.9497 -0.0784  0.1226
   84CHL1  H23B 8683   5.647   3.788   8.124  0.7354  0.5686 -0.0172
   84CHL1   C24 8684   5.443   3.790   8.089 -0.0993 -0.0177  0.7217
   84CHL1  H24A 8685   5.436   3.878   8.023 -0.3159 -0.2121  0.4843
   84CHL1  H24B 8686   5.372   3.716   8.047 -0.9766  0.1128  1.9335
   84CHL1   C25 8687   5.401   3.820   8.232  0.4637 -0.1100 -0.3351
   84CHL1   H25 8688   5.428   3.734   8.297 -0.3933 -0.6787 -0.7080
   84CHL1   C26 8689   5.464   3.946   8.287 -0.3053 -0.1086 -0.4592
   84CHL1  H26A 8690   5.428   4.040   8.240  0.2745  0.1428 -0.4118
   84CHL1  H26B 8691   5.462   3.961   8.397  1.8052 -0.0330 -0.4062
   84CHL1  H26C 8692   5.571   3.947   8.258  0.3702 -0.4429  1.8859
   84CHL1   C27 8693   5.251   3.839   8.237 -0.0478  0.2293 -0.4701
   84CHL1  H27A 8694   5.208   3.823   8.338 -0.1208 -0.1855 -0.5672
   84CHL1  H27B 8695   5.223   3.939   8.196 -0.0168  0.6312  0.4869
   84CHL1  H27C 8696   5.192   3.773   8.170 -0.0216  0.8884 -1.1566
   85CHL1    C3 8697   5.250   1.038   6.603  0.1156  0.1265  0.0289
   85CHL1    H3 8698   5.319   0.952   6.594  1.2496  0.9528  0.6272
   85CHL1    O3 8699   5.225   1.105   6.479  0.3533 -0.1122 -0.3602
   85CHL1   H3' 8700   5.281   1.182   6.470  0.5428 -0.2196 -0.1028
   85CHL1    C4 8701   5.127   0.985   6.662  0.1029 -1.2525 -0.0029
   85CHL1   H4A 8702   5.056   1.070   6.668  1.2683 -0.2279 -0.3632
   85CHL1   H4B 8703   5.080   0.915   6.590 -1.4181  1.2212 -1.5053
   85CHL1    C5 8704   5.150   0.913   6.796 -0.0594  0.7440 -0.0341
   85CHL1    C6 8705   5.134   0.787   6.826 -0.4592 -0.3079 -0.0789
   85CHL1    H6 8706   5.097   0.722   6.745  1.1827  0.4696 -1.4774
   85CHL1    C7 8707   5.153   0.719   6.963 -0.2127 -0.4505  0.0137
   85CHL1   H7A 8708   5.069   0.648   6.978 -0.6054 -0.4408 -1.9569
   85CHL1   H7B 8709   5.249   0.663   6.971 -0.3259 -1.1132 -2.6974
   85CHL1    C8 8710   5.145   0.832   7.068 -0.1152  0.3740  0.1264
   85CHL1    H8 8711   5.046   0.881   7.064 -0.3413 -0.0789  0.1481
   85CHL1   C14 8712   5.178   0.770   7.202  0.5979 -0.2886 -0.0958
   85CHL1   H14 8713   5.281   0.727   7.200  0.5443 -0.4526  0.3956
   85CHL1   C15 8714   5.088   0.660   7.254 -0.4357  0.4625  0.3983
   85CHL1  H15A 8715   4.982   0.693   7.254 -0.0988  1.6276 -1.0349
   85CHL1  H15B 8716   5.099   0.567   7.194  2.4896  0.1374  1.3266
   85CHL1   C16 8717   5.126   0.642   7.400 -0.0427 -0.1871 -0.1905
   85CHL1  H16A 8718   5.042   0.634   7.472 -0.0665  0.4360 -0.1454
   85CHL1  H16B 8719   5.183   0.547   7.411  0.7918  0.0874 -1.9802
   85CHL1   C17 8720   5.225   0.763   7.433 -0.0236  0.0176  1.0901
   85CHL1   H17 8721   5.324   0.715   7.416  0.2264  1.6167 -2.3890
   85CHL1   C13 8722   5.196   0.868   7.321 -0.1541  0.6073 -0.1885
   85CHL1   C18 8723   5.058   0.941   7.351  0.6090 -0.0874  0.0852
   85CHL1  H18A 8724   5.076   1.021   7.426  0.1869  2.0893 -2.0489
   85CHL1  H18B 8725   5.022   0.990   7.258  0.7391 -0.7684 -0.3245
   85CHL1  H18C 8726   4.973   0.873   7.374  0.6026  0.0039  0.3296
   85CHL1   C12 8727   5.308   0.966   7.285 -0.3616  0.1842 -0.3392
   85CHL1  H12A 8728   5.312   1.038   7.370 -2.0548  0.2428 -0.2946
   85CHL1  H12B 8729   5.408   0.920   7.269  0.6193  1.9408  0.6968
   85CHL1   C11 8730   5.271   1.037   7.151 -0.1462  0.6697  0.5380
   85CHL1  H11A 8731   5.180   1.097   7.174 -0.3201  0.6212 -0.0046
   85CHL1  H11B 8732   5.354   1.102   7.117 -0.5643  0.9007 -0.0612
   85CHL1    C9 8733   5.248   0.937   7.033  0.2601 -0.2244  0.4113
   85CHL1    H9 8734   5.337   0.875   7.013 -0.3772 -1.3449  0.9695
   85CHL1   C10 8735   5.216   1.008   6.902  0.8940 -0.2898 -0.3775
   85CHL1   C19 8736   5.100   1.114   6.925  0.3066 -0.8066  0.0455
   85CHL1  H19A 8737   5.099   1.182   7.013 -1.4996 -0.1215 -0.4923
   85CHL1  H19B 8738   5.096   1.180   6.836  1.1394  0.1297  0.6892
   85CHL1  H19C 8739   5.007   1.053   6.934 -0.1646 -0.1724 -0.4966
   85CHL1    C1 8740   5.349   1.077   6.839  0.8651  0.5891  0.1474
   85CHL1   H1A 8741   5.386   1.151   6.913 -2.1977  2.3098  0.0337
   85CHL1   H1B 8742   5.424   0.995   6.838 -1.2203 -1.3791  0.9049
   85CHL1    C2 8743   5.332   1.132   6.698 -0.7092  0.5888 -0.3435
   85CHL1   H2A 8744   5.434   1.146   6.656 -0.2128 -1.5705  0.1093
   85CHL1   H2B 8745   5.282   1.231   6.695 -1.4205  0.2178 -0.9800
   85CHL1   C20 8746   5.222   0.804   7.578 -0.8236 -0.0694 -0.7901
   85CHL1   H20 8747   5.123   0.851   7.595 -0.5909 -0.6181  2.3984
   85CHL1   C21 8748   5.339   0.905   7.608  0.7706  0.0153  0.2220
   85CHL1  H21A 8749   5.326   1.005   7.560 -0.9709 -1.3763 -2.3517
   85CHL1  H21B 8750   5.434   0.854   7.582 -0.5166 -2.3492  0.0499
   85CHL1  H21C 8751   5.342   0.931   7.716  0.9314 -1.0256  0.4686
   85CHL1   C22 8752   5.223   0.685   7.682  0.4758 -0.6523 -0.2602
   85CHL1  H22A 8753   5.135   0.626   7.648  0.2331 -1.1436  1.1748
   85CHL1  H22B 8754   5.314   0.624   7.665 -0.2387 -1.6064 -0.7061
   85CHL1   C23 8755   5.203   0.723   7.831 -0.2140  0.2513 -0.3360
   85CHL1  H23A 8756   5.275   0.800   7.866 -0.9404  1.0828 -0.6430
   85CHL1  H23B 8757   5.106   0.775   7.842 -0.5437 -0.6744  1.2827
   85CHL1   C24 8758   5.192   0.601   7.926  0.2949 -0.4739  0.1268
   85CHL1  H24A 8759   5.093   0.552   7.914 -1.2653  3.1431 -2.5295
   85CHL1  H24B 8760   5.279   0.535   7.908 -0.9105 -1.8070 -0.8832
   85CHL1   C25 8761   5.207   0.645   8.069  0.7424 -0.1898  0.1332
   85CHL1   H25 8762   5.301   0.704   8.067 -0.0807  1.1460 -0.1487
   85CHL1   C26 8763   5.101   0.737   8.125 -0.1639 -0.2958  0.0651
   85CHL1  H26A 8764   5.089   0.824   8.057  3.7210 -1.1682 -1.8825
   85CHL1  H26B 8765   5.003   0.684   8.131 -0.3823  0.0272 -0.5827
   85CHL1  H26C 8766   5.136   0.777   8.223  1.9359 -1.4639 -0.1687
   85CHL1   C27 8767   5.206   0.525   8.159  0.3389 -0.2395 -0.1041
   85CHL1  H27A 8768   5.114   0.465   8.141 -0.2291 -0.0858  2.1302
   85CHL1  H27B 8769   5.298   0.468   8.137 -0.2183 -0.5184 -1.8264
   85CHL1  H27C 8770   5.188   0.543   8.267 -1.0691  2.2903 -0.6945
   86CHL1    C3 8771   0.553   5.225   6.868 -0.6012  0.4498 -0.5396
   86CHL1    H3 8772   0.599   5.322   6.896 -1.9923  0.9090  0.1852
   86CHL1    O3 8773   0.587   5.207   6.729 -0.1053 -0.2144  0.2600
   86CHL1   H3' 8774   0.530   5.259   6.671 -0.3653 -1.4478 -0.6027
   86CHL1    C4 8775   0.617   5.109   6.939 -0.5725  0.3142 -0.3038
   86CHL1   H4A 8776   0.580   5.009   6.908 -2.3646  0.3328  1.6396
   86CHL1   H4B 8777   0.725   5.104   6.915 -1.2240 -2.7196 -2.9829
   86CHL1    C5 8778   0.586   5.121   7.091  0.5546 -0.4045  0.3909
   86CHL1    C6 8779   0.682   5.139   7.179  0.2822  0.3524 -0.6331
   86CHL1    H6 8780   0.784   5.132   7.138  0.0269 -0.9822 -1.0819
   86CHL1    C7 8781   0.669   5.144   7.330 -0.0360 -0.3825 -0.0187
   86CHL1   H7A 8782   0.754   5.102   7.388  1.1336  1.6654 -0.2075
   86CHL1   H7B 8783   0.656   5.250   7.358 -0.9129 -0.0522 -1.6230
   86CHL1    C8 8784   0.530   5.087   7.369  0.4751  0.1212  0.8399
   86CHL1    H8 8785   0.542   4.977   7.359  1.3503  0.2649  0.2230
   86CHL1   C14 8786   0.492   5.121   7.513 -0.1565  0.6331  0.4775
   86CHL1   H14 8787   0.495   5.232   7.512 -3.4202  0.7626 -0.9177
   86CHL1   C15 8788   0.592   5.082   7.628 -0.2321 -0.1106 -0.4905
   86CHL1  H15A 8789   0.639   4.982   7.615 -0.7177 -0.8427  2.8660
   86CHL1  H15B 8790   0.671   5.159   7.636 -1.7197  1.2299  1.8267
   86CHL1   C16 8791   0.504   5.078   7.752 -0.6931  0.0595  0.5170
   86CHL1  H16A 8792   0.510   4.973   7.788 -0.4306 -0.6297 -1.4902
   86CHL1  H16B 8793   0.542   5.148   7.829 -2.2697  0.6195  0.8141
   86CHL1   C17 8794   0.357   5.115   7.707 -0.1549 -0.9967  0.2336
   86CHL1   H17 8795   0.362   5.226   7.713  1.9457 -1.1363  1.5068
   86CHL1   C13 8796   0.356   5.070   7.555  0.1761  0.0988  0.1890
   86CHL1   C18 8797   0.355   4.907   7.550 -0.4471 -0.0102 -0.5386
   86CHL1  H18A 8798   0.352   4.874   7.444 -1.6511 -3.1666  0.4227
   86CHL1  H18B 8799   0.449   4.860   7.584 -0.5106 -0.5835 -1.1360
   86CHL1  H18C 8800   0.264   4.860   7.592  1.1121 -1.8447  0.8604
   86CHL1   C12 8801   0.246   5.137   7.471  0.5143  0.2579 -0.8892
   86CHL1  H12A 8802   0.153   5.082   7.496  0.6778 -0.7683 -2.4657
   86CHL1  H12B 8803   0.234   5.247   7.476 -0.4077  0.0729  1.0979
   86CHL1   C11 8804   0.268   5.108   7.317 -0.1047  0.5253  0.5942
   86CHL1  H11A 8805   0.249   4.999   7.307 -0.0434  0.6681 -1.1498
   86CHL1  H11B 8806   0.201   5.169   7.253 -0.7227 -1.2956 -0.5422
   86CHL1    C9 8807   0.416   5.143   7.271 -0.1426 -0.8068 -0.1317
   86CHL1    H9 8808   0.426   5.252   7.291  0.3136 -0.2761 -3.0851
   86CHL1   C10 8809   0.443   5.128   7.123  0.3305 -0.4006  0.1184
   86CHL1   C19 8810   0.378   4.987   7.081  0.1010  0.4403  0.9908
   86CHL1  H19A 8811   0.393   4.971   6.972  1.7151  0.4094  1.2074
   86CHL1  H19B 8812   0.407   4.898   7.141 -0.7479  2.0129  3.8119
   86CHL1  H19C 8813   0.270   5.010   7.091 -0.7071 -3.2719  1.5747
   86CHL1    C1 8814   0.380   5.245   7.049  0.1303  0.4272 -0.3811
   86CHL1   H1A 8815   0.271   5.256   7.070 -0.5222 -1.0199 -2.7777
   86CHL1   H1B 8816   0.426   5.340   7.084 -1.2605  0.5988  1.0856
   86CHL1    C2 8817   0.399   5.241   6.897  0.4945 -0.4810 -0.6197
   86CHL1   H2A 8818   0.353   5.339   6.872 -1.3909 -0.4520  2.6690
   86CHL1   H2B 8819   0.352   5.165   6.832 -2.8161  0.6989  0.2846
   86CHL1   C20 8820   0.259   5.064   7.806 -0.0044  0.0929  0.2208
   86CHL1   H20 8821   0.230   4.959   7.784  1.2422 -0.4308  1.0309
   86CHL1   C21 8822   0.133   5.157   7.782 -1.1142  0.5478 -0.8267
   86CHL1  H21A 8823   0.159   5.265   7.778  2.6404 -0.3037 -1.8557
   86CHL1  H21B 8824   0.058   5.145   7.863 -2.2483  1.6587 -1.7227
   86CHL1  H21C 8825   0.081   5.119   7.692  0.5573 -2.3669 -0.6512
   86CHL1   C22 8826   0.304   5.080   7.957  0.4943  0.2899  0.2272
   86CHL1  H22A 8827   0.391   5.012   7.973  2.6663  2.4169 -2.1484
   86CHL1  H22B 8828   0.332   5.187   7.964 -1.4916  0.8924 -0.7532
   86CHL1   C23 8829   0.200   5.056   8.067  0.0456 -0.2165  0.2046
   86CHL1  H23A 8830   0.124   5.136   8.054  0.1097 -0.6736 -3.4638
   86CHL1  H23B 8831   0.140   4.964   8.054  1.1090 -0.8356 -0.3538
   86CHL1   C24 8832   0.259   5.064   8.205 -1.0069 -0.2338  0.7121
   86CHL1  H24A 8833   0.337   4.988   8.230 -0.6493 -0.2215 -0.3158
   86CHL1  H24B 8834   0.312   5.161   8.206  1.9054 -1.6972 -2.3763
   86CHL1   C25 8835   0.158   5.062   8.320  0.2822  0.1629  0.2058
   86CHL1   H25 8836   0.077   5.136   8.301  0.5294  0.1255 -1.0078
   86CHL1   C26 8837   0.107   4.916   8.337  0.4103 -0.3604  0.3310
   86CHL1  H26A 8838   0.192   4.854   8.371 -0.5737 -1.5630  0.6271
   86CHL1  H26B 8839   0.032   4.926   8.418  0.8118  3.6791  0.3207
   86CHL1  H26C 8840   0.054   4.873   8.250 -2.3057  1.7162  0.8907
   86CHL1   C27 8841   0.234   5.119   8.439  0.1284  0.5112 -0.0848
   86CHL1  H27A 8842   0.325   5.059   8.462 -0.6312 -0.9357 -0.8496
   86CHL1  H27B 8843   0.267   5.225   8.429  1.0269  0.2060 -0.4171
   86CHL1  H27C 8844   0.172   5.112   8.531 -1.6225  3.4352 -0.9754
   87CHL1    C3 8845   0.813   3.478   6.991  0.5293 -0.7171 -0.1848
   87CHL1    H3 8846   0.705   3.496   7.006  0.0507 -4.5314  1.5885
   87CHL1    O3 8847   0.851   3.513   6.861  0.1791 -0.1380 -0.2370
   87CHL1   H3' 8848   0.938   3.473   6.860 -0.0519 -0.7271  1.5615
   87CHL1    C4 8849   0.893   3.564   7.082 -0.2018 -0.8275 -0.6787
   87CHL1   H4A 8850   1.002   3.557   7.061 -0.1252  1.4231 -1.1227
   87CHL1   H4B 8851   0.867   3.669   7.061 -1.7198 -0.8630  0.9763
   87CHL1    C5 8852   0.874   3.521   7.226 -0.2099  0.0357  0.0716
   87CHL1    C6 8853   0.834   3.607   7.317 -0.1129  0.1691 -0.7089
   87CHL1    H6 8854   0.820   3.713   7.292 -0.3111  1.2398  3.5093
   87CHL1    C7 8855   0.826   3.572   7.465 -0.0767 -0.7187 -0.4263
   87CHL1   H7A 8856   0.873   3.652   7.526 -0.5659 -1.8023  1.4094
   87CHL1   H7B 8857   0.724   3.556   7.505 -0.2738  0.8796 -0.2446
   87CHL1    C8 8858   0.916   3.448   7.504 -1.0084  0.0128  0.0708
   87CHL1    H8 8859   1.021   3.478   7.485 -0.8807 -0.6592 -0.2936
   87CHL1   C14 8860   0.891   3.419   7.645  0.0877 -1.3775 -0.5176
   87CHL1   H14 8861   0.782   3.402   7.656 -0.1417  0.9767  1.3052
   87CHL1   C15 8862   0.921   3.527   7.758  0.5965  0.1115  0.2693
   87CHL1  H15A 8863   1.017   3.580   7.737  0.2884  0.0654 -1.3171
   87CHL1  H15B 8864   0.839   3.600   7.774  2.7370  2.6995 -0.2357
   87CHL1   C16 8865   0.924   3.441   7.883  0.5291  0.4063 -0.2207
   87CHL1  H16A 8866   1.023   3.442   7.933  0.0780 -0.9080  0.7161
   87CHL1  H16B 8867   0.843   3.484   7.946 -1.0464 -0.8895 -1.3166
   87CHL1   C17 8868   0.907   3.291   7.841 -0.2448  0.4169  0.8366
   87CHL1   H17 8869   0.797   3.278   7.836 -0.0379 -0.9295 -0.4880
   87CHL1   C13 8870   0.955   3.286   7.695  0.2789  0.0456 -0.1824
   87CHL1   C18 8871   1.113   3.296   7.692 -0.6434 -0.5838  0.2964
   87CHL1  H18A 8872   1.146   3.366   7.772  0.3660 -1.0433  0.2923
   87CHL1  H18B 8873   1.150   3.195   7.718 -2.7342 -1.2170  0.8683
   87CHL1  H18C 8874   1.150   3.333   7.594 -1.8865 -1.7077 -0.6131
   87CHL1   C12 8875   0.911   3.166   7.608  0.9837  0.2626 -0.2936
   87CHL1  H12A 8876   0.953   3.068   7.638  0.5381 -0.4701 -2.0196
   87CHL1  H12B 8877   0.806   3.162   7.642  1.5084 -0.0213  1.3512
   87CHL1   C11 8878   0.928   3.200   7.462 -0.2437  0.5704 -0.9019
   87CHL1  H11A 8879   1.038   3.204   7.446 -0.2724  0.8049 -1.0438
   87CHL1  H11B 8880   0.880   3.113   7.411 -3.5198  0.3271  2.4176
   87CHL1    C9 8881   0.873   3.334   7.417 -0.3906 -0.6978 -0.1917
   87CHL1    H9 8882   0.762   3.324   7.421 -0.3091 -2.0223 -0.8827
   87CHL1   C10 8883   0.898   3.373   7.263  0.2621 -0.2097 -0.5058
   87CHL1   C19 8884   1.052   3.340   7.229  0.3327 -0.1163 -0.2441
   87CHL1  H19A 8885   1.128   3.371   7.303  2.6881 -0.8623 -2.3025
   87CHL1  H19B 8886   1.058   3.229   7.221  2.1399 -0.0006 -0.5614
   87CHL1  H19C 8887   1.090   3.375   7.131 -1.1031  0.8423 -0.4803
   87CHL1    C1 8888   0.809   3.284   7.169 -0.2254 -1.1522 -0.0251
   87CHL1   H1A 8889   0.835   3.176   7.171  2.8337 -0.4492  1.0954
   87CHL1   H1B 8890   0.702   3.281   7.201 -0.6593 -0.1179 -1.3681
   87CHL1    C2 8891   0.827   3.325   7.014 -0.2157  0.2586  0.1451
   87CHL1   H2A 8892   0.763   3.268   6.943  0.3552 -0.2257  0.0101
   87CHL1   H2B 8893   0.929   3.292   6.985 -0.0940 -0.1582  1.0272
   87CHL1   C20 8894   0.967   3.193   7.935  0.0840 -0.0578  0.0723
   87CHL1   H20 8895   1.071   3.168   7.907 -0.5094 -1.3524 -1.0343
   87CHL1   C21 8896   0.894   3.058   7.915 -0.3043  0.0508  0.2802
   87CHL1  H21A 8897   0.804   3.054   7.980 -1.0644 -2.9836 -0.8583
   87CHL1  H21B 8898   0.967   2.977   7.938  0.4990  0.3027 -1.3030
   87CHL1  H21C 8899   0.868   3.033   7.810  0.3541 -0.3432  0.2070
   87CHL1   C22 8900   0.970   3.236   8.084 -0.2739  0.2589 -0.8664
   87CHL1  H22A 8901   1.060   3.301   8.089 -1.1391  1.3576  0.5756
   87CHL1  H22B 8902   0.876   3.285   8.117  0.5188  0.6418  0.8562
   87CHL1   C23 8903   0.986   3.122   8.189 -0.1124 -0.6973 -0.2801
   87CHL1  H23A 8904   0.898   3.057   8.174 -0.6870  0.3163 -1.4559
   87CHL1  H23B 8905   1.078   3.066   8.164 -0.1677 -0.1694 -1.6866
   87CHL1   C24 8906   0.995   3.175   8.332  0.5404 -0.4772  1.4095
   87CHL1  H24A 8907   1.089   3.234   8.336  1.2183 -1.5421  1.4767
   87CHL1  H24B 8908   0.906   3.236   8.356  0.3118 -0.9156  1.6901
   87CHL1   C25 8909   1.014   3.066   8.438 -0.1520 -0.5839 -1.2378
   87CHL1   H25 8910   1.087   2.995   8.394 -1.9274 -3.0811 -0.2573
   87CHL1   C26 8911   1.080   3.126   8.562  0.9319  0.2453  0.5209
   87CHL1  H26A 8912   1.069   3.054   8.646 -1.3992 -0.9798 -0.7717
   87CHL1  H26B 8913   1.186   3.155   8.550  1.2912 -1.4566 -0.6170
   87CHL1  H26C 8914   1.025   3.218   8.592 -0.2452 -0.1881 -0.2555
   87CHL1   C27 8915   0.885   2.984   8.471 -0.4733 -0.0046 -0.4356
   87CHL1  H27A 8916   0.873   2.901   8.398 -0.7356  1.9294 -2.6550
   87CHL1  H27B 8917   0.897   2.928   8.567 -1.2780 -0.5351 -0.6441
   87CHL1  H27C 8918   0.792   3.044   8.473  0.3539  1.3024 -0.3749
   88CHL1    C3 8919   5.168   2.529   6.846 -0.3354  0.6612 -0.1265
   88CHL1    H3 8920   5.179   2.631   6.889 -1.4289  0.7060  0.0729
   88CHL1    O3 8921   5.207   2.529   6.709 -0.4479 -0.5573 -0.3519
   88CHL1   H3' 8922   5.165   2.453   6.666 -0.3412  0.5122 -2.4131
   88CHL1    C4 8923   5.243   2.417   6.914 -0.7350  0.4814 -0.8927
   88CHL1   H4A 8924   5.240   2.329   6.846  0.8336 -0.8451  0.6947
   88CHL1   H4B 8925   5.348   2.451   6.922  0.4379 -3.2213  0.4944
   88CHL1    C5 8926   5.191   2.379   7.052  0.5708  0.1812  1.2826
   88CHL1    C6 8927   5.273   2.370   7.154  0.2559 -0.1504 -0.3034
   88CHL1    H6 8928   5.376   2.402   7.135  0.1468  0.0184 -0.6128
   88CHL1    C7 8929   5.236   2.335   7.293 -0.5453  0.8940 -0.0952
   88CHL1   H7A 8930   5.311   2.267   7.338 -0.8319  1.3356  1.0889
   88CHL1   H7B 8931   5.242   2.431   7.349  1.5688 -0.5640  2.3212
   88CHL1    C8 8932   5.092   2.281   7.305  0.6564  0.2520 -0.0279
   88CHL1    H8 8933   5.101   2.177   7.267  0.6344  0.2707 -0.0844
   88CHL1   C14 8934   5.038   2.292   7.447 -0.4345  0.6846 -0.2342
   88CHL1   H14 8935   5.015   2.398   7.472 -1.3254  1.2134 -3.1022
   88CHL1   C15 8936   5.128   2.238   7.562  0.2114 -0.1693 -0.0703
   88CHL1  H15A 8937   5.176   2.141   7.536  0.4162 -0.2191  0.4772
   88CHL1  H15B 8938   5.199   2.320   7.587 -2.7858  2.8141 -1.0114
   88CHL1   C16 8939   5.030   2.205   7.669  0.0518 -0.1816 -0.3210
   88CHL1  H16A 8940   5.042   2.100   7.704  1.2134 -0.1436 -0.5846
   88CHL1  H16B 8941   5.052   2.269   7.758 -2.1872 -0.0288  0.1610
   88CHL1   C17 8942   4.879   2.221   7.620  0.3638  0.1270 -0.5010
   88CHL1   H17 8943   4.832   2.320   7.640 -1.3496 -0.0733 -3.1517
   88CHL1   C13 8944   4.902   2.215   7.463  0.4743  0.3919 -0.5603
   88CHL1   C18 8945   4.918   2.070   7.413 -0.4367 -0.0962  0.0545
   88CHL1  H18A 8946   4.824   2.014   7.431 -1.4608  0.9828 -1.6882
   88CHL1  H18B 8947   4.931   2.058   7.303  0.7248  0.0151  0.1736
   88CHL1  H18C 8948   5.011   2.023   7.451 -0.2852  0.4873  0.4181
   88CHL1   C12 8949   4.796   2.285   7.376 -0.7648 -0.5638 -0.0050
   88CHL1  H12A 8950   4.698   2.234   7.387  0.6104 -2.8397  1.8981
   88CHL1  H12B 8951   4.786   2.391   7.410 -2.6614 -0.2432 -1.4295
   88CHL1   C11 8952   4.843   2.308   7.233  0.8937  0.2662  0.3324
   88CHL1  H11A 8953   4.833   2.207   7.186  0.7626  0.4541 -0.0417
   88CHL1  H11B 8954   4.766   2.363   7.176  1.0161  1.0353  0.9000
   88CHL1    C9 8955   4.990   2.361   7.214  0.3199  0.6472 -0.0037
   88CHL1    H9 8956   4.998   2.464   7.253  0.0171  0.5871  0.2165
   88CHL1   C10 8957   5.036   2.366   7.068  0.2866  0.6789 -0.6496
   88CHL1   C19 8958   5.008   2.231   6.997 -0.1690  0.2589 -0.0459
   88CHL1  H19A 8959   4.900   2.218   6.973 -0.3094  0.5998  0.3888
   88CHL1  H19B 8960   5.065   2.224   6.902 -0.4704 -1.2652 -0.1422
   88CHL1  H19C 8961   5.043   2.148   7.063 -0.2292  0.8445  0.7309
   88CHL1    C1 8962   4.963   2.485   6.988 -0.2668 -0.4349  0.4277
   88CHL1   H1A 8963   4.852   2.474   6.993 -0.2197 -0.2862  2.1442
   88CHL1   H1B 8964   4.994   2.573   7.049 -1.6947  0.8466 -0.6461
   88CHL1    C2 8965   5.014   2.499   6.852  0.0181 -0.0836 -0.4003
   88CHL1   H2A 8966   4.961   2.569   6.783  1.4133  0.0469 -1.3640
   88CHL1   H2B 8967   4.996   2.402   6.800 -1.0305  0.3529 -0.8536
   88CHL1   C20 8968   4.788   2.124   7.686  0.5726 -0.7095  0.0944
   88CHL1   H20 8969   4.821   2.020   7.664  0.9859 -0.4907 -0.3361
   88CHL1   C21 8970   4.647   2.131   7.637  0.2346 -0.1749 -0.1276
   88CHL1  H21A 8971   4.572   2.091   7.708 -0.3618  0.2294 -0.5248
   88CHL1  H21B 8972   4.640   2.079   7.538  1.6279  0.3901 -0.5411
   88CHL1  H21C 8973   4.612   2.235   7.625 -1.4706 -0.6724  0.3783
   88CHL1   C22 8974   4.778   2.149   7.839  0.1622 -0.3253  0.1813
   88CHL1  H22A 8975   4.879   2.170   7.881 -0.7384  1.1923  1.6455
   88CHL1  H22B 8976   4.705   2.230   7.858 -0.4614 -1.2773  1.9843
   88CHL1   C23 8977   4.738   2.032   7.936 -0.3297 -0.0416 -0.8489
   88CHL1  H23A 8978   4.734   2.069   8.040 -1.0659  0.6083 -1.1056
   88CHL1  H23B 8979   4.634   2.000   7.915 -0.3604 -1.9170  1.9642
   88CHL1   C24 8980   4.841   1.919   7.932  0.5632 -0.2089  0.8584
   88CHL1  H24A 8981   4.839   1.873   7.831 -2.4968 -0.7567  1.1321
   88CHL1  H24B 8982   4.942   1.964   7.931 -0.1099  1.3606  2.2487
   88CHL1   C25 8983   4.846   1.823   8.046 -0.2122  1.2025 -0.2541
   88CHL1   H25 8984   4.881   1.889   8.127 -1.8546  1.8169 -0.0290
   88CHL1   C26 8985   4.711   1.761   8.067  0.0903  0.2382  0.2464
   88CHL1  H26A 8986   4.640   1.846   8.080 -0.2455 -0.3051  1.9418
   88CHL1  H26B 8987   4.693   1.697   7.977  2.4162  1.3287 -1.0509
   88CHL1  H26C 8988   4.723   1.696   8.155  2.2905  0.8706  0.4545
   88CHL1   C27 8989   4.952   1.716   8.023  0.4327 -0.6896 -0.1543
   88CHL1  H27A 8990   5.049   1.766   8.004 -0.2167  1.2420  1.4396
   88CHL1  H27B 8991   4.946   1.642   8.105  1.0165  1.8286  2.2296
   88CHL1  H27C 8992   4.933   1.659   7.929 -1.1051 -2.4440  1.1939
   89CHL1    C3 8993   0.746   4.571   6.944  0.3644  0.0086  0.1176
   89CHL1    H3 8994   0.795   4.473   6.960  0.9148  0.9144  4.4961
   89CHL1    O3 8995   0.759   4.611   6.809 -0.4588  0.5130  0.0064
   89CHL1   H3' 8996   0.844   4.582   6.774 -2.0778 -0.6328 -3.1842
   89CHL1    C4 8997   0.614   4.581   7.000  0.4053 -0.1543 -0.2565
   89CHL1   H4A 8998   0.574   4.684   6.989  1.6302  0.3364 -0.1421
   89CHL1   H4B 8999   0.547   4.525   6.929  2.4703 -1.2287 -1.4157
   89CHL1    C5 9000   0.603   4.528   7.140 -0.1944 -0.4184  0.5716
   89CHL1    C6 9001   0.518   4.429   7.171 -0.8903  0.2384 -0.0523
   89CHL1    H6 9002   0.452   4.392   7.091 -1.8825  1.1381  0.3274
   89CHL1    C7 9003   0.482   4.374   7.307 -0.0618 -0.6867  0.2351
   89CHL1   H7A 9004   0.375   4.378   7.334 -1.1710  0.4600 -3.8941
   89CHL1   H7B 9005   0.525   4.272   7.309 -0.5908 -1.0085 -2.7061
   89CHL1    C8 9006   0.549   4.470   7.411 -0.0327  0.6174 -0.5012
   89CHL1    H8 9007   0.490   4.564   7.420  1.5255  1.7033 -1.3888
   89CHL1   C14 9008   0.551   4.391   7.538  0.5411 -0.4257  0.5210
   89CHL1   H14 9009   0.608   4.300   7.510  0.7875 -0.2977  0.6049
   89CHL1   C15 9010   0.420   4.332   7.590  0.7008 -0.7821 -0.6383
   89CHL1  H15A 9011   0.336   4.401   7.567  0.1692 -0.9291  0.8076
   89CHL1  H15B 9012   0.392   4.240   7.534 -2.4876 -0.2527  0.0093
   89CHL1   C16 9013   0.436   4.307   7.738  0.1236 -0.3432  0.1256
   89CHL1  H16A 9014   0.349   4.349   7.794  0.6771  1.3952 -0.2737
   89CHL1  H16B 9015   0.433   4.197   7.750 -0.3150 -0.2278  1.1493
   89CHL1   C17 9016   0.575   4.373   7.775  0.2804 -0.2013 -0.5494
   89CHL1   H17 9017   0.643   4.285   7.769 -0.6809 -0.9603 -0.5254
   89CHL1   C13 9018   0.612   4.463   7.660 -0.2998 -0.2784 -0.0259
   89CHL1   C18 9019   0.545   4.598   7.684  0.6279 -0.6094 -0.2272
   89CHL1  H18A 9020   0.437   4.590   7.709 -0.1372 -2.4000 -3.6866
   89CHL1  H18B 9021   0.591   4.661   7.763 -1.6839 -0.1877  0.8354
   89CHL1  H18C 9022   0.543   4.668   7.598  3.0600 -0.4411 -0.1783
   89CHL1   C12 9023   0.765   4.478   7.623  0.1602  0.6874 -0.3084
   89CHL1  H12A 9024   0.820   4.523   7.708  1.3605  1.4396 -1.4572
   89CHL1  H12B 9025   0.806   4.377   7.606  0.3559  0.6581  0.3433
   89CHL1   C11 9026   0.786   4.556   7.491  0.3271  0.3220 -0.5344
   89CHL1  H11A 9027   0.737   4.653   7.513  0.1314 -0.0930  0.9056
   89CHL1  H11B 9028   0.892   4.574   7.462  0.9179  1.4708  2.2710
   89CHL1    C9 9029   0.695   4.508   7.372 -0.0855 -0.5914 -0.4163
   89CHL1    H9 9030   0.741   4.410   7.348  1.2975  0.0926 -0.6625
   89CHL1   C10 9031   0.697   4.595   7.243  0.4686 -0.5419  0.2107
   89CHL1   C19 9032   0.654   4.742   7.266 -0.5076  0.1106 -0.1625
   89CHL1  H19A 9033   0.730   4.786   7.334 -0.3298  3.0082 -2.1340
   89CHL1  H19B 9034   0.650   4.803   7.173 -0.7818 -1.0512 -0.9185
   89CHL1  H19C 9035   0.552   4.738   7.310 -0.3248  1.6293  0.4347
   89CHL1    C1 9036   0.834   4.594   7.170 -0.3961  0.9190 -0.6600
   89CHL1   H1A 9037   0.913   4.649   7.226  0.3538  0.0894 -0.8917
   89CHL1   H1B 9038   0.866   4.490   7.148 -1.7319 -0.1262  2.1691
   89CHL1    C2 9039   0.840   4.664   7.034 -0.6172 -0.1498 -0.3566
   89CHL1   H2A 9040   0.943   4.655   6.993  0.1176  1.9922  0.9129
   89CHL1   H2B 9041   0.794   4.765   7.036  2.2687  1.2817 -2.0334
   89CHL1   C20 9042   0.576   4.432   7.923  0.0066  0.0848  0.5312
   89CHL1   H20 9043   0.508   4.520   7.924 -0.1349 -0.0242  0.3305
   89CHL1   C21 9044   0.719   4.483   7.946  0.3401  0.3004  0.2498
   89CHL1  H21A 9045   0.802   4.414   7.916 -0.2003 -0.1874 -0.1353
   89CHL1  H21B 9046   0.739   4.496   8.054 -1.0868 -1.3318  0.7418
   89CHL1  H21C 9047   0.727   4.590   7.920 -2.4428  0.5979  0.5314
   89CHL1   C22 9048   0.535   4.334   8.032 -0.2833 -0.7026  0.1477
   89CHL1  H22A 9049   0.481   4.245   7.994 -1.8899  1.3686 -2.5217
   89CHL1  H22B 9050   0.634   4.292   8.061 -0.4598 -0.3858  1.2408
   89CHL1   C23 9051   0.473   4.402   8.152  0.1264 -0.1160 -0.2483
   89CHL1  H23A 9052   0.447   4.338   8.239 -2.0533  0.7668 -0.2361
   89CHL1  H23B 9053   0.556   4.465   8.191  0.9904 -0.6341 -1.2121
   89CHL1   C24 9054   0.345   4.482   8.124  0.5246 -0.2139 -0.0411
   89CHL1  H24A 9055   0.355   4.582   8.075 -0.1754  0.4443  1.1534
   89CHL1  H24B 9056   0.280   4.412   8.067  1.0665  0.0474 -1.0067
   89CHL1   C25 9057   0.279   4.515   8.260  0.9395  1.1072  0.9065
   89CHL1   H25 9058   0.273   4.419   8.315  3.9653  0.2473 -0.1518
   89CHL1   C26 9059   0.365   4.610   8.339 -0.4566 -0.0116  0.1595
   89CHL1  H26A 9060   0.311   4.670   8.416 -0.2017 -0.0940  0.4087
   89CHL1  H26B 9061   0.454   4.554   8.378  0.0487  0.7355  0.0885
   89CHL1  H26C 9062   0.409   4.688   8.274 -0.5871  0.3449  0.4934
   89CHL1   C27 9063   0.137   4.570   8.239  0.7871  0.0846  0.9579
   89CHL1  H27A 9064   0.059   4.491   8.232  0.0512  0.8676  0.1419
   89CHL1  H27B 9065   0.117   4.625   8.334  0.5551  3.5157 -0.9740
   89CHL1  H27C 9066   0.128   4.638   8.151  0.0702 -1.6788 -0.3605
   90CHL1    C3 9067   1.176   6.698   6.815  0.7354 -0.5686  0.2684
   90CHL1    H3 9068   1.279   6.685   6.776  1.0932  2.6121  0.0095
   90CHL1    O3 9069   1.095   6.748   6.706 -0.2844 -0.0055  0.1597
   90CHL1   H3' 9070   1.114   6.841   6.699  0.3704 -0.0704  1.1287
   90CHL1    C4 9071   1.118   6.562   6.869 -0.4280 -0.1976  0.0431
   90CHL1   H4A 9072   1.014   6.582   6.904  0.4316  0.6103  2.1576
   90CHL1   H4B 9073   1.112   6.492   6.783  2.9137 -1.0340  0.4472
   90CHL1    C5 9074   1.192   6.511   6.983 -0.5847 -0.1395 -0.2101
   90CHL1    C6 9075   1.242   6.389   6.968 -0.1753 -0.3305  0.2362
   90CHL1    H6 9076   1.229   6.321   6.883  0.9962 -1.2339  0.7501
   90CHL1    C7 9077   1.327   6.324   7.075 -0.8602  0.0693  0.9084
   90CHL1   H7A 9078   1.285   6.223   7.093  0.9153 -0.8996 -0.1241
   90CHL1   H7B 9079   1.437   6.317   7.055 -1.2574 -0.7900 -1.0848
   90CHL1    C8 9080   1.311   6.400   7.213  0.3547  0.3956  0.3403
   90CHL1    H8 9081   1.208   6.376   7.246 -0.2886  2.9662  0.3722
   90CHL1   C14 9082   1.419   6.346   7.312  0.9258 -0.2752  0.0985
   90CHL1   H14 9083   1.520   6.373   7.275  0.5649 -1.0888 -1.5433
   90CHL1   C15 9084   1.415   6.192   7.345  0.4128  0.3418  0.3652
   90CHL1  H15A 9085   1.308   6.163   7.357  0.2428  1.0012  0.4834
   90CHL1  H15B 9086   1.466   6.138   7.262 -1.3145  0.7869 -1.0379
   90CHL1   C16 9087   1.498   6.177   7.468  0.1335 -0.1329 -0.0756
   90CHL1  H16A 9088   1.448   6.116   7.546  3.1774 -0.5301  1.6598
   90CHL1  H16B 9089   1.600   6.137   7.448 -0.4049 -1.5146 -0.1445
   90CHL1   C17 9090   1.518   6.326   7.521 -0.0201 -0.0432 -0.1063
   90CHL1   H17 9091   1.615   6.358   7.477 -0.0557  1.7229  1.0074
   90CHL1   C13 9092   1.415   6.409   7.451 -0.7820 -0.2217 -0.5404
   90CHL1   C18 9093   1.283   6.390   7.531  0.0192 -0.4891  0.6398
   90CHL1  H18A 9094   1.302   6.314   7.610  1.2716 -0.1063  0.7237
   90CHL1  H18B 9095   1.247   6.483   7.579  0.3930 -0.6856  1.3044
   90CHL1  H18C 9096   1.198   6.359   7.466  1.1493  0.1520 -1.1828
   90CHL1   C12 9097   1.432   6.564   7.436  0.3987 -0.5086 -0.0884
   90CHL1  H12A 9098   1.410   6.617   7.531  2.2966  0.7610 -0.3447
   90CHL1  H12B 9099   1.539   6.576   7.409  0.6071  0.0335  0.9530
   90CHL1   C11 9100   1.336   6.628   7.327 -0.1115 -0.6692 -0.1221
   90CHL1  H11A 9101   1.236   6.617   7.375  1.1467 -1.5292  2.3916
   90CHL1  H11B 9102   1.356   6.737   7.322 -2.5940 -0.0965  1.3905
   90CHL1    C9 9103   1.326   6.552   7.190 -0.6778  0.7977 -0.0604
   90CHL1    H9 9104   1.423   6.567   7.137 -0.7987  0.2373 -0.4441
   90CHL1   C10 9105   1.215   6.609   7.098 -0.4551  0.6363  0.0089
   90CHL1   C19 9106   1.080   6.615   7.168  0.1116  0.0612 -0.4562
   90CHL1  H19A 9107   1.002   6.653   7.098 -1.1647 -0.0974  0.8419
   90CHL1  H19B 9108   1.038   6.521   7.211  2.9250 -1.5256 -1.1023
   90CHL1  H19C 9109   1.071   6.692   7.248 -2.4786 -0.1213 -0.5066
   90CHL1    C1 9110   1.265   6.753   7.043 -0.3810  0.2870 -0.7853
   90CHL1   H1A 9111   1.280   6.824   7.127 -1.0578 -0.6357  0.1270
   90CHL1   H1B 9112   1.364   6.727   6.999  0.9178  1.4252  1.4084
   90CHL1    C2 9113   1.190   6.809   6.926  0.4386  0.8703 -0.0876
   90CHL1   H2A 9114   1.224   6.909   6.893  1.4175  0.6181  0.1486
   90CHL1   H2B 9115   1.088   6.826   6.968  1.3689  1.0344  2.1872
   90CHL1   C20 9116   1.549   6.337   7.667 -0.2761  0.7830  0.3905
   90CHL1   H20 9117   1.454   6.325   7.722 -0.1986 -0.3288  0.2817
   90CHL1   C21 9118   1.616   6.474   7.702  0.5866 -0.1666 -0.4015
   90CHL1  H21A 9119   1.723   6.479   7.671  1.0266 -0.2492  1.0338
   90CHL1  H21B 9120   1.619   6.495   7.811 -0.3052  1.2474 -0.6452
   90CHL1  H21C 9121   1.557   6.560   7.664  2.8742  1.2484 -0.8493
   90CHL1   C22 9122   1.643   6.224   7.724 -0.4955 -0.7799  0.7310
   90CHL1  H22A 9123   1.590   6.128   7.708  1.6721 -1.6926 -1.4503
   90CHL1  H22B 9124   1.746   6.233   7.684 -0.2949 -0.3849  1.3330
   90CHL1   C23 9125   1.666   6.233   7.878 -0.1128  0.1202  0.3340
   90CHL1  H23A 9126   1.718   6.327   7.905 -0.2138  0.4785 -0.7086
   90CHL1  H23B 9127   1.567   6.231   7.928 -0.5720  1.4425 -0.5107
   90CHL1   C24 9128   1.748   6.112   7.936 -0.1345 -0.4676  0.0369
   90CHL1  H24A 9129   1.698   6.014   7.944  0.8222 -0.9321  0.3980
   90CHL1  H24B 9130   1.840   6.098   7.874 -0.9193  1.2243 -1.5859
   90CHL1   C25 9131   1.793   6.141   8.079  0.5302 -0.5719  0.0636
   90CHL1   H25 9132   1.839   6.242   8.084  0.7834 -0.6895  0.0971
   90CHL1   C26 9133   1.675   6.130   8.175 -0.1559  0.2442  0.5563
   90CHL1  H26A 9134   1.712   6.140   8.279  3.0093 -1.8373 -0.3035
   90CHL1  H26B 9135   1.607   6.213   8.147  0.5776  0.5643 -0.3067
   90CHL1  H26C 9136   1.638   6.027   8.156 -0.0519  0.3471 -0.2570
   90CHL1   C27 9137   1.911   6.040   8.118  0.5032  0.2756  0.0923
   90CHL1  H27A 9138   1.997   6.060   8.050 -0.3754  0.5195 -0.9692
   90CHL1  H27B 9139   1.956   6.059   8.217  0.5292  0.2642  0.0840
   90CHL1  H27C 9140   1.876   5.935   8.104 -2.7366  1.3304 -0.1544
   91CHL1    C3 9141   2.668   1.604   7.180 -0.3474  0.1599  0.3358
   91CHL1    H3 9142   2.659   1.713   7.198  1.3206  0.6429 -1.6011
   91CHL1    O3 9143   2.672   1.595   7.041 -0.4178  0.2908  0.2006
   91CHL1   H3' 9144   2.709   1.507   7.040  0.5772  0.6777  1.4663
   91CHL1    C4 9145   2.797   1.550   7.244 -0.6195  0.5995 -0.8498
   91CHL1   H4A 9146   2.809   1.446   7.206 -0.2674 -1.0237  3.4591
   91CHL1   H4B 9147   2.888   1.604   7.210  0.9269 -0.5540  1.3232
   91CHL1    C5 9148   2.792   1.541   7.389  0.3976 -0.0183  0.6982
   91CHL1    C6 9149   2.882   1.590   7.475 -0.4396 -0.1334 -0.9755
   91CHL1    H6 9150   2.969   1.639   7.429  0.9037  0.0754  1.6823
   91CHL1    C7 9151   2.880   1.597   7.621  0.5114 -0.4402 -1.0573
   91CHL1   H7A 9152   2.975   1.562   7.667 -0.2670 -2.9222 -1.2645
   91CHL1   H7B 9153   2.859   1.702   7.651  0.4588 -1.0998  1.2914
   91CHL1    C8 9154   2.775   1.499   7.679 -1.1095  0.0285  0.5197
   91CHL1    H8 9155   2.807   1.394   7.664 -1.2806 -0.0786  0.8805
   91CHL1   C14 9156   2.758   1.528   7.827 -0.2641  0.2152 -0.7815
   91CHL1   H14 9157   2.710   1.628   7.832  0.6131  0.6474 -0.9268
   91CHL1   C15 9158   2.879   1.524   7.923 -0.3108  0.0896  0.0086
   91CHL1  H15A 9159   2.944   1.440   7.891 -2.1551 -0.5735 -2.1477
   91CHL1  H15B 9160   2.940   1.617   7.919  0.9164 -0.7475 -1.6529
   91CHL1   C16 9161   2.816   1.506   8.063 -0.4825  0.3619 -0.8394
   91CHL1  H16A 9162   2.859   1.420   8.120 -1.4207  1.2046  1.1893
   91CHL1  H16B 9163   2.833   1.600   8.119 -1.6679 -1.0266  1.9785
   91CHL1   C17 9164   2.660   1.488   8.043 -0.0857  0.3325 -0.1086
   91CHL1   H17 9165   2.622   1.592   8.038 -0.6353  0.1006 -0.8255
   91CHL1   C13 9166   2.651   1.439   7.895 -0.0841 -0.4844  0.2559
   91CHL1   C18 9167   2.686   1.290   7.877  0.0515  0.3790 -0.7741
   91CHL1  H18A 9168   2.619   1.223   7.936 -2.3614  1.9455 -1.6925
   91CHL1  H18B 9169   2.676   1.259   7.771 -0.6902  1.7751 -1.1195
   91CHL1  H18C 9170   2.789   1.267   7.912  0.0739 -1.0258 -1.7381
   91CHL1   C12 9171   2.516   1.469   7.820 -0.0780  0.2004  0.0903
   91CHL1  H12A 9172   2.428   1.407   7.850 -0.1539  0.8077  1.1550
   91CHL1  H12B 9173   2.490   1.575   7.838  0.9748  0.8962 -2.2737
   91CHL1   C11 9174   2.525   1.448   7.671 -0.5318 -0.1141  0.1574
   91CHL1  H11A 9175   2.527   1.337   7.658  0.1899 -0.1901  0.8466
   91CHL1  H11B 9176   2.432   1.483   7.622 -1.0018  1.2870  2.0164
   91CHL1    C9 9177   2.646   1.514   7.599 -0.6550 -0.7936 -0.2494
   91CHL1    H9 9178   2.612   1.620   7.598  0.5903 -0.3943 -1.0366
   91CHL1   C10 9179   2.660   1.478   7.449  0.3135 -0.4148 -0.2548
   91CHL1   C19 9180   2.670   1.326   7.424 -0.9488  0.4214  0.1320
   91CHL1  H19A 9181   2.572   1.278   7.448 -3.1944  3.3553 -2.6918
   91CHL1  H19B 9182   2.679   1.302   7.316 -1.3717 -0.5399  0.3020
   91CHL1  H19C 9183   2.753   1.270   7.471 -0.7051 -1.0734 -1.9791
   91CHL1    C1 9184   2.534   1.537   7.380  0.4121 -0.2575  0.5584
   91CHL1   H1A 9185   2.439   1.485   7.403  0.1247 -0.5835 -1.2859
   91CHL1   H1B 9186   2.512   1.641   7.413 -0.0293 -0.3460  0.5371
   91CHL1    C2 9187   2.545   1.531   7.224 -0.0426 -0.0516 -0.2486
   91CHL1   H2A 9188   2.464   1.592   7.179  0.7288  1.1785  0.0261
   91CHL1   H2B 9189   2.540   1.427   7.184  0.0878 -0.5668  1.0641
   91CHL1   C20 9190   2.599   1.418   8.162 -0.3387 -0.2575 -0.4369
   91CHL1   H20 9191   2.632   1.315   8.187  0.4459 -0.1953 -1.2117
   91CHL1   C21 9192   2.452   1.395   8.134  0.1518 -0.0819 -0.6972
   91CHL1  H21A 9193   2.432   1.331   8.045 -3.1948 -1.9932  1.3180
   91CHL1  H21B 9194   2.419   1.495   8.098  0.3586 -0.3760 -1.7212
   91CHL1  H21C 9195   2.389   1.358   8.218 -0.3323  0.7314 -0.6936
   91CHL1   C22 9196   2.610   1.508   8.289  0.2874 -0.2501  0.5695
   91CHL1  H22A 9197   2.706   1.564   8.286 -0.2032  0.5907  0.3752
   91CHL1  H22B 9198   2.530   1.585   8.293  1.3062  1.0189 -2.1143
   91CHL1   C23 9199   2.591   1.431   8.415 -0.7461  0.5286 -0.0697
   91CHL1  H23A 9200   2.593   1.513   8.491 -3.0295 -0.2231  0.8376
   91CHL1  H23B 9201   2.492   1.383   8.432  0.4259 -2.3192 -0.9987
   91CHL1   C24 9202   2.700   1.332   8.444  0.4979 -0.1713 -0.5708
   91CHL1  H24A 9203   2.657   1.240   8.401  1.2952 -1.9518  2.2831
   91CHL1  H24B 9204   2.795   1.355   8.391  1.5093 -1.7485  0.4797
   91CHL1   C25 9205   2.737   1.312   8.597  1.0872  0.3238  0.2642
   91CHL1   H25 9206   2.793   1.399   8.637 -0.6926  0.6338  2.1522
   91CHL1   C26 9207   2.615   1.277   8.683 -0.6341 -0.6002 -0.1814
   91CHL1  H26A 9208   2.567   1.191   8.631  0.5538 -0.9947 -0.6359
   91CHL1  H26B 9209   2.643   1.256   8.788 -1.6263 -0.0282  0.2090
   91CHL1  H26C 9210   2.540   1.359   8.678 -0.2154 -0.1751  0.5139
   91CHL1   C27 9211   2.835   1.202   8.603 -1.0928 -0.3639  0.0075
   91CHL1  H27A 9212   2.857   1.175   8.709  0.1391  0.1195 -0.1241
   91CHL1  H27B 9213   2.788   1.112   8.556 -0.2074 -0.3739 -0.8648
   91CHL1  H27C 9214   2.933   1.222   8.555 -1.5104  0.7975 -0.3712
   92CHL1    C3 9215   5.713   3.035   6.802  0.2726 -0.4115  0.5595
   92CHL1    H3 9216   5.644   2.952   6.826 -0.7031 -0.2831 -1.7103
   92CHL1    O3 9217   5.680   3.096   6.675  0.6430 -0.4082  0.9673
   92CHL1   H3' 9218   5.726   3.179   6.679 -2.2788  1.2796  0.8954
   92CHL1    C4 9219   5.694   3.148   6.900 -0.0528 -0.6184  0.1299
   92CHL1   H4A 9220   5.753   3.237   6.869 -1.1437  0.2449  0.5299
   92CHL1   H4B 9221   5.593   3.192   6.888  1.6742  3.1900 -1.1369
   92CHL1    C5 9222   5.728   3.091   7.038 -0.2679  0.1202 -0.7204
   92CHL1    C6 9223   5.635   3.107   7.130 -0.6814 -0.1478 -0.0770
   92CHL1    H6 9224   5.542   3.160   7.104 -0.3799  1.0514  1.1869
   92CHL1    C7 9225   5.654   3.064   7.271  0.2485 -0.5996  0.2074
   92CHL1   H7A 9226   5.625   3.144   7.342 -0.5258 -0.2298 -0.5123
   92CHL1   H7B 9227   5.591   2.975   7.293 -1.8961  1.1516  1.2823
   92CHL1    C8 9228   5.792   3.021   7.308  0.0650 -0.8318  0.8452
   92CHL1    H8 9229   5.853   3.113   7.320 -0.7256  0.2043 -2.5066
   92CHL1   C14 9230   5.783   2.937   7.435  0.4522 -0.5544  0.1448
   92CHL1   H14 9231   5.733   2.843   7.404 -1.3620  1.4110 -3.0923
   92CHL1   C15 9232   5.702   2.992   7.557 -0.7077  0.4699 -0.5058
   92CHL1  H15A 9233   5.723   3.101   7.567 -2.2460  0.7542 -0.2593
   92CHL1  H15B 9234   5.592   2.985   7.539 -0.8101  0.8548 -0.0566
   92CHL1   C16 9235   5.751   2.905   7.675  0.3075 -0.1440 -0.9602
   92CHL1  H16A 9236   5.782   2.968   7.761 -1.9482 -0.0774 -0.1519
   92CHL1  H16B 9237   5.667   2.836   7.700  0.5535  0.6391  2.2833
   92CHL1   C17 9238   5.870   2.823   7.621 -0.5794  0.8830 -0.0866
   92CHL1   H17 9239   5.829   2.732   7.571  2.9334 -1.4423  1.0763
   92CHL1   C13 9240   5.912   2.905   7.496 -0.4576 -0.4585  0.7106
   92CHL1   C18 9241   5.990   3.024   7.551  0.3982 -0.3187  0.0564
   92CHL1  H18A 9242   6.087   2.997   7.598  0.7516 -1.0985 -1.1181
   92CHL1  H18B 9243   6.023   3.095   7.472  1.2115 -1.1586 -0.3770
   92CHL1  H18C 9244   5.937   3.083   7.629 -0.1620  1.3767 -1.5502
   92CHL1   C12 9245   6.000   2.827   7.386  0.1426 -0.8230 -0.9070
   92CHL1  H12A 9246   6.098   2.819   7.437 -0.9433 -2.9918  0.9759
   92CHL1  H12B 9247   5.969   2.724   7.357 -0.9866 -0.8678  0.3937
   92CHL1   C11 9248   6.010   2.915   7.262  0.9912 -0.0842  1.0003
   92CHL1  H11A 9249   6.071   3.005   7.284 -0.2216  0.5790  1.7193
   92CHL1  H11B 9250   6.061   2.859   7.180  0.7699  2.3491 -0.8442
   92CHL1    C9 9251   5.874   2.948   7.198  0.6237 -0.2910 -0.0883
   92CHL1    H9 9252   5.817   2.853   7.188 -0.6188  0.6379 -2.2188
   92CHL1   C10 9253   5.868   3.028   7.061 -0.3926  0.2968 -0.8374
   92CHL1   C19 9254   5.977   3.140   7.056  0.1406  0.4115  0.2571
   92CHL1  H19A 9255   5.982   3.181   6.953 -2.6709  1.9723  0.6773
   92CHL1  H19B 9256   5.967   3.214   7.138  1.6231 -0.1773  0.9830
   92CHL1  H19C 9257   6.078   3.096   7.055  1.3195  2.9853 -1.6136
   92CHL1    C1 9258   5.893   2.927   6.945 -0.3657  0.0718 -0.5630
   92CHL1   H1A 9259   6.001   2.899   6.950 -1.1974 -3.1935  1.0390
   92CHL1   H1B 9260   5.845   2.830   6.972 -2.2034  1.1209  0.0364
   92CHL1    C2 9261   5.849   2.965   6.803 -0.6293  0.8208 -0.2797
   92CHL1   H2A 9262   5.850   2.870   6.745 -1.4841  1.2020 -0.9312
   92CHL1   H2B 9263   5.926   3.033   6.760 -0.0088  1.1590  1.3289
   92CHL1   C20 9264   5.976   2.779   7.728 -0.1676 -0.5372  0.7743
   92CHL1   H20 9265   6.072   2.752   7.679 -0.9492  1.0735 -1.7303
   92CHL1   C21 9266   5.910   2.641   7.784  0.0598 -0.2113  0.5677
   92CHL1  H21A 9267   5.986   2.599   7.854 -0.0986 -1.9074 -0.2576
   92CHL1  H21B 9268   5.898   2.572   7.698 -0.1734 -2.5115  2.3910
   92CHL1  H21C 9269   5.811   2.652   7.833 -0.4167 -2.9051  0.2865
   92CHL1   C22 9270   6.005   2.889   7.837  0.1759  0.4950  0.5400
   92CHL1  H22A 9271   5.999   2.997   7.810 -1.5192  0.3553  0.3352
   92CHL1  H22B 9272   5.921   2.874   7.908 -0.0299 -0.3097  0.1188
   92CHL1   C23 9273   6.125   2.861   7.926  0.1571  0.6753 -0.8562
   92CHL1  H23A 9274   6.103   2.769   7.983 -1.3014  1.6232  0.1737
   92CHL1  H23B 9275   6.205   2.845   7.852 -0.4593  0.3790 -1.4561
   92CHL1   C24 9276   6.141   2.966   8.032  0.3554  0.2706 -0.9909
   92CHL1  H24A 9277   6.153   3.069   7.992 -0.1035  0.5615 -0.3756
   92CHL1  H24B 9278   6.050   2.968   8.095  0.0873  2.0532 -1.4158
   92CHL1   C25 9279   6.263   2.942   8.118 -0.3167 -0.4222  0.1818
   92CHL1   H25 9280   6.350   2.928   8.050  0.9122 -1.2032  1.8717
   92CHL1   C26 9281   6.287   3.067   8.204  0.3498 -0.5006  0.0646
   92CHL1  H26A 9282   6.387   3.049   8.250  1.3795 -2.3208 -2.7467
   92CHL1  H26B 9283   6.291   3.161   8.145 -1.0839  0.4350  1.4088
   92CHL1  H26C 9284   6.216   3.068   8.290  0.3132 -0.7832  0.0390
   92CHL1   C27 9285   6.271   2.825   8.220 -0.0772 -0.3503  0.0680
   92CHL1  H27A 9286   6.377   2.824   8.253 -0.2837 -0.9866  0.7298
   92CHL1  H27B 9287   6.209   2.852   8.308  1.1248 -1.5842  1.3175
   92CHL1  H27C 9288   6.260   2.725   8.172 -2.4034  0.0773 -0.3740
   93CHL1    C3 9289   4.091   1.012   6.970 -1.0676  0.0848 -0.0192
   93CHL1    H3 9290   4.156   1.098   6.996  0.0536 -0.9961  0.8689
   93CHL1    O3 9291   4.089   1.010   6.830 -0.5003 -0.3234 -0.2700
   93CHL1   H3' 9292   4.049   0.924   6.816  0.2037 -0.9962  1.7031
   93CHL1    C4 9293   4.161   0.884   7.021 -0.3738  0.3095  0.2732
   93CHL1   H4A 9294   4.130   0.798   6.957  0.4566  0.4428 -0.3082
   93CHL1   H4B 9295   4.266   0.896   6.988 -0.6738  1.1256 -0.3849
   93CHL1    C5 9296   4.144   0.847   7.171 -0.1457 -0.5517  0.6373
   93CHL1    C6 9297   4.246   0.828   7.254 -0.4950  0.3217  0.2722
   93CHL1    H6 9298   4.349   0.832   7.215 -0.0428  1.1881  1.5382
   93CHL1    C7 9299   4.226   0.773   7.390 -0.5084 -0.1142 -0.2164
   93CHL1   H7A 9300   4.305   0.698   7.409  0.7877  1.2956  0.0089
   93CHL1   H7B 9301   4.246   0.857   7.460 -1.1622  0.1655 -0.3614
   93CHL1    C8 9302   4.078   0.726   7.424  0.2776 -0.4821 -0.3939
   93CHL1    H8 9303   4.064   0.631   7.369  0.5569 -1.5951  1.4002
   93CHL1   C14 9304   4.055   0.722   7.574 -0.2648 -0.5436 -0.0971
   93CHL1   H14 9305   4.085   0.824   7.606 -1.5555 -1.0401  2.8479
   93CHL1   C15 9306   4.140   0.635   7.666  0.8043 -0.4807  0.7339
   93CHL1  H15A 9307   4.137   0.528   7.636 -0.9658 -0.2384 -0.0365
   93CHL1  H15B 9308   4.247   0.660   7.678  0.3743  1.3127  1.0036
   93CHL1   C16 9309   4.078   0.642   7.808 -0.0511 -0.1938  0.0100
   93CHL1  H16A 9310   4.085   0.539   7.848  0.7321 -1.4319 -3.1551
   93CHL1  H16B 9311   4.140   0.706   7.875  0.4911 -0.1211 -0.5519
   93CHL1   C17 9312   3.929   0.693   7.787  0.0251 -0.0415  0.4837
   93CHL1   H17 9313   3.945   0.801   7.806 -1.9947  0.5400 -0.9729
   93CHL1   C13 9314   3.910   0.701   7.627 -0.1361 -0.1604 -0.0195
   93CHL1   C18 9315   3.848   0.568   7.579  0.3460 -0.2285  0.5959
   93CHL1  H18A 9316   3.883   0.545   7.476 -1.4796 -2.4985  0.4517
   93CHL1  H18B 9317   3.877   0.479   7.638 -0.0231 -0.5371  0.3124
   93CHL1  H18C 9318   3.737   0.570   7.572  0.4182  2.1737 -0.5481
   93CHL1   C12 9319   3.830   0.820   7.565  0.3136  0.4602  0.5261
   93CHL1  H12A 9320   3.732   0.850   7.607 -0.9324  0.9788 -2.6097
   93CHL1  H12B 9321   3.894   0.907   7.591 -1.9112  1.9065  1.2431
   93CHL1   C11 9322   3.837   0.812   7.414  0.3018  0.2035  0.5136
   93CHL1  H11A 9323   3.792   0.718   7.378  0.0800  0.2850  0.5756
   93CHL1  H11B 9324   3.772   0.894   7.377  1.1131  0.9822  0.7630
   93CHL1    C9 9325   3.988   0.837   7.369  0.3810  0.4324  0.0265
   93CHL1    H9 9326   4.016   0.936   7.410  1.6097  1.4137 -3.0503
   93CHL1   C10 9327   4.003   0.865   7.218  0.3034 -0.5487  0.2194
   93CHL1   C19 9328   3.911   0.757   7.155 -0.0265 -0.4143  0.3705
   93CHL1  H19A 9329   3.807   0.791   7.177  1.1414  4.6449 -1.3944
   93CHL1  H19B 9330   3.907   0.754   7.044  1.8783 -3.5159  0.3400
   93CHL1  H19C 9331   3.935   0.654   7.191  0.4495  0.0819  1.4974
   93CHL1    C1 9332   3.953   1.001   7.176 -0.2986  0.1583  0.3454
   93CHL1   H1A 9333   3.851   1.009   7.218 -0.1740 -0.2379  0.7285
   93CHL1   H1B 9334   4.008   1.088   7.217 -0.2490  0.9757 -1.3901
   93CHL1    C2 9335   3.953   1.030   7.025 -0.2354  0.0151 -0.6566
   93CHL1   H2A 9336   3.913   1.131   7.005 -0.9471 -0.1593 -0.1191
   93CHL1   H2B 9337   3.886   0.958   6.974 -1.7808 -0.0787  1.4430
   93CHL1   C20 9338   3.826   0.627   7.882 -0.0506  0.6181 -0.5975
   93CHL1   H20 9339   3.808   0.526   7.841  1.2927  0.4053 -0.6709
   93CHL1   C21 9340   3.695   0.711   7.863 -0.0671 -0.2444  0.3485
   93CHL1  H21A 9341   3.602   0.662   7.899 -0.0674 -1.1581 -0.8493
   93CHL1  H21B 9342   3.674   0.706   7.754 -1.3689  5.4464  0.1935
   93CHL1  H21C 9343   3.696   0.820   7.885 -0.0850 -0.3301  0.7897
   93CHL1   C22 9344   3.873   0.607   8.029  0.3657  0.1248 -0.3882
   93CHL1  H22A 9345   3.930   0.512   8.031 -2.7831 -1.8264  0.0983
   93CHL1  H22B 9346   3.944   0.687   8.060 -1.0756  0.9268  0.9310
   93CHL1   C23 9347   3.759   0.602   8.134  0.8866 -0.5342  0.2398
   93CHL1  H23A 9348   3.702   0.697   8.141  0.6356 -0.7210  0.7913
   93CHL1  H23B 9349   3.679   0.531   8.101  0.2017  0.4935 -0.3564
   93CHL1   C24 9350   3.811   0.558   8.270 -0.0849 -0.6183  0.6196
   93CHL1  H24A 9351   3.862   0.459   8.263  2.1086  0.6030 -1.7661
   93CHL1  H24B 9352   3.890   0.631   8.296 -0.8109  0.3896  0.0134
   93CHL1   C25 9353   3.699   0.539   8.374  0.4797  0.4903 -0.5565
   93CHL1   H25 9354   3.618   0.479   8.327  0.0401 -1.2367  2.2597
   93CHL1   C26 9355   3.757   0.451   8.490 -0.2639 -0.1330 -0.0789
   93CHL1  H26A 9356   3.686   0.458   8.575 -0.6668  0.1917 -0.4418
   93CHL1  H26B 9357   3.762   0.347   8.450 -0.2621  0.2252 -1.0111
   93CHL1  H26C 9358   3.860   0.491   8.508 -0.2044  0.5018 -1.7637
   93CHL1   C27 9359   3.658   0.673   8.436  0.1045 -0.1689 -0.1556
   93CHL1  H27A 9360   3.586   0.661   8.520 -0.5690  1.0664 -0.5284
   93CHL1  H27B 9361   3.745   0.724   8.481  1.8043 -2.0154 -1.2718
   93CHL1  H27C 9362   3.608   0.732   8.355 -1.4232 -1.7788 -0.4255
   94CHL1    C3 9363   6.380   3.961   6.950  0.3237 -1.4755 -0.1700
   94CHL1    H3 9364   6.379   3.851   6.963  0.4919 -1.3573  0.9276
   94CHL1    O3 9365   6.369   4.000   6.812  0.4402 -0.4357 -0.3176
   94CHL1   H3' 9366   6.350   4.094   6.815 -1.1017 -0.7745  2.0651
   94CHL1    C4 9367   6.260   4.017   7.023  0.2721  0.3024  0.1185
   94CHL1   H4A 9368   6.249   4.127   7.015  0.3755  0.3205  0.2279
   94CHL1   H4B 9369   6.174   3.981   6.963  0.9461 -0.6605 -0.2849
   94CHL1    C5 9370   6.265   3.977   7.168  0.9890  0.0589 -0.0029
   94CHL1    C6 9371   6.162   3.903   7.219 -0.8323 -0.6309  0.0110
   94CHL1    H6 9372   6.087   3.863   7.149 -1.5295  0.2942  0.2279
   94CHL1    C7 9373   6.140   3.861   7.360 -0.2004  0.0441 -0.4103
   94CHL1   H7A 9374   6.042   3.895   7.400 -0.0965 -0.1754  0.0323
   94CHL1   H7B 9375   6.153   3.752   7.374  2.4694  0.3936  0.1094
   94CHL1    C8 9376   6.245   3.931   7.452 -1.3098 -0.0554 -0.1291
   94CHL1    H8 9377   6.209   4.035   7.465 -1.4807 -0.1353  0.0363
   94CHL1   C14 9378   6.249   3.865   7.583 -0.7829  0.7033 -0.3739
   94CHL1   H14 9379   6.275   3.757   7.572 -1.4493  0.3160  1.5690
   94CHL1   C15 9380   6.115   3.859   7.671 -0.4701 -0.3415  0.0181
   94CHL1  H15A 9381   6.064   3.958   7.673 -2.6164 -1.4376  0.4390
   94CHL1  H15B 9382   6.038   3.785   7.643 -0.2336 -1.0374  1.1725
   94CHL1   C16 9383   6.172   3.812   7.806  0.4887 -0.6747  0.2961
   94CHL1  H16A 9384   6.134   3.877   7.888 -1.9859 -0.6666 -0.8130
   94CHL1  H16B 9385   6.156   3.708   7.841  0.6064 -0.9935 -0.5890
   94CHL1   C17 9386   6.326   3.827   7.804 -0.0017 -0.1669  0.0690
   94CHL1   H17 9387   6.375   3.731   7.778  2.4329  0.4328  2.2825
   94CHL1   C13 9388   6.348   3.924   7.682  0.0782  1.0802 -0.2434
   94CHL1   C18 9389   6.313   4.069   7.722 -0.3615  0.0880 -1.0349
   94CHL1  H18A 9390   6.380   4.097   7.806  0.4678 -2.2780 -0.8719
   94CHL1  H18B 9391   6.334   4.136   7.636  0.5908 -0.9986 -1.6609
   94CHL1  H18C 9392   6.207   4.088   7.752 -0.2884  0.3907 -0.9656
   94CHL1   C12 9393   6.489   3.921   7.625  0.5655  0.2794  0.6290
   94CHL1  H12A 9394   6.552   3.970   7.702 -0.6675  1.6771  0.7776
   94CHL1  H12B 9395   6.524   3.820   7.595 -2.7961 -0.3425 -1.4537
   94CHL1   C11 9396   6.488   4.002   7.489 -0.3120 -0.6792  0.2295
   94CHL1  H11A 9397   6.479   4.112   7.491 -0.3158 -0.6379 -1.1047
   94CHL1  H11B 9398   6.592   3.995   7.448 -1.9689 -0.3803 -4.3732
   94CHL1    C9 9399   6.387   3.938   7.387  0.6891 -0.3523 -0.2010
   94CHL1    H9 9400   6.406   3.832   7.359  0.3346 -0.2775 -0.7184
   94CHL1   C10 9401   6.389   4.022   7.246 -0.5444 -0.6368  0.1825
   94CHL1   C19 9402   6.377   4.176   7.267  0.5307 -0.2569  0.1846
   94CHL1  H19A 9403   6.325   4.228   7.183  3.0589  1.2023 -0.5173
   94CHL1  H19B 9404   6.314   4.190   7.357  0.3919 -2.0187  0.3868
   94CHL1  H19C 9405   6.476   4.221   7.287  0.0850  1.1154 -0.5860
   94CHL1    C1 9406   6.509   3.986   7.164  0.1185  0.3529  0.3639
   94CHL1   H1A 9407   6.597   4.033   7.212  0.6708 -0.0787 -0.2228
   94CHL1   H1B 9408   6.534   3.878   7.172 -3.9402 -0.6263  0.8293
   94CHL1    C2 9409   6.506   4.021   7.015 -0.0635  0.2044 -0.4877
   94CHL1   H2A 9410   6.591   3.973   6.961  1.7676 -1.5217  3.7527
   94CHL1   H2B 9411   6.522   4.130   7.007 -1.2981  0.3009 -2.0389
   94CHL1   C20 9412   6.380   3.869   7.943  0.1629  0.5020 -0.1407
   94CHL1   H20 9413   6.355   3.977   7.955 -1.2636  0.5368 -2.9617
   94CHL1   C21 9414   6.538   3.862   7.955  0.5507  0.1167 -0.1327
   94CHL1  H21A 9415   6.573   3.758   7.943  2.4549  1.0423 -3.0403
   94CHL1  H21B 9416   6.569   3.913   8.049 -0.3832  0.5630 -0.0563
   94CHL1  H21C 9417   6.594   3.920   7.878  1.2052  0.6621  0.7340
   94CHL1   C22 9418   6.328   3.793   8.068  0.0079 -0.0271 -0.3890
   94CHL1  H22A 9419   6.239   3.738   8.031  0.6350 -0.6076 -1.0629
   94CHL1  H22B 9420   6.394   3.717   8.114  1.2374  1.0895 -0.2748
   94CHL1   C23 9421   6.286   3.897   8.170  0.5516  0.0679 -0.0489
   94CHL1  H23A 9422   6.374   3.959   8.196 -0.6072  1.0550  1.6058
   94CHL1  H23B 9423   6.230   3.974   8.112  2.1137 -1.1712 -3.3038
   94CHL1   C24 9424   6.216   3.848   8.302 -0.0506 -0.2721 -0.6055
   94CHL1  H24A 9425   6.294   3.801   8.365 -0.0135 -1.1507 -1.2951
   94CHL1  H24B 9426   6.193   3.942   8.357  0.4175 -0.4670 -0.0810
   94CHL1   C25 9427   6.085   3.769   8.288 -0.7911  0.3159  0.2323
   94CHL1   H25 9428   6.105   3.674   8.233 -1.8525 -0.3950  1.0586
   94CHL1   C26 9429   6.025   3.740   8.426 -0.0904  1.0123  0.1323
   94CHL1  H26A 9430   5.939   3.673   8.405 -0.8821  1.5695  1.5165
   94CHL1  H26B 9431   6.095   3.679   8.487 -1.6718  0.6428  1.6254
   94CHL1  H26C 9432   5.985   3.828   8.481 -2.2996 -0.3709  0.7627
   94CHL1   C27 9433   5.980   3.842   8.204 -0.9976  0.0303  0.3507
   94CHL1  H27A 9434   5.889   3.779   8.209 -0.4938 -0.9764 -2.1353
   94CHL1  H27B 9435   5.951   3.940   8.246 -0.2387  1.2693 -1.9368
   94CHL1  H27C 9436   6.012   3.837   8.097  1.9983  1.2732  1.1304
   95CHL1    C3 9437   6.320   3.149   6.747 -0.2437  0.2034 -0.1343
   95CHL1    H3 9438   6.214   3.142   6.780  0.0441 -3.5958  0.2155
   95CHL1    O3 9439   6.327   3.140   6.608  0.4787  0.3751  0.6508
   95CHL1   H3' 9440   6.327   3.230   6.576  0.9325 -0.8397 -3.1080
   95CHL1    C4 9441   6.369   3.286   6.809 -0.0075  0.2389  0.5429
   95CHL1   H4A 9442   6.475   3.310   6.785 -0.2941  1.0871  0.1177
   95CHL1   H4B 9443   6.306   3.366   6.766 -0.0778  0.8605  1.7721
   95CHL1    C5 9444   6.361   3.290   6.958  0.0153 -1.1083  0.1800
   95CHL1    C6 9445   6.284   3.383   7.019 -0.1256 -0.4109  0.0434
   95CHL1    H6 9446   6.229   3.458   6.960 -0.4654 -1.3538 -0.8375
   95CHL1    C7 9447   6.279   3.389   7.165  0.5287 -0.2970  0.0597
   95CHL1   H7A 9448   6.280   3.497   7.191 -1.9621 -0.2160 -0.0173
   95CHL1   H7B 9449   6.181   3.355   7.205  0.3279 -0.8183 -0.8620
   95CHL1    C8 9450   6.389   3.315   7.242 -0.3741 -0.4147 -0.4256
   95CHL1    H8 9451   6.485   3.363   7.211 -1.6141  2.2137 -0.3245
   95CHL1   C14 9452   6.362   3.330   7.395  0.2123 -0.2482 -0.4826
   95CHL1   H14 9453   6.264   3.280   7.413  0.6584 -0.0468  2.7880
   95CHL1   C15 9454   6.346   3.471   7.463 -0.4963  1.0990  0.7893
   95CHL1  H15A 9455   6.411   3.545   7.413 -1.7656  1.9886  0.4188
   95CHL1  H15B 9456   6.241   3.508   7.458 -0.9707 -0.0760  1.7082
   95CHL1   C16 9457   6.388   3.443   7.605 -0.5235 -0.2429 -0.1836
   95CHL1  H16A 9458   6.487   3.490   7.621 -0.5435  0.8960 -2.9792
   95CHL1  H16B 9459   6.318   3.486   7.679 -0.3796  0.9814 -0.7409
   95CHL1   C17 9460   6.396   3.280   7.616 -0.2082  0.1219  0.4526
   95CHL1   H17 9461   6.292   3.242   7.626 -0.1975  0.3974  1.6377
   95CHL1   C13 9462   6.448   3.245   7.473 -0.9611  1.3784 -0.4113
   95CHL1   C18 9463   6.601   3.281   7.463 -0.0165  0.3379 -0.3872
   95CHL1  H18A 9464   6.636   3.378   7.503  1.0984 -0.3802  0.4154
   95CHL1  H18B 9465   6.651   3.199   7.519  0.6203  0.2326 -1.1110
   95CHL1  H18C 9466   6.637   3.268   7.359  0.1675 -0.8231 -0.1841
   95CHL1   C12 9467   6.425   3.095   7.432 -0.7886  0.2099  0.5996
   95CHL1  H12A 9468   6.491   3.029   7.492  1.5220  0.7936 -1.2573
   95CHL1  H12B 9469   6.316   3.081   7.451 -0.6209  0.7476  1.9935
   95CHL1   C11 9470   6.465   3.071   7.284 -0.3026  0.2646  0.5993
   95CHL1  H11A 9471   6.575   3.064   7.273 -0.4470  0.3280 -0.9509
   95CHL1  H11B 9472   6.422   2.971   7.260  2.2992 -0.3221 -1.9175
   95CHL1    C9 9473   6.398   3.173   7.189  1.2461  0.1713  0.0863
   95CHL1    H9 9474   6.288   3.155   7.194  0.7186  2.3083 -2.1749
   95CHL1   C10 9475   6.429   3.176   7.033 -0.3438  0.4967 -0.2639
   95CHL1   C19 9476   6.582   3.185   7.024  0.0646 -0.4505 -0.1727
   95CHL1  H19A 9477   6.625   3.204   6.924  2.1163 -0.7837  0.6123
   95CHL1  H19B 9478   6.621   3.264   7.092 -0.3203 -0.1002 -0.3605
   95CHL1  H19C 9479   6.618   3.084   7.053 -0.3949 -0.6177 -0.1796
   95CHL1    C1 9480   6.387   3.041   6.964  0.1860 -0.2749 -0.6208
   95CHL1   H1A 9481   6.442   2.952   7.002  2.5064  2.5664  3.0929
   95CHL1   H1B 9482   6.279   3.031   6.984  0.4608 -2.1864  0.0341
   95CHL1    C2 9483   6.392   3.026   6.807 -0.2176  0.0806 -0.5047
   95CHL1   H2A 9484   6.336   2.940   6.764 -0.7828  0.2033 -0.0315
   95CHL1   H2B 9485   6.499   3.036   6.779  0.3192 -2.1643  0.6374
   95CHL1   C20 9486   6.483   3.219   7.733  0.8922  0.6419 -0.4300
   95CHL1   H20 9487   6.548   3.145   7.683 -0.0739 -0.0267 -0.7168
   95CHL1   C21 9488   6.388   3.141   7.833  0.0403  0.3733  0.4646
   95CHL1  H21A 9489   6.311   3.087   7.774  0.4069 -1.1857  1.4052
   95CHL1  H21B 9490   6.330   3.209   7.899 -1.5672 -1.4191  0.9559
   95CHL1  H21C 9491   6.448   3.074   7.898 -0.9834  0.7120  1.7964
   95CHL1   C22 9492   6.570   3.320   7.811 -0.0710  0.0129  0.0695
   95CHL1  H22A 9493   6.644   3.354   7.736 -0.8187 -0.8822 -1.1038
   95CHL1  H22B 9494   6.502   3.403   7.840  0.5351 -0.0580  1.7530
   95CHL1   C23 9495   6.612   3.279   7.956  0.0806 -0.2241  0.0649
   95CHL1  H23A 9496   6.526   3.249   8.019  0.0833 -0.3514  0.0080
   95CHL1  H23B 9497   6.674   3.187   7.955  0.2895 -0.1423  2.5497
   95CHL1   C24 9498   6.681   3.397   8.023 -0.3779 -0.1608  0.5436
   95CHL1  H24A 9499   6.753   3.424   7.943 -1.8720 -0.3377 -0.8696
   95CHL1  H24B 9500   6.608   3.481   8.030 -1.5552 -1.2041  1.0596
   95CHL1   C25 9501   6.740   3.370   8.161  0.1164  0.6823  0.2213
   95CHL1   H25 9502   6.814   3.288   8.151 -1.0352 -0.2564 -0.7401
   95CHL1   C26 9503   6.808   3.507   8.192  0.2954 -0.7386 -0.1900
   95CHL1  H26A 9504   6.887   3.488   8.268 -2.7155  0.4559  3.4112
   95CHL1  H26B 9505   6.868   3.530   8.102 -0.2894  0.5846 -0.2470
   95CHL1  H26C 9506   6.738   3.585   8.231  3.5847  1.1244  2.2427
   95CHL1   C27 9507   6.631   3.359   8.264  0.0108 -0.2890  0.1667
   95CHL1  H27A 9508   6.555   3.282   8.242 -1.5700  1.4409 -0.6012
   95CHL1  H27B 9509   6.678   3.337   8.362  0.9562  1.1780  0.0737
   95CHL1  H27C 9510   6.576   3.455   8.278 -0.8239 -1.0991  2.6499
   96CHL1    C3 9511   5.959   2.193   6.766 -0.7433 -0.0238 -0.3697
   96CHL1    H3 9512   6.008   2.284   6.808  0.3619 -0.0869 -1.4529
   96CHL1    O3 9513   5.937   2.206   6.627 -0.5813  0.1887 -0.0823
   96CHL1   H3' 9514   6.025   2.212   6.590 -0.3643 -1.5891  0.0975
   96CHL1    C4 9515   6.056   2.068   6.785 -0.0640  1.3671 -0.2549
   96CHL1   H4A 9516   6.010   1.995   6.714 -0.0270 -0.3526  1.4456
   96CHL1   H4B 9517   6.153   2.088   6.735 -0.1509  0.0323 -0.9930
   96CHL1    C5 9518   6.065   2.008   6.926  0.2654  0.3922  0.3277
   96CHL1    C6 9519   6.183   1.969   6.975  0.4867  0.2325  0.4950
   96CHL1    H6 9520   6.278   1.987   6.922  0.8979  0.6109  1.3428
   96CHL1    C7 9521   6.200   1.910   7.110 -0.0287 -0.0228 -0.7517
   96CHL1   H7A 9522   6.248   1.811   7.099 -1.9302 -0.7626 -2.7357
   96CHL1   H7B 9523   6.265   1.971   7.177  0.1797  0.4647 -1.3917
   96CHL1    C8 9524   6.067   1.873   7.179  0.1820  0.1210 -0.0859
   96CHL1    H8 9525   6.032   1.777   7.134  0.6953 -1.2011  2.2704
   96CHL1   C14 9526   6.087   1.859   7.332  0.2903 -0.2377 -0.4529
   96CHL1   H14 9527   6.122   1.954   7.378 -0.7405 -0.2061  0.2729
   96CHL1   C15 9528   6.200   1.765   7.376 -0.0544  0.1514  0.2167
   96CHL1  H15A 9529   6.214   1.674   7.314  1.3742  0.1076  0.5925
   96CHL1  H15B 9530   6.290   1.830   7.368 -0.4159  0.5720 -0.4365
   96CHL1   C16 9531   6.168   1.730   7.524 -0.2402  0.4604 -0.0010
   96CHL1  H16A 9532   6.143   1.622   7.533  2.1397 -0.0656  1.0390
   96CHL1  H16B 9533   6.254   1.755   7.590  1.5857 -0.2867 -2.0439
   96CHL1   C17 9534   6.042   1.804   7.559  1.1098  0.1875 -0.5471
   96CHL1   H17 9535   6.069   1.905   7.597 -1.4198  0.6200  0.1482
   96CHL1   C13 9536   5.963   1.822   7.416  0.6719 -0.1464 -0.2914
   96CHL1   C18 9537   5.907   1.681   7.376 -0.1072 -0.1286 -0.3610
   96CHL1  H18A 9538   5.819   1.659   7.440  0.6834 -0.6259  0.5578
   96CHL1  H18B 9539   5.882   1.672   7.268  2.1332 -1.1421 -0.8278
   96CHL1  H18C 9540   5.978   1.596   7.382  0.8507  0.5651 -1.5851
   96CHL1   C12 9541   5.861   1.930   7.389 -0.2194 -0.4602 -0.1840
   96CHL1  H12A 9542   5.765   1.902   7.437  0.8614 -2.1184  1.0548
   96CHL1  H12B 9543   5.901   2.017   7.444 -0.1062 -0.5354 -0.1470
   96CHL1   C11 9544   5.834   1.954   7.244 -0.2367  0.0332 -0.2752
   96CHL1  H11A 9545   5.787   1.860   7.207 -0.0475 -0.3194  0.3736
   96CHL1  H11B 9546   5.760   2.037   7.243  0.9468  1.1110 -0.1074
   96CHL1    C9 9547   5.964   1.981   7.162  0.1802  0.0088 -0.1426
   96CHL1    H9 9548   6.001   2.075   7.208  1.2150 -1.4113  1.9575
   96CHL1   C10 9549   5.933   2.008   7.013  0.3322  0.4280  0.4077
   96CHL1   C19 9550   5.840   1.895   6.960 -0.2274 -0.2504 -0.2005
   96CHL1  H19A 9551   5.731   1.907   6.977 -0.0421  1.4109 -0.0936
   96CHL1  H19B 9552   5.856   1.892   6.850  0.2910 -0.0781 -0.1313
   96CHL1  H19C 9553   5.881   1.797   6.991  1.8553  0.1019 -1.6994
   96CHL1    C1 9554   5.865   2.154   6.986  0.3026  0.3679  0.3960
   96CHL1   H1A 9555   5.763   2.152   7.032 -1.4284 -1.2333 -3.3386
   96CHL1   H1B 9556   5.931   2.229   7.034 -0.1489 -1.1365  3.4947
   96CHL1    C2 9557   5.831   2.188   6.838 -0.4318  0.2589  0.0089
   96CHL1   H2A 9558   5.784   2.289   6.841  0.3943  0.6190  1.1167
   96CHL1   H2B 9559   5.761   2.117   6.789 -0.9633  1.7403 -1.4273
   96CHL1   C20 9560   5.958   1.731   7.666 -0.5901  0.1320 -0.3127
   96CHL1   H20 9561   5.926   1.636   7.617  0.9616 -0.6159  0.0944
   96CHL1   C21 9562   5.829   1.813   7.702 -0.3039  0.0713 -0.2857
   96CHL1  H21A 9563   5.775   1.790   7.796  0.2421  1.1866  0.3126
   96CHL1  H21B 9564   5.762   1.797   7.615 -0.0341 -0.7568 -0.3467
   96CHL1  H21C 9565   5.872   1.915   7.709 -0.4747  0.1611 -0.5217
   96CHL1   C22 9566   6.036   1.709   7.795 -0.0524 -0.1936 -0.0503
   96CHL1  H22A 9567   6.126   1.651   7.766  0.9563  1.6472 -0.6924
   96CHL1  H22B 9568   6.061   1.808   7.839  0.2985 -0.8671  1.3056
   96CHL1   C23 9569   5.971   1.622   7.900  0.4106  0.3041  0.1009
   96CHL1  H23A 9570   5.875   1.671   7.924  0.8643 -0.0247  2.7958
   96CHL1  H23B 9571   5.955   1.524   7.852  2.6745 -0.0554  0.0085
   96CHL1   C24 9572   6.074   1.599   8.017  0.1090  0.3908 -0.3950
   96CHL1  H24A 9573   6.178   1.572   7.987  0.1323 -1.5868  1.2810
   96CHL1  H24B 9574   6.081   1.693   8.076  1.3667  1.4187 -2.1489
   96CHL1   C25 9575   6.025   1.501   8.130  1.0986 -0.4058  0.0296
   96CHL1   H25 9576   5.932   1.548   8.170  0.9704 -1.5108  1.0539
   96CHL1   C26 9577   5.987   1.359   8.086  0.8582 -0.0753  0.4315
   96CHL1  H26A 9578   5.946   1.301   8.172 -0.0504  2.5621  1.8229
   96CHL1  H26B 9579   5.914   1.356   8.003 -0.5865  1.5635  1.6102
   96CHL1  H26C 9580   6.081   1.315   8.047  1.6132  1.3596  0.6066
   96CHL1   C27 9581   6.114   1.498   8.251  0.3476 -0.1258 -0.4300
   96CHL1  H27A 9582   6.137   1.602   8.283 -0.4674  0.0950 -0.5487
   96CHL1  H27B 9583   6.065   1.438   8.331 -0.9340 -0.8656 -1.7419
   96CHL1  H27C 9584   6.210   1.448   8.228  0.4244  0.2294 -0.8939
   97OSM      N 9585   3.882   2.183  11.046  0.1506  0.5689  0.4206
   97OSM    C15 9586   3.827   2.154  10.912  0.0896 -0.0245  0.6878
   97OSM   H15A 9587   3.736   2.096  10.913 -1.4534  2.3168  0.2198
   97OSM   H15B 9588   3.893   2.088  10.857 -0.7722 -0.3325  0.0156
   97OSM   H15C 9589   3.813   2.241  10.849 -0.2062 -2.3172 -2.5240
   97OSM    C14 9590   3.879   2.045  11.108 -0.4723  0.1411 -0.1559
   97OSM   H14A 9591   3.901   2.043  11.213 -3.3491 -0.0931  0.4750
   97OSM   H14B 9592   3.958   1.980  11.073  1.0186  1.4751  0.6618
   97OSM   H14C 9593   3.782   2.002  11.087 -1.2653  0.9451  1.7791
   97OSM    C13 9594   4.019   2.225  11.036  0.2483 -0.5871 -0.0386
   97OSM   H13A 9595   4.060   2.214  11.135 -2.2147 -2.6781  0.8137
   97OSM   H13B 9596   4.031   2.327  11.002 -3.5051  0.3618  1.1833
   97OSM   H13C 9597   4.085   2.169  10.972  1.4243  2.1028 -1.2619
   97OSM    C12 9598   3.796   2.285  11.114  0.2085 -0.0156 -1.1753
   97OSM   H12A 9599   3.820   2.382  11.073  2.9696  0.4624  1.4422
   97OSM   H12B 9600   3.829   2.300  11.215 -2.8838 -0.0398 -0.0976
   97OSM    C11 9601   3.648   2.261  11.119  0.5261 -0.0349  0.5415
   97OSM   H11A 9602   3.624   2.168  11.176 -3.1514  1.5286  1.6920
   97OSM   H11B 9603   3.605   2.248  11.018  1.5215  0.3158  0.0775
   97OSM      P 9604   3.518   2.494  11.117 -0.1797  0.1576 -0.3832
   97OSM    O13 9605   3.442   2.572  11.218  0.2435  0.0750  0.3103
   97OSM    O14 9606   3.611   2.561  11.025 -0.6316 -1.4274  0.6059
   97OSM    O11 9607   3.411   2.412  11.033 -0.2865  0.9354  0.5316
   97OSM    O12 9608   3.591   2.376  11.189 -0.2122 -0.4742 -0.0440
   97OSM    C1S 9609   3.302   2.473  10.960  0.8811  0.2497  0.1550
   97OSM    H1S 9610   3.249   2.549  11.022  2.8488  0.7175  1.3120
   97OSM    H1T 9611   3.240   2.390  10.922 -0.5502  0.6555  1.5507
   97OSM     NF 9612   3.259   2.627  10.770 -0.1553  0.2186  0.0080
   97OSM    HNF 9613   3.226   2.586  10.685  0.0166 -0.4532  0.2675
   97OSM    C2S 9614   3.359   2.545  10.838  0.3550 -0.0504  0.5714
   97OSM    H2S 9615   3.438   2.617  10.868  1.1351 -1.4295  1.8678
   97OSM    C3S 9616   3.416   2.446  10.733 -0.1958  0.9176  0.1477
   97OSM    H3S 9617   3.339   2.374  10.697 -0.5947  0.6211  1.5694
   97OSM     O3 9618   3.519   2.363  10.790 -0.3578 -1.0558 -0.0445
   97OSM    HO3 9619   3.512   2.389  10.882  3.0012  0.1603 -0.0740
   97OSM    C4S 9620   3.483   2.511  10.618  0.4503  0.0201 -0.0021
   97OSM    H4S 9621   3.572   2.573  10.636 -0.7356  1.8779 -0.4609
   97OSM    C5S 9622   3.436   2.490  10.491  0.0815 -0.3445 -0.3132
   97OSM    H5S 9623   3.342   2.437  10.472  0.6474 -2.3819  2.2997
   97OSM    C6S 9624   3.504   2.546  10.371 -0.3278  0.1315 -0.1736
   97OSM    H6S 9625   3.561   2.462  10.326  1.4698  0.6002  1.1483
   97OSM    H6T 9626   3.583   2.620  10.398 -0.8722  1.3563 -1.8670
   97OSM    C7S 9627   3.414   2.597  10.264  0.2777  0.2641  0.3418
   97OSM    H7S 9628   3.365   2.694  10.289  0.9046  0.4858  0.7220
   97OSM    H7T 9629   3.342   2.521  10.226 -1.9945  2.2420  0.5012
   97OSM    C8S 9630   3.491   2.619  10.127  0.3193  0.2654  0.1520
   97OSM    H8S 9631   3.521   2.523  10.080 -3.1211 -0.1561 -1.3827
   97OSM    H8T 9632   3.584   2.679  10.132 -1.2423  2.6641  1.2477
   97OSM    C9S 9633   3.409   2.700  10.034 -0.2558 -0.2914  0.0372
   97OSM    H9S 9634   3.352   2.782  10.083  1.5599  0.5133  0.8315
   97OSM    H9T 9635   3.330   2.634   9.991  0.0390 -1.9227  1.9098
   97OSM   C10S 9636   3.484   2.757   9.913  0.2327 -0.6486  0.0661
   97OSM   H10S 9637   3.569   2.822   9.941 -0.4414  0.8573 -1.3501
   97OSM   H10T 9638   3.414   2.821   9.855 -0.6206  0.0585  1.8419
   97OSM   C11S 9639   3.530   2.653   9.806 -0.5010 -0.2955 -0.6520
   97OSM   H11S 9640   3.464   2.563   9.803 -0.6634 -0.1596 -1.0960
   97OSM   H11T 9641   3.632   2.619   9.831 -1.1636 -2.0182 -0.2303
   97OSM   C12S 9642   3.523   2.704   9.661  0.7075 -0.1993 -0.4798
   97OSM   H12S 9643   3.544   2.813   9.665  0.9200 -0.2896  3.7032
   97OSM   H12T 9644   3.417   2.691   9.633  0.6340 -0.2682 -0.1728
   97OSM   C13S 9645   3.616   2.627   9.580 -0.1594  0.3233  0.5574
   97OSM   H13S 9646   3.613   2.517   9.592 -0.5187  0.1769 -0.7430
   97OSM   H13T 9647   3.723   2.651   9.598 -0.6115  0.8647  2.6686
   97OSM   C14S 9648   3.584   2.661   9.437  0.0094 -0.0322 -0.6604
   97OSM   H14S 9649   3.612   2.768   9.437  0.7236 -0.1930  1.2604
   97OSM   H14T 9650   3.476   2.644   9.417 -0.3504  2.7708 -1.2764
   97OSM   C15S 9651   3.674   2.588   9.330  0.5386 -0.5274  0.0533
   97OSM   H15S 9652   3.663   2.479   9.347  1.0985 -0.3786  1.4580
   97OSM   H15T 9653   3.782   2.602   9.353  0.4150 -1.0930  0.9972
   97OSM   C16S 9654   3.642   2.614   9.181 -0.0715  0.3184 -0.7839
   97OSM   H16S 9655   3.703   2.700   9.146  1.3289 -0.1677  0.4208
   97OSM   H16T 9656   3.536   2.640   9.161  0.1981 -0.3046 -3.2633
   97OSM   C17S 9657   3.682   2.488   9.100 -1.0970 -0.7280 -0.2640
   97OSM   H17S 9658   3.601   2.412   9.111 -2.2752  0.7698  1.7575
   97OSM   H17T 9659   3.776   2.450   9.144 -1.0994 -1.7818 -1.1440
   97OSM   C18S 9660   3.701   2.530   8.953  0.1469  0.1798  0.4154
   97OSM   H18S 9661   3.616   2.592   8.918 -0.3943  1.1529  3.3849
   97OSM   H18T 9662   3.711   2.436   8.893  0.5973  0.7751 -0.4496
   97OSM   H18U 9663   3.789   2.590   8.922 -0.4205  0.4386 -0.7381
   97OSM    C1F 9664   3.200   2.739  10.814 -0.3737  1.1034 -0.2409
   97OSM     OF 9665   3.215   2.775  10.925 -0.0125 -0.2623  0.3402
   97OSM    C2F 9666   3.104   2.800  10.713  0.1127 -0.2001 -0.5704
   97OSM    H2F 9667   3.012   2.841  10.761 -0.3859  0.1761 -1.8243
   97OSM    H2G 9668   3.069   2.722  10.643 -0.8627  0.9892 -1.4427
   97OSM    C3F 9669   3.173   2.907  10.622 -1.0386 -0.2775 -0.4558
   97OSM    H3F 9670   3.241   2.968  10.684 -0.1871 -2.7206  1.0977
   97OSM    H3G 9671   3.097   2.971  10.572 -0.1591 -0.9074 -2.6273
   97OSM    C4F 9672   3.247   2.849  10.506 -0.3785  0.6172 -0.2166
   97OSM    H4F 9673   3.174   2.787  10.450 -0.3124  0.3849 -0.0439
   97OSM    H4G 9674   3.321   2.780  10.550 -3.1247 -2.9548 -0.9647
   97OSM    C5F 9675   3.312   2.951  10.411 -0.1552 -0.1445 -0.1808
   97OSM    H5F 9676   3.370   2.890  10.340  0.5371 -1.1170  1.1906
   97OSM    H5G 9677   3.370   3.020  10.476  0.2870 -0.2868 -0.4238
   97OSM    C6F 9678   3.220   3.045  10.333 -0.2101 -0.3524  0.0474
   97OSM    H6F 9679   3.158   3.098  10.408 -1.8305 -0.3472 -1.2458
   97OSM    H6G 9680   3.148   2.989  10.269 -1.8301  1.0334  0.6223
   97OSM    C7F 9681   3.293   3.155  10.255 -0.4333 -0.4724  0.3537
   97OSM    H7F 9682   3.356   3.208  10.329 -2.7180 -0.9924  2.7263
   97OSM    H7G 9683   3.219   3.226  10.212  0.6410  1.8281  2.1844
   97OSM    C8F 9684   3.376   3.103  10.136  0.4416 -0.1166  0.3474
   97OSM    H8F 9685   3.308   3.049  10.067 -2.3518 -0.9306  3.5874
   97OSM    H8G 9686   3.452   3.031  10.175  0.5248 -0.3202 -0.1816
   97OSM    C9F 9687   3.437   3.216  10.065  0.8995 -0.2480 -0.0972
   97OSM    H9F 9688   3.469   3.297  10.133 -0.3001 -0.9239  1.3010
   97OSM   C10F 9689   3.440   3.240   9.930 -0.4491  0.0516 -0.3165
   97OSM   H10F 9690   3.470   3.341   9.900 -0.6134  0.2579  0.1910
   97OSM   C11F 9691   3.387   3.153   9.817 -0.2285 -0.0156  0.4463
   97OSM   H11F 9692   3.288   3.193   9.787 -0.8677 -1.5619  0.4804
   97OSM   H11G 9693   3.371   3.047   9.846 -0.7250 -0.2213 -0.5934
   97OSM   C12F 9694   3.467   3.154   9.685 -0.3623  0.4065  0.4233
   97OSM   H12F 9695   3.570   3.114   9.702 -0.8387 -1.6399 -1.3001
   97OSM   H12G 9696   3.475   3.259   9.651  1.1029  0.0918 -0.2427
   97OSM   C13F 9697   3.407   3.081   9.565 -0.6282  0.3312 -0.0979
   97OSM   H13F 9698   3.312   3.126   9.530  0.3342  2.6548  0.1919
   97OSM   H13G 9699   3.404   2.974   9.594 -0.7786  1.0664  2.7593
   97OSM   C14F 9700   3.499   3.097   9.450 -0.3791 -0.1432  0.1824
   97OSM   H14F 9701   3.602   3.060   9.469 -0.2836 -0.1390 -0.3214
   97OSM   H14G 9702   3.508   3.205   9.422 -0.1298 -0.2025  0.0330
   97OSM   C15F 9703   3.433   3.032   9.322 -0.4051  0.0472 -0.1315
   97OSM   H15F 9704   3.337   3.080   9.294 -1.6866 -1.7947  0.9787
   97OSM   H15G 9705   3.401   2.927   9.341 -2.3159 -0.0409 -3.5917
   97OSM   C16F 9706   3.529   3.052   9.202 -0.0924 -0.7129 -0.0494
   97OSM   H16F 9707   3.631   3.022   9.235  1.0184  0.5573 -2.2135
   97OSM   H16G 9708   3.534   3.156   9.163  3.2633 -0.4239  0.9478
   97OSM   C17F 9709   3.494   2.966   9.077 -0.5250  0.4647  0.4727
   97OSM   H17F 9710   3.391   2.985   9.041 -0.0992  0.2167 -0.9098
   97OSM   H17G 9711   3.510   2.857   9.089  2.2257  0.6431 -1.1303
   97OSM   C18F 9712   3.577   3.002   8.957  0.7148 -0.2940  0.6618
   97OSM   H18F 9713   3.686   3.014   8.976  1.1758 -0.4716 -1.7769
   97OSM   H18G 9714   3.540   3.103   8.929 -2.1626 -1.5317 -0.1821
   97OSM   H18H 9715   3.546   2.940   8.870 -0.2502  1.4068 -0.2450
   98OSM      N 9716   2.614   2.613  11.092  0.1720  0.0835 -0.0261
   98OSM    C15 9717   2.611   2.719  11.202  0.0974  0.8048  0.7360
   98OSM   H15A 9718   2.541   2.685  11.277  1.0244  0.8192  1.6137
   98OSM   H15B 9719   2.578   2.817  11.170 -0.8422  0.3310  0.2168
   98OSM   H15C 9720   2.696   2.723  11.268 -0.6317  0.7683  1.6953
   98OSM    C14 9721   2.487   2.618  11.019 -0.1235 -0.4390 -0.3839
   98OSM   H14A 9722   2.420   2.565  11.085 -1.3865  0.8968 -0.5641
   98OSM   H14B 9723   2.488   2.560  10.928 -0.9841 -1.2876  0.1441
   98OSM   H14C 9724   2.452   2.718  10.997 -0.2515 -0.3726  0.0986
   98OSM    C13 9725   2.721   2.644  11.003  0.3570 -0.7727  0.0901
   98OSM   H13A 9726   2.818   2.645  11.052  0.1621  0.6118  0.4621
   98OSM   H13B 9727   2.697   2.743  10.968 -0.3493  0.1622  3.1064
   98OSM   H13C 9728   2.728   2.568  10.927 -3.0392  1.9299 -3.0899
   98OSM    C12 9729   2.644   2.479  11.164  0.0555 -0.1741 -0.1283
   98OSM   H12A 9730   2.574   2.457  11.243  1.1783 -1.0880  0.6269
   98OSM   H12B 9731   2.742   2.478  11.209 -0.4043 -0.4920  0.8691
   98OSM    C11 9732   2.638   2.350  11.078  0.3498  0.0972 -0.6735
   98OSM   H11A 9733   2.542   2.352  11.022  0.4225 -2.1165 -0.9165
   98OSM   H11B 9734   2.621   2.257  11.136 -1.0932 -0.0870 -1.3716
   98OSM      P 9735   2.892   2.330  11.031  0.6816  0.0619  0.1228
   98OSM    O13 9736   2.947   2.468  11.035  0.2815 -0.1565 -0.2983
   98OSM    O14 9737   2.908   2.242  11.147 -0.3271 -0.2210 -0.5911
   98OSM    O11 9738   2.952   2.254  10.902 -0.2455 -0.2698 -0.1426
   98OSM    O12 9739   2.744   2.333  10.987 -0.2303 -0.5675 -0.1999
   98OSM    C1S 9740   2.931   2.323  10.777 -0.7210  0.7110 -0.5118
   98OSM    H1S 9741   2.970   2.427  10.775  1.3058 -0.0220 -0.3622
   98OSM    H1T 9742   2.822   2.322  10.755 -0.6428 -0.5962 -0.8930
   98OSM     NF 9743   2.985   2.309  10.538 -0.3113 -0.0668  0.0871
   98OSM    HNF 9744   2.900   2.295  10.487 -0.0783 -1.1268 -0.0172
   98OSM    C2S 9745   3.003   2.241  10.660  0.0502 -0.2493  0.0551
   98OSM    H2S 9746   3.112   2.240  10.683  0.0154 -1.1658  0.2300
   98OSM    C3S 9747   2.958   2.099  10.637 -0.2722  0.7562  0.4079
   98OSM    H3S 9748   2.848   2.096  10.623 -0.6667 -1.8882  3.3837
   98OSM     O3 9749   2.963   2.021  10.753  0.2514 -0.1806  0.6308
   98OSM    HO3 9750   2.980   2.091  10.817 -1.3763  1.2194 -0.4462
   98OSM    C4S 9751   3.044   2.035  10.531 -0.2590  0.3257  0.8129
   98OSM    H4S 9752   3.135   2.093  10.509  0.0085  0.6596  2.7083
   98OSM    C5S 9753   3.023   1.924  10.463 -0.0064  0.5701  0.1674
   98OSM    H5S 9754   2.932   1.863  10.476  1.1045 -1.3670 -0.9350
   98OSM    C6S 9755   3.111   1.882  10.346 -0.6862 -0.4032  0.7067
   98OSM    H6S 9756   3.138   1.775  10.352 -0.3184 -0.2687  1.5369
   98OSM    H6T 9757   3.204   1.942  10.338 -0.3146 -1.1682 -0.9203
   98OSM    C7S 9758   3.040   1.909  10.215 -0.1757 -0.7816 -0.7385
   98OSM    H7S 9759   3.053   2.019  10.205 -0.5660 -0.1974  3.7322
   98OSM    H7T 9760   2.931   1.895  10.200  0.0640 -1.8743 -1.5243
   98OSM    C8S 9761   3.112   1.839  10.098 -0.5230 -0.8080  0.7145
   98OSM    H8S 9762   3.089   1.731  10.103 -2.8223 -0.3964 -0.4060
   98OSM    H8T 9763   3.221   1.849  10.116 -0.6197  0.6006  0.5625
   98OSM    C9S 9764   3.079   1.903   9.959 -0.1679  0.0295 -0.5981
   98OSM    H9S 9765   3.149   1.869   9.880  1.6814 -2.0934  1.8814
   98OSM    H9T 9766   3.099   2.012   9.968 -0.0750  0.0728 -1.3135
   98OSM   C10S 9767   2.943   1.867   9.903  0.2464 -0.8346  0.1958
   98OSM   H10S 9768   2.872   1.869   9.988 -0.6391  3.4454 -0.5426
   98OSM   H10T 9769   2.940   1.765   9.858  1.2154  0.0670 -1.9842
   98OSM   C11S 9770   2.891   1.969   9.794  0.4990 -0.3642  0.2445
   98OSM   H11S 9771   2.880   2.070   9.839 -0.6043  0.3125 -1.5218
   98OSM   H11T 9772   2.787   1.936   9.774 -0.0689 -0.1690  2.6864
   98OSM   C12S 9773   2.982   1.972   9.663 -0.4467  0.1178  0.0209
   98OSM   H12S 9774   3.002   1.868   9.629 -0.6903  0.9247 -2.6660
   98OSM   H12T 9775   3.084   2.004   9.695 -0.9044 -0.4672  2.1778
   98OSM   C13S 9776   2.932   2.053   9.552 -0.1732  0.0881 -0.4431
   98OSM   H13S 9777   2.902   2.151   9.595  1.9132  0.1910  0.8627
   98OSM   H13T 9778   2.839   2.005   9.516 -0.6984  1.6275 -1.2066
   98OSM   C14S 9779   3.040   2.084   9.439  0.7287 -0.1802  0.2277
   98OSM   H14S 9780   3.085   1.983   9.432  1.2362  0.0381  0.3134
   98OSM   H14T 9781   3.120   2.152   9.473 -0.3528  1.6080 -0.6994
   98OSM   C15S 9782   2.969   2.131   9.311  0.4350 -0.2106 -0.0284
   98OSM   H15S 9783   2.904   2.220   9.323 -0.7873 -0.9544 -1.0336
   98OSM   H15T 9784   2.904   2.055   9.264  1.4964 -0.0652 -1.7575
   98OSM   C16S 9785   3.078   2.164   9.207  0.0105 -0.3497  0.0847
   98OSM   H16S 9786   3.146   2.080   9.184 -1.0188 -1.4903  1.1029
   98OSM   H16T 9787   3.131   2.254   9.247 -1.3474  0.0374  1.0627
   98OSM   C17S 9788   3.014   2.193   9.073  0.4290 -0.2712  0.2540
   98OSM   H17S 9789   3.091   2.260   9.029  0.9652 -0.4420  0.9230
   98OSM   H17T 9790   2.921   2.253   9.087 -2.1859 -3.8820 -0.7914
   98OSM   C18S 9791   2.994   2.070   8.977 -0.4827  0.4229 -0.0682
   98OSM   H18S 9792   3.080   2.000   8.972 -0.8474 -0.0483  0.1428
   98OSM   H18T 9793   2.993   2.110   8.874  0.2115 -0.7271 -0.5381
   98OSM   H18U 9794   2.912   2.001   9.006  0.9055 -1.2426 -0.0134
   98OSM    C1F 9795   3.056   2.407  10.500  0.6054  0.1447  0.0127
   98OSM     OF 9796   3.134   2.463  10.575  0.8326  0.2790  0.3984
   98OSM    C2F 9797   3.042   2.456  10.359 -0.1204  0.0403  0.5607
   98OSM    H2F 9798   3.093   2.554  10.347 -2.1967  1.1712  0.6919
   98OSM    H2G 9799   2.935   2.480  10.338  0.0545  0.0364 -0.3821
   98OSM    C3F 9800   3.090   2.354  10.248 -0.4033 -1.0412  0.4806
   98OSM    H3F 9801   3.052   2.250  10.264  0.3312 -1.3489  0.2070
   98OSM    H3G 9802   3.199   2.361  10.266 -0.4306 -0.0661  0.2956
   98OSM    C4F 9803   3.059   2.418  10.110 -0.8323  0.1004  0.5127
   98OSM    H4F 9804   3.095   2.523  10.110 -1.7860  0.4364  1.8947
   98OSM    H4G 9805   2.952   2.445  10.099 -0.4044  0.4033 -4.0189
   98OSM    C5F 9806   3.111   2.323  10.004 -0.7857 -0.1668 -0.7911
   98OSM    H5F 9807   3.056   2.231  10.035 -1.6080  0.5060 -0.2095
   98OSM    H5G 9808   3.222   2.319  10.011 -0.7742  1.6319  0.6416
   98OSM    C6F 9809   3.076   2.358   9.859  0.1623 -0.4220 -0.4069
   98OSM    H6F 9810   2.970   2.391   9.859 -0.1753 -1.3945  1.9956
   98OSM    H6G 9811   3.073   2.271   9.790 -4.0391 -1.1098  0.5025
   98OSM    C7F 9812   3.157   2.480   9.815  0.7829  0.0257 -0.5610
   98OSM    H7F 9813   3.263   2.460   9.791  0.3649 -3.7465  0.3854
   98OSM    H7G 9814   3.139   2.552   9.898 -2.8717 -0.7530 -0.5719
   98OSM    C8F 9815   3.095   2.553   9.701  0.9343  0.6391 -0.5336
   98OSM    H8F 9816   3.155   2.638   9.662  0.6006  0.5404 -1.2678
   98OSM    H8G 9817   2.994   2.589   9.729  0.8985 -1.2883  1.9859
   98OSM    C9F 9818   3.074   2.455   9.587 -0.6271 -0.6338 -0.3564
   98OSM    H9F 9819   2.987   2.388   9.602 -0.2700 -1.0663 -0.2059
   98OSM   C10F 9820   3.130   2.463   9.461 -0.2294  0.2100  0.4369
   98OSM   H10F 9821   3.096   2.389   9.386 -0.0887  0.1818  0.4016
   98OSM   C11F 9822   3.231   2.562   9.405  0.3462  0.1439  0.3721
   98OSM   H11F 9823   3.329   2.511   9.397  2.3063  4.1807 -2.8343
   98OSM   H11G 9824   3.246   2.642   9.480  0.3607  2.4463 -2.0515
   98OSM   C12F 9825   3.200   2.636   9.274 -0.3132  0.1688 -0.0263
   98OSM   H12F 9826   3.264   2.726   9.270  0.0036 -0.0702 -0.3640
   98OSM   H12G 9827   3.091   2.658   9.275 -0.8337 -2.2729  0.9104
   98OSM   C13F 9828   3.208   2.551   9.148  0.0133 -0.3512 -0.3619
   98OSM   H13F 9829   3.127   2.476   9.144  0.5085 -0.7868 -2.7502
   98OSM   H13G 9830   3.301   2.490   9.150  0.4309  0.2643  3.7333
   98OSM   C14F 9831   3.228   2.650   9.033  0.2819  0.0591  0.2745
   98OSM   H14F 9832   3.327   2.694   9.057  1.0106 -0.6442 -1.4182
   98OSM   H14G 9833   3.150   2.728   9.047 -0.6426 -0.9791  0.9787
   98OSM   C15F 9834   3.223   2.590   8.896  0.3228  0.2910 -0.1385
   98OSM   H15F 9835   3.256   2.667   8.823  0.1351 -0.2154 -0.7576
   98OSM   H15G 9836   3.119   2.571   8.863  0.2118 -0.5050  0.6632
   98OSM   C16F 9837   3.325   2.469   8.865 -0.4940 -0.1172 -0.2920
   98OSM   H16F 9838   3.316   2.374   8.921  3.2256 -0.4838 -0.1816
   98OSM   H16G 9839   3.419   2.521   8.895 -0.9758  0.3781  0.3745
   98OSM   C17F 9840   3.346   2.427   8.717 -0.8580 -0.5870  0.4923
   98OSM   H17F 9841   3.390   2.517   8.669 -1.8037  0.1388  0.9471
   98OSM   H17G 9842   3.248   2.396   8.676 -0.4543 -0.8600 -0.2660
   98OSM   C18F 9843   3.452   2.316   8.698 -0.2745  0.5348  0.0755
   98OSM   H18F 9844   3.554   2.343   8.731 -0.3651  1.8822 -0.7585
   98OSM   H18G 9845   3.454   2.282   8.592  1.0665 -0.3206  0.3549
   98OSM   H18H 9846   3.412   2.230   8.757 -2.0806  1.0925 -0.3245
   99OSM      N 9847   5.046   3.462  11.284 -0.4204 -0.2627  0.3916
   99OSM    C15 9848   5.034   3.543  11.407 -0.7708  0.6403  0.3631
   99OSM   H15A 9849   4.931   3.552  11.439 -0.9178 -1.3050  0.5142
   99OSM   H15B 9850   5.071   3.643  11.391 -0.8876  0.7365  0.6804
   99OSM   H15C 9851   5.081   3.495  11.492  1.5921  2.3454  0.0438
   99OSM    C14 9852   5.192   3.465  11.239 -0.3626  0.0451 -1.0364
   99OSM   H14A 9853   5.267   3.450  11.315 -1.1117  0.9922 -0.1060
   99OSM   H14B 9854   5.206   3.561  11.192  0.8966  0.3948  0.0403
   99OSM   H14C 9855   5.208   3.390  11.163 -1.3595  1.2742 -2.4925
   99OSM    C13 9856   5.000   3.316  11.316 -0.0898 -0.9699 -0.0786
   99OSM   H13A 9857   4.899   3.313  11.353 -0.2171  0.8978 -0.2128
   99OSM   H13B 9858   5.073   3.269  11.380 -1.8401 -1.5647  1.5075
   99OSM   H13C 9859   4.996   3.262  11.222 -0.7042  2.6134 -2.2378
   99OSM    C12 9860   4.966   3.523  11.170  0.0399 -0.2878 -0.0045
   99OSM   H12A 9861   5.004   3.622  11.150 -0.4049 -0.3982 -1.4348
   99OSM   H12B 9862   4.862   3.521  11.198  0.5483 -1.3039  1.9458
   99OSM    C11 9863   4.980   3.451  11.032  0.0419  0.1027  0.4516
   99OSM   H11A 9864   4.894   3.473  10.965 -0.7500 -1.7992  0.8269
   99OSM   H11B 9865   4.975   3.344  11.061 -2.2982 -0.1489 -0.7408
   99OSM      P 9866   5.181   3.386  10.864  0.3623  0.0184 -0.3224
   99OSM    O13 9867   5.194   3.463  10.737  0.1903  0.0384  0.5484
   99OSM    O14 9868   5.303   3.358  10.940  0.0694  0.3237 -0.0347
   99OSM    O11 9869   5.085   3.263  10.863 -0.0121 -0.3046 -0.0271
   99OSM    O12 9870   5.107   3.485  10.968 -0.7467  0.2949  0.1438
   99OSM    C1S 9871   4.975   3.255  10.774  0.6828 -0.8719  0.3338
   99OSM    H1S 9872   4.943   3.358  10.748 -1.1404 -1.9174 -1.7708
   99OSM    H1T 9873   4.884   3.218  10.826  0.5692 -2.6179 -1.0523
   99OSM     NF 9874   4.879   3.201  10.556  0.9185 -0.5034  0.0233
   99OSM    HNF 9875   4.857   3.110  10.522 -2.5512  0.3769 -0.2820
   99OSM    C2S 9876   5.000   3.191  10.636  1.1161  0.0633  0.5589
   99OSM    H2S 9877   5.076   3.253  10.583  1.6465 -0.7483  0.3635
   99OSM    C3S 9878   5.046   3.046  10.644 -0.1784  0.4983 -0.4869
   99OSM    H3S 9879   4.977   2.982  10.702  0.9337  1.2204  1.6843
   99OSM     O3 9880   5.167   3.052  10.708 -0.1813 -0.4390 -0.2528
   99OSM    HO3 9881   5.164   3.126  10.769  1.9473 -1.1942  0.8355
   99OSM    C4S 9882   5.067   2.979  10.509  0.5178 -0.8168 -0.3801
   99OSM    H4S 9883   5.152   3.017  10.449  0.1424  1.8734  0.7121
   99OSM    C5S 9884   4.993   2.875  10.463  0.2660  0.1318 -0.0907
   99OSM    H5S 9885   4.912   2.829  10.522 -0.5165  0.0360 -1.2267
   99OSM    C6S 9886   5.011   2.813  10.330 -0.7023  0.1054  0.7712
   99OSM    H6S 9887   5.058   2.713  10.325 -0.8970 -0.0118  1.2801
   99OSM    H6T 9888   5.081   2.876  10.272  0.1487 -0.9081  0.6890
   99OSM    C7S 9889   4.879   2.822  10.249 -0.1934  0.2265  0.3294
   99OSM    H7S 9890   4.845   2.926  10.231  0.1286  0.1867 -0.5058
   99OSM    H7T 9891   4.797   2.762  10.295 -0.5673 -1.9318 -2.9808
   99OSM    C8S 9892   4.909   2.776  10.109  0.2427  0.1252  0.0216
   99OSM    H8S 9893   4.951   2.673  10.121 -0.2872 -0.1866 -0.7341
   99OSM    H8T 9894   4.989   2.834  10.058 -0.2706 -0.1545 -1.1252
   99OSM    C9S 9895   4.789   2.792  10.014  0.2980  0.6436  0.4218
   99OSM    H9S 9896   4.746   2.893  10.002  1.7780  1.3293  0.7072
   99OSM    H9T 9897   4.709   2.734  10.066 -0.8628 -1.5504 -3.5584
   99OSM   C10S 9898   4.793   2.718   9.877  0.3787  0.2224 -0.3992
   99OSM   H10S 9899   4.687   2.713   9.842  0.4005 -1.3811 -0.2971
   99OSM   H10T 9900   4.829   2.617   9.906  0.2247  0.0634 -0.7511
   99OSM   C11S 9901   4.869   2.795   9.765  0.0893 -0.1135  0.2368
   99OSM   H11S 9902   4.975   2.787   9.797  0.2864 -3.9256 -1.1496
   99OSM   H11T 9903   4.846   2.903   9.751  1.1789 -0.0609 -1.1716
   99OSM   C12S 9904   4.854   2.724   9.629  0.4650 -0.2325  0.4042
   99OSM   H12S 9905   4.900   2.623   9.621 -1.1793 -1.0362  0.8432
   99OSM   H12T 9906   4.747   2.701   9.612  0.4521  0.7897 -0.9172
   99OSM   C13S 9907   4.913   2.805   9.512 -0.6430 -0.2896  0.2333
   99OSM   H13S 9908   5.021   2.785   9.530 -0.2916  0.6888 -0.8051
   99OSM   H13T 9909   4.897   2.915   9.514 -0.6141 -0.2708 -0.5808
   99OSM   C14S 9910   4.882   2.747   9.371 -0.2144 -0.8164 -0.3073
   99OSM   H14S 9911   4.775   2.740   9.341 -0.8247  1.4128  1.2301
   99OSM   H14T 9912   4.904   2.639   9.386  2.9263  0.1860  3.1561
   99OSM   C15S 9913   4.974   2.806   9.262 -0.0222  0.2057 -0.5149
   99OSM   H15S 9914   5.080   2.789   9.290  0.1374  0.0920 -1.1714
   99OSM   H15T 9915   4.963   2.916   9.247 -0.7589  0.0181 -1.3599
   99OSM   C16S 9916   4.938   2.737   9.126 -0.0986  0.1216  0.2842
   99OSM   H16S 9917   4.831   2.762   9.111  0.4784  1.7064 -1.2824
   99OSM   H16T 9918   4.955   2.628   9.142  1.1632 -0.0542 -2.0053
   99OSM   C17S 9919   5.019   2.792   9.005 -0.1141 -0.3539  1.0065
   99OSM   H17S 9920   5.129   2.776   9.015 -0.1530 -0.5852  1.0775
   99OSM   H17T 9921   5.006   2.901   8.995  1.0726 -0.3616 -0.8495
   99OSM   C18S 9922   4.971   2.730   8.876 -0.2860 -0.2049 -0.1629
   99OSM   H18S 9923   4.997   2.622   8.870  0.3997 -0.0262 -0.3455
   99OSM   H18T 9924   5.026   2.786   8.798 -1.8059  2.1029  0.3691
   99OSM   H18U 9925   4.861   2.746   8.868 -0.1622  1.4852  1.3502
   99OSM    C1F 9926   4.840   3.314  10.491  0.1525  0.1119 -0.4327
   99OSM     OF 9927   4.896   3.423  10.508 -0.1831  0.4151  0.2030
   99OSM    C2F 9928   4.717   3.300  10.406 -0.1717 -0.7328 -0.4898
   99OSM    H2F 9929   4.624   3.308  10.467 -0.5930  1.1005 -1.3157
   99OSM    H2G 9930   4.710   3.192  10.381 -0.2650 -0.6164 -0.9683
   99OSM    C3F 9931   4.713   3.391  10.276  0.1820 -0.0618  1.2940
   99OSM    H3F 9932   4.618   3.371  10.221  1.8805 -0.0073 -1.7654
   99OSM    H3G 9933   4.702   3.499  10.300 -2.8792 -0.0405  0.0171
   99OSM    C4F 9934   4.826   3.366  10.178 -0.0993  0.3794  0.7411
   99OSM    H4F 9935   4.848   3.257  10.176 -0.8368  0.2475 -1.3957
   99OSM    H4G 9936   4.914   3.432  10.199  1.6592 -1.1386 -1.6221
   99OSM    C5F 9937   4.787   3.405  10.034 -0.1991  0.3396  0.6950
   99OSM    H5F 9938   4.746   3.508  10.037 -0.2181  0.4206 -1.6200
   99OSM    H5G 9939   4.710   3.335   9.996  1.0788 -1.3079  1.1024
   99OSM    C6F 9940   4.909   3.408   9.940  0.8163  0.3686 -0.1582
   99OSM    H6F 9941   4.994   3.435  10.005  0.8490 -1.0664  0.4068
   99OSM    H6G 9942   4.900   3.493   9.869  1.5533 -2.0724 -3.3272
   99OSM    C7F 9943   4.910   3.289   9.846 -0.0187  0.2521 -0.5629
   99OSM    H7F 9944   4.805   3.283   9.808  0.0755 -1.0172 -0.6619
   99OSM    H7G 9945   4.929   3.199   9.908  1.1235  0.8250 -0.0711
   99OSM    C8F 9946   5.008   3.300   9.729  0.0500 -0.0862 -0.0254
   99OSM    H8F 9947   5.105   3.314   9.781 -0.8081  0.5545  1.4375
   99OSM    H8G 9948   4.991   3.399   9.681  1.6343 -0.3473 -1.1603
   99OSM    C9F 9949   5.009   3.191   9.624  0.0238  0.2520 -0.2719
   99OSM    H9F 9950   5.041   3.096   9.669 -2.4132  0.2434  1.5288
   99OSM   C10F 9951   4.992   3.199   9.490 -0.4047  0.2537 -0.0459
   99OSM   H10F 9952   4.981   3.103   9.438  1.9752 -0.6464  1.0419
   99OSM   C11F 9953   4.953   3.318   9.410 -0.1596 -0.2529  0.6570
   99OSM   H11F 9954   5.022   3.352   9.330 -2.1870  1.6336 -0.3270
   99OSM   H11G 9955   4.944   3.404   9.480  0.6196  0.2332  0.1615
   99OSM   C12F 9956   4.816   3.298   9.353 -0.0032 -0.3309 -0.0698
   99OSM   H12F 9957   4.775   3.400   9.340 -2.2992 -1.0142  1.6008
   99OSM   H12G 9958   4.739   3.253   9.419 -1.9487 -0.3612 -2.2850
   99OSM   C13F 9959   4.804   3.231   9.211 -0.0419  0.2431  0.8117
   99OSM   H13F 9960   4.699   3.195   9.199 -0.0573  1.2954 -3.1057
   99OSM   H13G 9961   4.863   3.138   9.197 -2.5041 -1.3074  0.4009
   99OSM   C14F 9962   4.846   3.320   9.096  0.8884 -0.3668 -0.0698
   99OSM   H14F 9963   4.932   3.382   9.129 -2.1458  3.0471  1.8577
   99OSM   H14G 9964   4.764   3.392   9.074  0.6795 -0.0458  1.6953
   99OSM   C15F 9965   4.867   3.234   8.963  0.2759  0.5223 -0.2728
   99OSM   H15F 9966   4.775   3.178   8.937  1.0169  0.1162 -2.0672
   99OSM   H15G 9967   4.941   3.154   8.986 -1.4690 -1.5165 -1.5543
   99OSM   C16F 9968   4.922   3.314   8.848 -0.4502  0.5002 -0.4676
   99OSM   H16F 9969   5.015   3.368   8.874  1.2354 -2.2793 -0.4601
   99OSM   H16G 9970   4.851   3.393   8.816  0.9848  1.8914 -0.2681
   99OSM   C17F 9971   4.944   3.218   8.729 -0.2112 -0.1033  0.3605
   99OSM   H17F 9972   4.952   3.271   8.632 -0.2078 -1.6142 -0.4854
   99OSM   H17G 9973   4.843   3.172   8.720  0.2229 -0.7580 -1.3144
   99OSM   C18F 9974   5.063   3.123   8.735 -0.0052 -0.0445 -0.3132
   99OSM   H18F 9975   5.068   3.064   8.642 -2.0620 -1.2302  0.2910
   99OSM   H18G 9976   5.046   3.048   8.816 -2.1739 -0.0206 -0.7280
   99OSM   H18H 9977   5.161   3.172   8.756 -0.9113  2.1601 -1.0948
  100OSM      N 9978   0.858   3.796  10.845  0.2400  0.1569 -0.3286
  100OSM    C15 9979   0.992   3.857  10.842  0.2477 -0.0411 -0.0017
  100OSM   H15A 9980   1.046   3.841  10.934 -2.2804  0.7977  1.6927
  100OSM   H15B 9981   0.984   3.964  10.841 -0.6373 -0.0986 -1.2859
  100OSM   H15C 9982   1.048   3.828  10.754 -0.3660  0.1314 -0.4530
  100OSM    C14 9983   0.792   3.842  10.972 -0.2706  0.1452 -0.8285
  100OSM   H14A 9984   0.771   3.947  10.985 -0.1467 -0.0369  0.9832
  100OSM   H14B 9985   0.853   3.811  11.057 -0.5131  2.2004  0.1216
  100OSM   H14C 9986   0.696   3.794  10.985 -0.1125 -0.6535 -2.4551
  100OSM    C13 9987   0.770   3.848  10.736 -0.3750 -0.0479  0.1404
  100OSM   H13A 9988   0.668   3.820  10.755  0.1048 -0.1161  2.8082
  100OSM   H13B 9989   0.792   3.801  10.641 -2.4453 -0.5533 -0.1159
  100OSM   H13C 9990   0.770   3.956  10.744 -0.0344 -0.0840  0.6906
  100OSM    C12 9991   0.866   3.637  10.834 -0.3461 -0.1900  0.3925
  100OSM   H12A 9992   0.959   3.607  10.881 -0.0616 -2.4324 -1.5283
  100OSM   H12B 9993   0.864   3.613  10.729  3.0624 -3.4782  0.9719
  100OSM    C11 9994   0.750   3.550  10.895 -0.0854  0.7018 -0.9744
  100OSM   H11A 9995   0.738   3.571  11.003 -0.5717 -0.8105 -0.7225
  100OSM   H11B 9996   0.773   3.441  10.905 -1.3129  0.7671  3.5733
  100OSM      P 9997   0.592   3.512  10.691 -0.1642  0.0320  0.0928
  100OSM    O13 9998   0.589   3.363  10.705 -0.0740  0.0626 -0.2123
  100OSM    O14 9999   0.475   3.575  10.634  0.8140  0.3526  0.2477
  100OSM    O1110000   0.711   3.548  10.600 -0.1029  0.7141 -0.4256
  100OSM    O1210001   0.626   3.577  10.827 -0.1338 -0.1515  0.4761
  100OSM    C1S10002   0.751   3.493  10.475 -1.1073 -0.2482  0.2351
  100OSM    H1S10003   0.727   3.385  10.470  0.6655 -0.6568  0.1918
  100OSM    H1T10004   0.859   3.514  10.461 -1.0039 -0.5078  0.6346
  100OSM     NF10005   0.698   3.469  10.242 -0.1916  0.0236  0.3509
  100OSM    HNF10006   0.768   3.491  10.174 -0.4829  0.8229  0.3060
  100OSM    C2S10007   0.674   3.547  10.355  0.0205 -0.1093  0.4407
  100OSM    H2S10008   0.566   3.544  10.383 -0.3856  0.1026 -1.0506
  100OSM    C3S10009   0.713   3.696  10.335  0.6675 -0.1568 -0.5403
  100OSM    H3S10010   0.823   3.693  10.319  0.6303  0.6927 -0.9766
  100OSM     O310011   0.697   3.782  10.445 -0.1506  0.0278  0.1088
  100OSM    HO310012   0.648   3.730  10.508  0.5096  0.5865  1.0839
  100OSM    C4S10013   0.656   3.753  10.207  0.4844  0.8105 -0.8461
  100OSM    H4S10014   0.718   3.723  10.120  2.3126  1.1753  0.3057
  100OSM    C5S10015   0.540   3.817  10.179 -0.4744 -0.0402 -0.3638
  100OSM    H5S10016   0.460   3.830  10.254 -0.3861  0.1268 -0.2989
  100OSM    C6S10017   0.504   3.852  10.040  0.5940 -0.4605 -0.0084
  100OSM    H6S10018   0.532   3.953  10.004  0.4926 -0.4133  0.0455
  100OSM    H6T10019   0.393   3.855  10.043  0.5834 -1.3753  1.3440
  100OSM    C7S10020   0.539   3.761   9.918 -0.2906 -0.2340 -0.2811
  100OSM    H7S10021   0.509   3.654   9.930  0.7404 -0.5966 -0.8848
  100OSM    H7T10022   0.647   3.770   9.894 -0.2128  1.9019  0.7714
  100OSM    C8S10023   0.463   3.815   9.797 -0.3652  0.1528  0.4162
  100OSM    H8S10024   0.471   3.926   9.798 -0.6240  0.1873 -1.1558
  100OSM    H8T10025   0.355   3.790   9.804 -0.2620 -0.8193 -1.4062
  100OSM    C9S10026   0.515   3.761   9.672  0.3981 -0.5826  0.8659
  100OSM    H9S10027   0.497   3.651   9.668 -2.2621 -0.1574 -0.0672
  100OSM    H9T10028   0.624   3.782   9.664  0.1892  0.0606 -0.3797
  100OSM   C10S10029   0.445   3.817   9.544  0.0134 -0.2093 -0.4014
  100OSM   H10S10030   0.427   3.926   9.558 -1.2484 -0.5262  0.6081
  100OSM   H10T10031   0.344   3.771   9.533 -0.1433 -0.0974  0.4926
  100OSM   C11S10032   0.524   3.770   9.416  0.0299 -0.0585 -0.4293
  100OSM   H11S10033   0.524   3.659   9.411 -0.1030 -0.0477 -0.6843
  100OSM   H11T10034   0.619   3.826   9.427 -0.8856  1.1975  1.1129
  100OSM   C12S10035   0.463   3.826   9.280  0.1841  0.3483  0.0872
  100OSM   H12S10036   0.457   3.937   9.292  2.6500  0.6666 -1.2379
  100OSM   H12T10037   0.358   3.792   9.272  0.4583 -0.5548  0.3304
  100OSM   C13S10038   0.551   3.800   9.162 -0.5126 -0.1466  0.1881
  100OSM   H13S10039   0.562   3.690   9.154 -0.9049 -0.1327 -0.5823
  100OSM   H13T10040   0.651   3.848   9.169 -0.8061  0.3715  0.8823
  100OSM   C14S10041   0.494   3.839   9.027  0.1577 -0.1384  0.4875
  100OSM   H14S10042   0.466   3.946   9.032  1.5604  0.1983  1.3938
  100OSM   H14T10043   0.403   3.781   8.999  3.0192 -2.3440 -5.0920
  100OSM   C15S10044   0.591   3.808   8.913  0.9639 -0.2466  0.1880
  100OSM   H15S10045   0.601   3.697   8.909 -1.4117 -0.4857  0.5830
  100OSM   H15T10046   0.690   3.858   8.923  1.0046 -0.6982  2.1204
  100OSM   C16S10047   0.540   3.861   8.788  1.0244 -0.1990 -0.0753
  100OSM   H16S10048   0.528   3.971   8.798 -3.4137 -0.4846 -1.3311
  100OSM   H16T10049   0.436   3.832   8.763  0.4269  1.5370  0.2945
  100OSM   C17S10050   0.632   3.820   8.669 -0.0870 -0.1631  0.2248
  100OSM   H17S10051   0.579   3.828   8.572  1.1970 -1.0454 -0.5738
  100OSM   H17T10052   0.648   3.710   8.679  0.4728 -0.5189 -3.6971
  100OSM   C18S10053   0.765   3.889   8.661  0.3842  0.6371  0.4700
  100OSM   H18S10054   0.820   3.862   8.754 -1.2221 -1.3585  0.8734
  100OSM   H18T10055   0.758   3.999   8.648  0.4505  0.6776  0.7617
  100OSM   H18U10056   0.828   3.844   8.581  0.3097  1.0742  0.1609
  100OSM    C1F10057   0.625   3.357  10.228  0.6470  0.2996  0.0472
  100OSM     OF10058   0.540   3.318  10.310  0.2601  0.4657 -0.2994
  100OSM    C2F10059   0.636   3.281  10.098 -0.3440 -0.3883  0.4215
  100OSM    H2F10060   0.609   3.176  10.121 -0.6513 -0.4111 -0.0404
  100OSM    H2G10061   0.740   3.268  10.061 -1.3086 -0.5976 -2.3593
  100OSM    C3F10062   0.545   3.339   9.991  0.4424  0.4888 -0.3641
  100OSM    H3F10063   0.577   3.290   9.897 -0.9007 -0.1174 -0.5149
  100OSM    H3G10064   0.563   3.444   9.960  3.6552  0.0220 -0.2047
  100OSM    C4F10065   0.402   3.300   9.997 -0.4319  0.4647  0.0903
  100OSM    H4F10066   0.341   3.354  10.073 -0.9284 -0.4738  0.3677
  100OSM    H4G10067   0.398   3.197  10.039 -1.0646  0.5007  0.1262
  100OSM    C5F10068   0.322   3.300   9.867  0.6128  0.7498 -0.2402
  100OSM    H5F10069   0.215   3.273   9.882  0.9265 -0.1450  0.4206
  100OSM    H5G10070   0.354   3.220   9.798  0.5762  0.4739  0.0606
  100OSM    C6F10071   0.327   3.438   9.803  0.1738 -0.4484  0.8969
  100OSM    H6F10072   0.432   3.460   9.773 -0.3110  0.7116  0.0275
  100OSM    H6G10073   0.292   3.516   9.874  0.6596  0.3152  0.3066
  100OSM    C7F10074   0.227   3.451   9.684  0.5198 -0.6234 -0.5484
  100OSM    H7F10075   0.234   3.545   9.625  0.4132 -1.1011 -1.3255
  100OSM    H7G10076   0.124   3.456   9.724  0.3097  0.4056 -1.2090
  100OSM    C8F10077   0.223   3.341   9.582  0.2488  0.1251 -0.2333
  100OSM    H8F10078   0.135   3.366   9.519 -1.7062 -1.9778  1.6285
  100OSM    H8G10079   0.191   3.244   9.624  0.2472 -0.2231 -1.0191
  100OSM    C9F10080   0.355   3.323   9.506 -0.2755  0.1739 -0.0828
  100OSM    H9F10081   0.440   3.311   9.575 -0.0529  1.0701 -0.2051
  100OSM   C10F10082   0.380   3.322   9.376  0.4636  0.7157 -0.3632
  100OSM   H10F10083   0.476   3.281   9.341 -1.4333 -1.2768 -3.5574
  100OSM   C11F10084   0.265   3.335   9.273 -0.3888 -0.0334 -0.2423
  100OSM   H11F10085   0.166   3.367   9.310 -0.1239  1.2496 -0.6326
  100OSM   H11G10086   0.251   3.233   9.232 -0.4181  0.5951 -1.8041
  100OSM   C12F10087   0.315   3.405   9.140 -0.5666  0.1015 -0.3274
  100OSM   H12F10088   0.412   3.358   9.113 -0.3284  0.9922 -1.0709
  100OSM   H12G10089   0.345   3.509   9.166 -3.6328  1.0984 -0.5889
  100OSM   C13F10090   0.214   3.420   9.022 -0.4337  0.1780  0.0743
  100OSM   H13F10091   0.137   3.484   9.070  0.6137  1.5549 -0.0248
  100OSM   H13G10092   0.184   3.320   8.985  1.1206  0.2257 -1.4382
  100OSM   C14F10093   0.272   3.503   8.904  0.0238 -0.5947  0.7088
  100OSM   H14F10094   0.381   3.486   8.886  0.0132  1.1736 -1.2942
  100OSM   H14G10095   0.265   3.611   8.929 -1.6932 -0.0209 -1.9904
  100OSM   C15F10096   0.208   3.478   8.774 -0.0442  0.4797  0.2799
  100OSM   H15F10097   0.098   3.483   8.783  0.0113  1.9594  0.2186
  100OSM   H15G10098   0.235   3.380   8.729 -1.8977  0.3358 -0.5347
  100OSM   C16F10099   0.252   3.581   8.665 -0.2522  0.4398 -0.0910
  100OSM   H16F10100   0.358   3.607   8.682  0.1480  0.2779 -2.1415
  100OSM   H16G10101   0.176   3.662   8.675 -2.8457 -1.9680  0.3741
  100OSM   C17F10102   0.254   3.529   8.521 -0.5447  0.4111 -0.1323
  100OSM   H17F10103   0.159   3.482   8.490 -0.5256 -0.9802  1.7606
  100OSM   H17G10104   0.327   3.447   8.502  0.8635  1.3500  1.0620
  100OSM   C18F10105   0.295   3.634   8.422 -0.3465  0.3525 -0.4732
  100OSM   H18F10106   0.221   3.716   8.419  0.2135  0.9650  1.6570
  100OSM   H18G10107   0.299   3.604   8.315 -1.3052 -0.5017 -0.2738
  100OSM   H18H10108   0.389   3.687   8.449 -0.6078  1.4342 -1.6482
  101OSM      N10109   2.889   4.469  11.151  0.2644  0.0553  0.0800
  101OSM    C1510110   2.855   4.354  11.240 -0.0842 -0.4186  0.2805
  101OSM   H15A10111   2.798   4.373  11.330 -0.5136 -0.2435 -0.0247
  101OSM   H15B10112   2.943   4.295  11.259 -1.0155 -2.5865 -1.8428
  101OSM   H15C10113   2.806   4.282  11.176  1.1874 -0.4846 -0.6255
  101OSM    C1410114   2.754   4.540  11.126 -0.7950  0.1545  0.3626
  101OSM   H14A10115   2.767   4.610  11.045  0.6024 -0.0024  0.4484
  101OSM   H14B10116   2.700   4.585  11.208  2.0831  1.0437  1.8449
  101OSM   H14C10117   2.686   4.468  11.082  2.5322 -1.4156 -2.3914
  101OSM    C1310118   2.984   4.568  11.216  0.9511 -0.4154  0.0822
  101OSM   H13A10119   3.082   4.523  11.225  0.7712 -1.6958 -3.6072
  101OSM   H13B10120   2.944   4.604  11.309 -1.4566  1.4005 -1.5777
  101OSM   H13C10121   2.995   4.645  11.141 -0.6828 -1.3072 -1.1050
  101OSM    C1210122   2.959   4.417  11.025  0.6886  0.0956  0.4464
  101OSM   H12A10123   2.976   4.500  10.958  1.6794 -1.0089 -0.7020
  101OSM   H12B10124   2.900   4.352  10.962  0.8379  0.6051 -0.2223
  101OSM    C1110125   3.079   4.328  11.037 -0.1489 -0.6493  0.2472
  101OSM   H11A10126   3.165   4.377  11.087  0.2182 -0.3856 -0.6213
  101OSM   H11B10127   3.120   4.309  10.935 -0.3249 -2.3153  0.4722
  101OSM      P10128   3.105   4.070  11.045 -0.4256  0.2968 -0.4419
  101OSM    O1310129   3.058   3.965  11.137  0.0252 -0.1254 -0.3734
  101OSM    O1410130   3.075   4.057  10.903  0.1016  0.0431  0.0104
  101OSM    O1110131   3.263   4.083  11.057  0.0578  0.4909 -0.2821
  101OSM    O1210132   3.041   4.205  11.093 -0.0716  0.2643 -0.4019
  101OSM    C1S10133   3.359   4.087  10.956  0.0250  0.2813  0.6459
  101OSM    H1S10134   3.324   4.026  10.870  0.0559  0.1005  0.7624
  101OSM    H1T10135   3.452   4.037  10.990  1.0021  2.7749  1.7223
  101OSM     NF10136   3.481   4.212  10.782  0.2033 -0.0127 -0.9281
  101OSM    HNF10137   3.579   4.230  10.776  0.0746  0.8364 -0.5646
  101OSM    C2S10138   3.410   4.221  10.911 -0.0992 -0.0677 -0.5273
  101OSM    H2S10139   3.316   4.277  10.893 -1.1229 -2.1347 -1.8178
  101OSM    C3S10140   3.493   4.280  11.029 -0.3551  0.9514  0.0686
  101OSM    H3S10141   3.583   4.217  11.047 -0.2264  0.8714 -0.8597
  101OSM     O310142   3.428   4.267  11.155 -0.1982  0.3321  0.4403
  101OSM    HO310143   3.357   4.208  11.129  0.8050 -0.1636 -1.2502
  101OSM    C4S10144   3.536   4.416  10.989 -0.4191 -0.4882 -0.1555
  101OSM    H4S10145   3.626   4.410  10.926  1.4500  1.1445  2.2829
  101OSM    C5S10146   3.497   4.534  11.027  0.0260 -0.2729 -0.1912
  101OSM    H5S10147   3.405   4.546  11.086  0.5091 -0.7591  0.6710
  101OSM    C6S10148   3.556   4.665  10.966  0.5451 -0.5415 -0.6411
  101OSM    H6S10149   3.492   4.720  10.894  0.8997  0.6300 -0.0698
  101OSM    H6T10150   3.649   4.645  10.909  1.2194  0.5124  0.0749
  101OSM    C7S10151   3.580   4.776  11.064  0.8466  0.4645  0.1567
  101OSM    H7S10152   3.488   4.795  11.124  0.7742  1.4560 -0.2558
  101OSM    H7T10153   3.607   4.873  11.018  1.2580 -0.3755 -1.3768
  101OSM    C8S10154   3.693   4.739  11.154 -0.0183 -0.1838 -0.0257
  101OSM    H8S10155   3.781   4.805  11.136  0.1025 -0.8884 -2.1181
  101OSM    H8T10156   3.722   4.633  11.139 -0.6206 -0.6828  2.2423
  101OSM    C9S10157   3.655   4.749  11.305  0.2106  0.9042  0.6452
  101OSM    H9S10158   3.553   4.704  11.311  1.3364 -1.5292  1.9967
  101OSM    H9T10159   3.639   4.856  11.333  0.7198  1.3619 -0.7924
  101OSM   C10S10160   3.740   4.670  11.403 -0.6668  0.0683 -0.2644
  101OSM   H10S10161   3.846   4.684  11.373 -0.7838  2.0783  0.2044
  101OSM   H10T10162   3.738   4.560  11.388 -0.3429 -0.1010  0.9172
  101OSM   C11S10163   3.711   4.719  11.547 -0.1014 -0.0942  0.6152
  101OSM   H11S10164   3.726   4.830  11.545  1.9856 -0.3654 -0.2916
  101OSM   H11T10165   3.778   4.675  11.624 -0.9665 -0.5741  1.1007
  101OSM   C12S10166   3.557   4.697  11.593  0.0191 -0.3855  0.0664
  101OSM   H12S10167   3.525   4.591  11.593 -1.6998  0.1203 -0.4672
  101OSM   H12T10168   3.482   4.747  11.527  0.6015 -0.6661 -0.8255
  101OSM   C13S10169   3.535   4.751  11.734  0.4957  0.2021 -0.0231
  101OSM   H13S10170   3.587   4.677  11.798 -0.5273 -0.1359  0.4185
  101OSM   H13T10171   3.426   4.741  11.749  0.3391  1.8881  0.0572
  101OSM   C14S10172   3.596   4.889  11.769  0.1178  0.1556 -0.7641
  101OSM   H14S10173   3.588   4.979  11.703 -3.8255 -0.6006 -1.4146
  101OSM   H14T10174   3.705   4.870  11.781  0.2534  1.3261 -0.0406
  101OSM   C15S10175   3.571   4.945  11.914 -0.2144 -0.0668  0.4553
  101OSM   H15S10176   3.462   4.969  11.910  0.3451  2.4175 -1.1906
  101OSM   H15T10177   3.626   5.040  11.931  2.1220 -1.3402  0.1239
  101OSM   C16S10178   3.599   4.836  12.024 -0.2212 -0.3975  0.1273
  101OSM   H16S10179   3.706   4.808  12.010  0.0132  0.5934 -0.1055
  101OSM   H16T10180   3.541   4.745  11.999 -0.6099  0.8771 -3.9773
  101OSM   C17S10181   3.564   4.893  12.158  0.0397 -0.3178 -0.3138
  101OSM   H17S10182   3.478   4.963  12.156 -1.3958 -2.0895 -1.6178
  101OSM   H17T10183   3.653   4.948  12.198  0.7034  0.0581 -2.2247
  101OSM   C18S10184   3.525   4.777  12.256  0.3259 -0.1113 -0.4951
  101OSM   H18S10185   3.442   4.712  12.219 -1.3922  0.5902  2.0126
  101OSM   H18T10186   3.500   4.823  12.354 -0.6107  0.0236 -0.7894
  101OSM   H18U10187   3.611   4.709  12.275  0.4641  0.0958 -0.3778
  101OSM    C1F10188   3.427   4.196  10.667 -0.1625 -0.2478 -1.1590
  101OSM     OF10189   3.306   4.197  10.657 -0.4936 -0.2643 -0.1268
  101OSM    C2F10190   3.518   4.181  10.544  0.2583 -0.5170  0.2097
  101OSM    H2F10191   3.556   4.077  10.534 -1.2577 -0.8821 -2.2113
  101OSM    H2G10192   3.592   4.261  10.566  0.6678 -0.3910 -1.5157
  101OSM    C3F10193   3.443   4.225  10.415  0.0957  0.2115  0.0822
  101OSM    H3F10194   3.421   4.333  10.425 -0.0602  0.3263 -1.3876
  101OSM    H3G10195   3.349   4.166  10.407  0.6120 -0.8360  1.5560
  101OSM    C4F10196   3.529   4.200  10.292 -0.4255  0.2248  0.1057
  101OSM    H4F10197   3.563   4.095  10.285  1.3163  0.7383  0.5616
  101OSM    H4G10198   3.627   4.251  10.303 -1.2373  1.6030  1.1840
  101OSM    C5F10199   3.467   4.259  10.167 -0.3908  0.3482  0.2480
  101OSM    H5F10200   3.416   4.353  10.196 -1.1819 -0.4033  1.3425
  101OSM    H5G10201   3.392   4.191  10.121  1.3540  0.0171 -2.2410
  101OSM    C6F10202   3.578   4.304  10.072  0.3059 -0.3412  0.1151
  101OSM    H6F10203   3.526   4.326   9.977  0.5354 -1.2936 -0.2316
  101OSM    H6G10204   3.630   4.400  10.093 -1.8490  1.1175 -0.9865
  101OSM    C7F10205   3.688   4.204  10.012  0.3591  0.2547  0.4405
  101OSM    H7F10206   3.759   4.170  10.090  0.4380 -1.8846 -0.5461
  101OSM    H7G10207   3.748   4.267   9.942 -0.3017  1.5417  1.0079
  101OSM    C8F10208   3.624   4.084   9.933 -0.6319  0.1531 -0.2034
  101OSM    H8F10209   3.551   4.129   9.862 -2.7952 -1.5378  0.8678
  101OSM    H8G10210   3.559   4.018   9.996  0.5625 -0.0316  0.8607
  101OSM    C9F10211   3.727   4.012   9.856  0.4220  0.7471 -0.2930
  101OSM    H9F10212   3.795   4.064   9.787  1.9437 -1.6333 -0.6773
  101OSM   C10F10213   3.725   3.876   9.855  0.3990  0.1916  0.2278
  101OSM   H10F10214   3.805   3.832   9.793 -0.4733 -2.5999  0.9782
  101OSM   C11F10215   3.636   3.774   9.919 -0.2703 -0.1172  0.4506
  101OSM   H11F10216   3.623   3.687   9.852  0.6686 -0.9552  1.3435
  101OSM   H11G10217   3.532   3.811   9.933 -0.2146  0.1327  0.2135
  101OSM   C12F10218   3.687   3.729  10.064  0.0751  0.4132  0.0577
  101OSM   H12F10219   3.686   3.816  10.134 -0.7178  2.0711 -1.9557
  101OSM   H12G10220   3.792   3.695  10.057 -0.3449 -0.8104 -0.4145
  101OSM   C13F10221   3.596   3.613  10.119  0.2652 -0.3032 -0.0980
  101OSM   H13F10222   3.587   3.543  10.033 -0.1930 -0.4808  0.0931
  101OSM   H13G10223   3.492   3.642  10.145 -0.0147 -1.5936  0.2175
  101OSM   C14F10224   3.650   3.552  10.247 -0.0788  0.6161 -0.0420
  101OSM   H14F10225   3.757   3.525  10.243 -0.6908 -2.3512  1.5552
  101OSM   H14G10226   3.598   3.455  10.264  2.3080 -0.9281 -1.2930
  101OSM   C15F10227   3.625   3.638  10.366 -0.2014  0.6085 -0.2579
  101OSM   H15F10228   3.685   3.731  10.357  1.0808 -0.0025  1.6880
  101OSM   H15G10229   3.678   3.585  10.448 -1.4760  1.9339  1.4913
  101OSM   C16F10230   3.491   3.678  10.411 -0.0807  0.0015 -0.3362
  101OSM   H16F10231   3.427   3.593  10.442 -0.1756  0.2833  0.2692
  101OSM   H16G10232   3.425   3.722  10.333 -0.3652  2.0084  0.9901
  101OSM   C17F10233   3.482   3.769  10.542  0.7875 -0.0683 -1.0684
  101OSM   H17F10234   3.555   3.852  10.535  0.1681  0.6679  0.9238
  101OSM   H17G10235   3.511   3.708  10.630 -1.4463 -0.7910 -0.7905
  101OSM   C18F10236   3.335   3.813  10.575 -0.5832 -0.1317  0.3393
  101OSM   H18F10237   3.258   3.734  10.585  0.1102 -0.8810 -0.2567
  101OSM   H18G10238   3.300   3.883  10.496  0.7764  2.5703  2.0434
  101OSM   H18H10239   3.329   3.874  10.668 -1.5476 -0.0946  0.2576
  102OSM      N10240   5.823   6.292  11.062  0.0171  0.4922  0.3880
  102OSM    C1510241   5.968   6.327  11.038 -0.4595 -0.5318  0.8830
  102OSM   H15A10242   6.019   6.354  11.130 -1.5928  1.4677  0.9516
  102OSM   H15B10243   5.968   6.421  10.985  0.4772 -0.3503  1.1930
  102OSM   H15C10244   6.017   6.246  10.986 -2.0874 -2.5751  2.4274
  102OSM    C1410245   5.802   6.149  11.107  0.2968 -0.5032 -0.6614
  102OSM   H14A10246   5.803   6.081  11.023 -1.1445 -2.3393  0.7674
  102OSM   H14B10247   5.706   6.132  11.155  3.0022 -2.6270  4.3461
  102OSM   H14C10248   5.882   6.121  11.174 -1.1228 -0.7402  0.9813
  102OSM    C1310249   5.757   6.372  11.170  0.5931  0.0127  0.7431
  102OSM   H13A10250   5.791   6.353  11.271  0.6589  1.0973  0.9370
  102OSM   H13B10251   5.651   6.349  11.170 -0.0045  2.4939 -0.5427
  102OSM   H13C10252   5.763   6.479  11.159  0.6816 -0.3511 -3.2219
  102OSM    C1210253   5.740   6.306  10.932 -0.0141  0.1386 -0.3116
  102OSM   H12A10254   5.717   6.409  10.909 -1.5849  0.3672  2.0456
  102OSM   H12B10255   5.640   6.267  10.942  0.4837 -1.0811  0.0593
  102OSM    C1110256   5.782   6.225  10.803 -0.2487  0.3596 -0.5334
  102OSM   H11A10257   5.893   6.237  10.802 -0.1506  1.5623  5.0017
  102OSM   H11B10258   5.740   6.274  10.713  0.8076  3.6284  0.6561
  102OSM      P10259   5.601   6.053  10.762 -0.4053  0.0488  0.0955
  102OSM    O1310260   5.578   5.912  10.780  0.0210 -0.2019 -0.0111
  102OSM    O1410261   5.510   6.145  10.828  0.7098 -0.4843  0.5772
  102OSM    O1110262   5.604   6.084  10.610 -0.6641 -0.5358 -0.2642
  102OSM    O1210263   5.747   6.087  10.815  0.3750  0.2592  0.2428
  102OSM    C1S10264   5.722   6.040  10.535  0.1679 -0.0556 -0.0893
  102OSM    H1S10265   5.780   5.966  10.593 -2.6152  0.4668  3.5666
  102OSM    H1T10266   5.791   6.126  10.522 -0.8284  0.5264 -1.7017
  102OSM     NF10267   5.783   5.900  10.334 -0.3753  0.1346 -0.3344
  102OSM    HNF10268   5.834   5.930  10.254  1.7563 -1.2121  0.4997
  102OSM    C2S10269   5.686   5.986  10.395 -0.8627 -0.5833 -0.1135
  102OSM    H2S10270   5.591   5.928  10.398 -1.0112 -0.3207  0.1961
  102OSM    C3S10271   5.646   6.114  10.304  0.2598  0.5681  0.7111
  102OSM    H3S10272   5.726   6.192  10.301  0.0729  0.7364 -0.2046
  102OSM     O310273   5.534   6.178  10.357 -0.0261 -0.5747 -0.1136
  102OSM    HO310274   5.519   6.129  10.438  2.1309 -1.6276 -0.2905
  102OSM    C4S10275   5.622   6.085  10.160 -0.8701 -0.3655  0.0424
  102OSM    H4S10276   5.550   6.006  10.139  0.7917 -1.2492 -2.5691
  102OSM    C5S10277   5.700   6.141  10.059  0.0410 -0.5620 -0.5294
  102OSM    H5S10278   5.770   6.220  10.086  0.7037 -0.8115 -1.5139
  102OSM    C6S10279   5.687   6.098   9.915  0.9815 -0.0333  1.3587
  102OSM    H6S10280   5.789   6.071   9.882  0.6427 -2.1281  1.9190
  102OSM    H6T10281   5.652   6.186   9.857  0.3483 -1.2873 -0.2276
  102OSM    C7S10282   5.599   5.982   9.879  0.4516 -0.0913  0.4632
  102OSM    H7S10283   5.490   5.997   9.896  0.5833  0.2226  1.0538
  102OSM    H7T10284   5.625   5.899   9.948  3.1205  1.5878  1.5464
  102OSM    C8S10285   5.622   5.934   9.734 -0.7379 -0.3156  0.6509
  102OSM    H8S10286   5.544   5.857   9.715 -0.2097 -0.3182 -1.6756
  102OSM    H8T10287   5.723   5.890   9.721  0.2114  1.8113  0.6368
  102OSM    C9S10288   5.597   6.037   9.620  0.3803 -0.3434  0.8581
  102OSM    H9S10289   5.689   6.100   9.613  0.9720 -1.3479 -0.5800
  102OSM    H9T10290   5.514   6.109   9.635  0.5306 -0.2549  1.2781
  102OSM   C10S10291   5.571   5.950   9.490 -0.0967  0.1913 -0.4939
  102OSM   H10S10292   5.470   5.905   9.491  0.4061 -0.9742 -0.3657
  102OSM   H10T10293   5.648   5.870   9.488  0.9569  1.1893 -0.5634
  102OSM   C11S10294   5.583   6.027   9.352  0.2636  0.3214 -0.1067
  102OSM   H11S10295   5.678   6.083   9.366  0.8472 -0.5577 -0.4879
  102OSM   H11T10296   5.492   6.089   9.354  0.1145  0.1195 -0.7026
  102OSM   C12S10297   5.593   5.933   9.237  0.2554 -0.0521 -0.5618
  102OSM   H12S10298   5.501   5.870   9.241  1.1114 -1.2109  2.0182
  102OSM   H12T10299   5.679   5.864   9.249 -0.9420 -1.6128 -0.7638
  102OSM   C13S10300   5.599   6.001   9.097  0.2806  0.6499 -0.3541
  102OSM   H13S10301   5.685   6.072   9.089 -0.1637  1.1453 -0.7331
  102OSM   H13T10302   5.514   6.071   9.079  0.4653  0.7063 -1.0191
  102OSM   C14S10303   5.609   5.903   8.988 -0.1908  0.0906 -0.2242
  102OSM   H14S10304   5.513   5.848   8.976  0.3817 -1.7068  2.9630
  102OSM   H14T10305   5.680   5.818   8.998 -0.6124 -0.4520 -1.7165
  102OSM   C15S10306   5.659   5.973   8.853  0.8292 -0.0252 -0.1540
  102OSM   H15S10307   5.767   6.001   8.852  1.7448 -3.2993  0.4908
  102OSM   H15T10308   5.596   6.064   8.847  1.0466  0.2713  1.7548
  102OSM   C16S10309   5.623   5.886   8.733 -0.6086  0.2399 -0.2018
  102OSM   H16S10310   5.513   5.877   8.728 -0.7989  1.7968  0.7817
  102OSM   H16T10311   5.675   5.788   8.741 -0.6420  0.0749 -1.9167
  102OSM   C17S10312   5.657   5.953   8.604  0.4199  0.3430  0.3731
  102OSM   H17S10313   5.747   6.018   8.613  1.2580 -0.7999  0.4568
  102OSM   H17T10314   5.579   6.024   8.571 -0.7662 -0.9418  0.3712
  102OSM   C18S10315   5.675   5.846   8.486 -0.6043  1.0357  0.1066
  102OSM   H18S10316   5.579   5.789   8.481  0.8321 -1.6791  2.3161
  102OSM   H18T10317   5.755   5.771   8.502  0.2447  1.6958 -1.0091
  102OSM   H18U10318   5.693   5.899   8.390  1.5396 -1.1027 -0.7242
  102OSM    C1F10319   5.822   5.784  10.396  0.0183  0.1189  0.2048
  102OSM     OF10320   5.746   5.732  10.473  0.1702  0.4714 -0.2639
  102OSM    C2F10321   5.961   5.733  10.373 -0.0925  0.0657 -0.1399
  102OSM    H2F10322   6.013   5.691  10.462  2.5103  0.2499 -1.5200
  102OSM    H2G10323   6.027   5.816  10.340 -1.1571  0.9764  0.0233
  102OSM    C3F10324   5.968   5.629  10.259  0.3440 -0.0510  0.1325
  102OSM    H3F10325   5.886   5.558  10.286 -1.4683  1.8152 -0.3486
  102OSM    H3G10326   6.051   5.556  10.275 -1.9496 -2.8287 -0.2682
  102OSM    C4F10327   5.958   5.683  10.122 -0.2923 -0.3907 -0.5538
  102OSM    H4F10328   6.045   5.749  10.101 -0.4147 -0.3685 -0.9927
  102OSM    H4G10329   5.872   5.751  10.106  0.1672  0.6140  1.1257
  102OSM    C5F10330   5.940   5.575  10.010  0.0047  0.5984  0.2794
  102OSM    H5F10331   5.853   5.509  10.033 -0.6150  0.9211 -1.1292
  102OSM    H5G10332   6.034   5.518  10.002 -0.9883 -1.1175  0.5573
  102OSM    C6F10333   5.920   5.641   9.873 -0.0207  0.2233 -0.4655
  102OSM    H6F10334   5.977   5.736   9.873 -1.4229  1.0688  0.0721
  102OSM    H6G10335   5.814   5.666   9.856 -0.2636 -0.5111 -0.0519
  102OSM    C7F10336   5.984   5.565   9.757 -0.1099 -0.7053  0.2623
  102OSM    H7F10337   5.933   5.467   9.750 -1.5162  0.1648 -2.7020
  102OSM    H7G10338   6.091   5.551   9.779  0.0257 -2.5354 -1.4200
  102OSM    C8F10339   5.972   5.627   9.622 -0.3765 -0.4030  0.3655
  102OSM    H8F10340   6.007   5.543   9.559 -2.1820 -1.5928  0.8780
  102OSM    H8G10341   6.038   5.715   9.611 -1.9280  0.5160 -1.9993
  102OSM    C9F10342   5.832   5.663   9.576 -0.5667 -0.2785 -0.5914
  102OSM    H9F10343   5.775   5.726   9.645  1.9168 -1.4384  2.6666
  102OSM   C10F10344   5.771   5.627   9.462 -0.1747 -0.3722  0.1179
  102OSM   H10F10345   5.670   5.662   9.437 -1.2446 -3.2808  0.2693
  102OSM   C11F10346   5.821   5.537   9.352 -0.5008 -0.0242  0.1332
  102OSM   H11F10347   5.741   5.465   9.321 -1.2967  0.2563  1.5246
  102OSM   H11G10348   5.912   5.484   9.386 -0.6974 -2.2349 -2.5514
  102OSM   C12F10349   5.838   5.615   9.221 -0.0367 -0.7395  0.5841
  102OSM   H12F10350   5.906   5.702   9.234  0.2471 -1.2016  2.3495
  102OSM   H12G10351   5.747   5.668   9.184  0.8407 -0.0545 -0.6656
  102OSM   C13F10352   5.913   5.533   9.117 -0.6195 -0.3262 -0.3765
  102OSM   H13F10353   5.905   5.423   9.131 -0.1000 -0.4864 -1.2614
  102OSM   H13G10354   6.023   5.552   9.115 -0.1942 -2.5170  0.3058
  102OSM   C14F10355   5.854   5.564   8.979 -0.8727 -0.0120 -0.2466
  102OSM   H14F10356   5.839   5.674   8.976 -3.0904 -0.2414  0.8533
  102OSM   H14G10357   5.756   5.512   8.972  0.0651 -2.4947  3.3963
  102OSM   C15F10358   5.960   5.535   8.876 -0.0267  0.2557  0.0227
  102OSM   H15F10359   5.983   5.426   8.873 -0.4704  0.2027 -2.1634
  102OSM   H15G10360   6.051   5.587   8.915  1.0002 -1.2715 -0.2710
  102OSM   C16F10361   5.926   5.603   8.746  0.6033 -0.1643  0.4325
  102OSM   H16F10362   5.927   5.714   8.752  0.3684 -0.1507  0.2154
  102OSM   H16G10363   5.822   5.580   8.715  1.1979 -0.0521 -1.7704
  102OSM   C17F10364   6.018   5.561   8.629 -0.1086 -0.0083 -0.0547
  102OSM   H17F10365   5.996   5.625   8.540 -2.1107  0.1974  0.5738
  102OSM   H17G10366   6.011   5.452   8.607 -1.4998 -0.4067  2.1871
  102OSM   C18F10367   6.176   5.575   8.660 -0.6788 -0.2686 -0.5225
  102OSM   H18F10368   6.190   5.676   8.703 -1.6728  0.0186 -0.8789
  102OSM   H18G10369   6.234   5.548   8.569 -0.1555 -1.3362  0.1180
  102OSM   H18H10370   6.209   5.503   8.738  1.5830  3.1739  1.8345
  103OSM      N10371   4.738   2.200  11.063  0.5567  0.0085  0.6140
  103OSM    C1510372   4.780   2.341  11.054  0.2930  0.3233  0.0067
  103OSM   H15A10373   4.788   2.388  11.151 -0.5199 -0.2363  0.3475
  103OSM   H15B10374   4.713   2.402  10.996 -0.5027  1.5397  2.1567
  103OSM   H15C10375   4.875   2.349  11.003  1.2046 -0.1761  1.6016
  103OSM    C1410376   4.868   2.123  11.084 -0.0509  0.6450  0.5379
  103OSM   H14A10377   4.948   2.162  11.023 -0.5307 -0.1110 -0.5793
  103OSM   H14B10378   4.852   2.021  11.053 -3.2937  0.9512  1.0472
  103OSM   H14C10379   4.908   2.130  11.184 -0.6716  1.9759  0.7026
  103OSM    C1310380   4.648   2.186  11.180  0.2722 -0.5940 -0.2119
  103OSM   H13A10381   4.620   2.082  11.187 -0.1769 -0.3529  1.6329
  103OSM   H13B10382   4.555   2.241  11.177  0.3749 -0.3629  0.7295
  103OSM   H13C10383   4.711   2.203  11.266  1.1095 -0.0818 -0.9148
  103OSM    C1210384   4.678   2.151  10.929 -0.7213 -0.0550  0.4357
  103OSM   H12A10385   4.682   2.043  10.919  0.9615 -0.2454  2.6223
  103OSM   H12B10386   4.750   2.183  10.856 -1.3322  2.9235  1.0849
  103OSM    C1110387   4.540   2.213  10.898  0.4470 -0.4232 -0.1959
  103OSM   H11A10388   4.455   2.194  10.968  1.1045  0.3757  0.8269
  103OSM   H11B10389   4.514   2.158  10.806  1.4284 -0.1089 -0.6624
  103OSM      P10390   4.460   2.461  10.923  0.0643  0.0867  0.0611
  103OSM    O1310391   4.416   2.427  11.058  0.3717 -0.2946  0.1940
  103OSM    O1410392   4.521   2.590  10.904  0.1592 -0.1009 -0.3099
  103OSM    O1110393   4.331   2.451  10.832  0.2494 -0.7035 -0.9796
  103OSM    O1210394   4.558   2.348  10.862 -0.0220  0.0968  0.4575
  103OSM    C1S10395   4.344   2.520  10.710  0.6162 -0.1002  0.0334
  103OSM    H1S10396   4.448   2.520  10.670  0.5289 -0.5411 -0.2015
  103OSM    H1T10397   4.318   2.627  10.727  1.3924  0.1158 -0.1142
  103OSM     NF10398   4.243   2.556  10.488  0.1778 -0.0968  0.2559
  103OSM    HNF10399   4.154   2.600  10.475 -0.0341 -0.2183  1.2407
  103OSM    C2S10400   4.258   2.462  10.590  0.0443  0.3195  0.0215
  103OSM    H2S10401   4.308   2.367  10.562 -0.0927  0.7855 -1.8587
  103OSM    C3S10402   4.124   2.415  10.648 -0.5409 -0.1665  0.2090
  103OSM    H3S10403   4.070   2.504  10.689 -0.8795 -0.2428 -0.0624
  103OSM     O310404   4.128   2.316  10.750 -0.3436  0.1889  0.7326
  103OSM    HO310405   4.221   2.311  10.773 -0.2713 -0.0043  0.4027
  103OSM    C4S10406   4.031   2.356  10.540  0.4242 -0.0147 -0.2802
  103OSM    H4S10407   4.059   2.252  10.519 -2.8641 -1.0938  0.3761
  103OSM    C5S10408   3.920   2.415  10.486  0.3546  0.5522 -0.1893
  103OSM    H5S10409   3.899   2.517  10.522 -1.6137  0.1392 -0.0981
  103OSM    C6S10410   3.831   2.358  10.375 -0.5022  0.1387 -0.1067
  103OSM    H6S10411   3.726   2.378  10.406 -0.5490 -2.0478  1.2458
  103OSM    H6T10412   3.846   2.248  10.370 -0.8392  0.1243 -0.8075
  103OSM    C7S10413   3.853   2.430  10.234 -1.4602  0.0453  0.0139
  103OSM    H7S10414   3.962   2.432  10.217 -1.4197  2.4432  0.3230
  103OSM    H7T10415   3.823   2.537  10.240  0.5770  0.7309 -1.3216
  103OSM    C8S10416   3.785   2.361  10.121  0.3203 -0.1699  0.1028
  103OSM    H8S10417   3.674   2.366  10.123  0.2963 -0.6566  0.0025
  103OSM    H8T10418   3.797   2.251  10.132 -0.3839 -0.5133 -2.3132
  103OSM    C9S10419   3.847   2.414   9.986  0.5008 -0.3720  0.4311
  103OSM    H9S10420   3.957   2.418  10.001  0.7262 -2.0058 -0.6788
  103OSM    H9T10421   3.812   2.519   9.979 -0.5120 -0.6933  0.6177
  103OSM   C10S10422   3.810   2.321   9.872 -0.0619 -0.2450 -0.1263
  103OSM   H10S10423   3.701   2.331   9.849  0.1085  1.9102 -0.1213
  103OSM   H10T10424   3.832   2.215   9.897 -2.9744 -0.7961  0.3192
  103OSM   C11S10425   3.863   2.369   9.731  0.4732  0.1364 -0.1735
  103OSM   H11S10426   3.974   2.377   9.733  0.4446  0.5325 -0.2237
  103OSM   H11T10427   3.820   2.471   9.724 -1.1006 -0.6262 -2.0531
  103OSM   C12S10428   3.809   2.277   9.624 -0.5351 -0.2304 -0.0970
  103OSM   H12S10429   3.698   2.283   9.622 -0.6402 -2.1473 -1.9050
  103OSM   H12T10430   3.838   2.173   9.651 -1.7739 -0.7214 -0.6253
  103OSM   C13S10431   3.868   2.319   9.491 -0.1783  0.3325  1.0301
  103OSM   H13S10432   3.979   2.319   9.495 -0.1215  2.2652 -0.0556
  103OSM   H13T10433   3.831   2.423   9.480 -1.4266 -0.3707 -1.8547
  103OSM   C14S10434   3.821   2.237   9.372  0.0737  0.1197 -0.2567
  103OSM   H14S10435   3.818   2.301   9.281 -1.7871 -2.1638 -1.8378
  103OSM   H14T10436   3.717   2.201   9.388  0.0597  0.6584  0.9398
  103OSM   C15S10437   3.911   2.119   9.340 -0.3140  0.0191  0.4070
  103OSM   H15S10438   3.907   2.045   9.422 -0.6944 -2.4195 -1.7497
  103OSM   H15T10439   4.011   2.166   9.330  0.1932 -0.8450  1.3297
  103OSM   C16S10440   3.895   2.043   9.203 -0.0250 -0.1945  0.3991
  103OSM   H16S10441   3.799   1.988   9.193  0.8550 -2.2018  2.5478
  103OSM   H16T10442   3.987   1.983   9.184 -1.5333 -2.5614  0.3663
  103OSM   C17S10443   3.904   2.147   9.087  0.2417 -0.7732  0.9158
  103OSM   H17S10444   3.992   2.210   9.112  1.2479 -0.6090 -2.7463
  103OSM   H17T10445   3.816   2.214   9.097 -0.0014 -1.0050  0.3294
  103OSM   C18S10446   3.905   2.078   8.951 -0.0938 -0.0602 -0.3025
  103OSM   H18S10447   3.921   2.156   8.874  1.2746  0.6698  0.6950
  103OSM   H18T10448   3.806   2.028   8.953  0.1580 -0.6490 -1.9500
  103OSM   H18U10449   3.976   1.993   8.945  0.3519  0.2614  0.3376
  103OSM    C1F10450   4.346   2.604  10.416 -0.2492  0.0105  0.5844
  103OSM     OF10451   4.452   2.546  10.400 -1.1813 -0.8793  0.2290
  103OSM    C2F10452   4.313   2.724  10.333 -0.0562 -0.0248  0.3256
  103OSM    H2F10453   4.266   2.803  10.395  2.0121  0.2851  1.5538
  103OSM    H2G10454   4.227   2.698  10.267 -1.1748  0.8603  1.4168
  103OSM    C3F10455   4.428   2.792  10.254 -0.3531  0.7378 -0.0416
  103OSM    H3F10456   4.480   2.717  10.191 -0.7728  1.4307 -1.2345
  103OSM    H3G10457   4.501   2.843  10.319  0.1386  0.1744 -0.1440
  103OSM    C4F10458   4.370   2.901  10.168 -0.1309  0.2263  1.3724
  103OSM    H4F10459   4.333   2.979  10.237  1.0246  2.2663 -0.2836
  103OSM    H4G10460   4.296   2.863  10.095 -0.5075  1.8353  0.9120
  103OSM    C5F10461   4.473   2.988  10.085 -0.3068 -0.1830 -0.4123
  103OSM    H5F10462   4.477   2.935   9.987  0.8172  0.5458 -0.7624
  103OSM    H5G10463   4.558   2.977  10.156  0.0309 -0.5944 -0.8780
  103OSM    C6F10464   4.442   3.131  10.056 -0.5670  0.0276 -0.1638
  103OSM    H6F10465   4.531   3.176  10.007  0.8940 -1.0850  1.4102
  103OSM    H6G10466   4.430   3.187  10.151 -1.2799  0.5903 -0.5810
  103OSM    C7F10467   4.324   3.156   9.966  0.1632 -0.3431  0.6146
  103OSM    H7F10468   4.312   3.265   9.949 -1.5206 -0.5904  0.0675
  103OSM    H7G10469   4.233   3.116  10.016 -0.6483 -0.8766 -1.2536
  103OSM    C8F10470   4.318   3.079   9.830 -1.0340 -0.0464  0.3947
  103OSM    H8F10471   4.222   3.097   9.777  0.3232  1.0831 -1.7310
  103OSM    H8G10472   4.318   2.969   9.845  0.8793  0.1655  2.0908
  103OSM    C9F10473   4.429   3.125   9.742  0.1003  0.9031 -0.2145
  103OSM    H9F10474   4.528   3.119   9.791 -0.0332  0.1575 -0.0229
  103OSM   C10F10475   4.420   3.154   9.607  0.0778 -0.1644 -0.7834
  103OSM   H10F10476   4.514   3.189   9.562 -0.3725 -2.1332 -3.3363
  103OSM   C11F10477   4.299   3.167   9.520  0.1025 -0.5818 -0.4988
  103OSM   H11F10478   4.312   3.267   9.473 -2.7599 -1.5090 -3.4349
  103OSM   H11G10479   4.204   3.184   9.575  0.9050  0.0019  0.7352
  103OSM   C12F10480   4.294   3.031   9.438  0.1531  0.1953 -0.4218
  103OSM   H12F10481   4.200   3.040   9.381  0.7545  0.5161 -1.3764
  103OSM   H12G10482   4.285   2.941   9.503  3.9681  0.7524  1.0032
  103OSM   C13F10483   4.410   3.017   9.338  0.2728 -0.3925 -0.2953
  103OSM   H13F10484   4.512   3.017   9.381  0.4496  0.5332 -0.7083
  103OSM   H13G10485   4.397   3.114   9.285  0.6031 -0.1489  0.0734
  103OSM   C14F10486   4.396   2.907   9.229  0.4278  0.3851  0.0557
  103OSM   H14F10487   4.300   2.916   9.174  1.9343 -0.4066 -2.8104
  103OSM   H14G10488   4.406   2.804   9.269 -1.0040  0.6542  1.1636
  103OSM   C15F10489   4.501   2.920   9.119  0.1613 -0.3002  0.0215
  103OSM   H15F10490   4.599   2.907   9.169  0.9607 -1.8062 -1.8808
  103OSM   H15G10491   4.496   3.023   9.078  0.0314  0.3666  1.6662
  103OSM   C16F10492   4.487   2.819   9.008  0.0063 -0.7012 -0.3890
  103OSM   H16F10493   4.388   2.830   8.958 -2.2963 -0.9498  3.8486
  103OSM   H16G10494   4.499   2.715   9.045  0.1099 -1.9888 -3.8174
  103OSM   C17F10495   4.600   2.831   8.902  0.1106 -0.3214  0.3818
  103OSM   H17F10496   4.605   2.733   8.851 -0.8496 -0.6397  0.8848
  103OSM   H17G10497   4.691   2.838   8.965 -1.0966  0.5460  2.0806
  103OSM   C18F10498   4.601   2.945   8.801  0.0483  0.5955  0.2764
  103OSM   H18F10499   4.693   2.929   8.741  0.4244  2.1399  0.4152
  103OSM   H18G10500   4.587   3.036   8.862 -1.7032  0.3047  0.3132
  103OSM   H18H10501   4.513   2.938   8.733 -0.0031  0.4221  0.3597
  104OSM      N10502   6.105   2.219  10.812  0.4619  0.0580  0.4336
  104OSM    C1510503   6.013   2.336  10.788  0.2092  0.5583 -0.0795
  104OSM   H15A10504   5.980   2.326  10.685  0.2700 -1.1927  0.0512
  104OSM   H15B10505   6.069   2.428  10.793 -1.9102  1.8410  0.9764
  104OSM   H15C10506   5.929   2.337  10.856  1.7087  0.7577  1.7708
  104OSM    C1410507   6.220   2.244  10.728 -0.1139  0.7212 -0.2855
  104OSM   H14A10508   6.260   2.344  10.743  0.8191  0.4147 -0.6735
  104OSM   H14B10509   6.204   2.224  10.623  1.4840  0.8849 -0.5792
  104OSM   H14C10510   6.306   2.190  10.764 -0.2615  0.0576 -0.9346
  104OSM    C1310511   6.146   2.217  10.957 -0.3722  0.6653 -0.9111
  104OSM   H13A10512   6.062   2.200  11.022 -0.2028 -0.5361 -0.9959
  104OSM   H13B10513   6.192   2.309  10.990  1.0460 -0.4487  0.2822
  104OSM   H13C10514   6.217   2.138  10.976 -2.3018 -0.4343  2.0455
  104OSM    C1210515   6.048   2.084  10.778  0.3556 -0.3979  0.1929
  104OSM   H12A10516   6.129   2.014  10.787 -0.8444 -2.0071 -1.0842
  104OSM   H12B10517   6.011   2.081  10.676  0.4729  0.1857  0.1320
  104OSM    C1110518   5.938   2.028  10.874 -0.3365  0.0756 -0.0075
  104OSM   H11A10519   5.975   2.016  10.978  0.5608 -1.7224 -0.5083
  104OSM   H11B10520   5.922   1.920  10.854  1.8773  0.0953 -2.2320
  104OSM      P10521   5.710   2.104  10.774  0.4913  0.1461 -0.1637
  104OSM    O1310522   5.632   1.981  10.785  0.1195 -0.2571  0.3979
  104OSM    O1410523   5.628   2.225  10.771  0.1276  0.0295 -0.5436
  104OSM    O1110524   5.792   2.101  10.640  0.3994 -0.5235  0.1133
  104OSM    O1210525   5.823   2.108  10.887  0.2060  0.0760  0.3972
  104OSM    C1S10526   5.722   2.081  10.515 -0.1926  0.0850  0.3246
  104OSM    H1S10527   5.658   2.168  10.493  0.8479  1.0812  1.1800
  104OSM    H1T10528   5.646   2.000  10.523 -0.7961  0.8122  1.9880
  104OSM     NF10529   5.752   2.079  10.269 -0.2332  0.3899  0.3182
  104OSM    HNF10530   5.726   1.995  10.221 -1.1150 -0.0259  1.4923
  104OSM    C2S10531   5.825   2.058  10.398  0.5011 -0.2690  1.1288
  104OSM    H2S10532   5.901   2.138  10.406 -1.9500  2.0803  1.4592
  104OSM    C3S10533   5.885   1.924  10.417 -0.4540 -0.2731 -0.0632
  104OSM    H3S10534   5.797   1.858  10.401  0.3747 -1.9691  2.0172
  104OSM     O310535   5.930   1.896  10.554  0.2718  0.5470  0.2215
  104OSM    HO310536   5.885   1.971  10.594 -0.8917  0.9723 -1.8391
  104OSM    C4S10537   5.988   1.887  10.314 -0.1932  0.4960 -0.0541
  104OSM    H4S10538   5.955   1.829  10.227  3.7970 -0.2845 -1.1490
  104OSM    C5S10539   6.123   1.919  10.326  0.8052  0.0530  0.1011
  104OSM    H5S10540   6.153   1.984  10.410 -0.5315 -0.4896  1.0105
  104OSM    C6S10541   6.231   1.880  10.229  0.2223 -0.3498  0.2040
  104OSM    H6S10542   6.304   1.818  10.285 -0.2677  0.3093  1.5794
  104OSM    H6T10543   6.283   1.975  10.202  0.0454 -0.3755 -0.2288
  104OSM    C7S10544   6.190   1.833  10.092 -0.1689 -0.5815 -0.6585
  104OSM    H7S10545   6.124   1.911  10.049 -0.7608  0.1761  1.5531
  104OSM    H7T10546   6.148   1.732  10.109 -2.8059  0.6329  0.3449
  104OSM    C8S10547   6.309   1.807  10.001  0.2629  0.3436 -0.1273
  104OSM    H8S10548   6.377   1.740  10.058  0.7102 -0.4890 -1.6176
  104OSM    H8T10549   6.373   1.895   9.977 -1.4303  1.4387 -0.7115
  104OSM    C9S10550   6.275   1.755   9.857 -0.4738 -0.6233 -0.2820
  104OSM    H9S10551   6.229   1.835   9.796 -0.7113  0.3686  1.1589
  104OSM    H9T10552   6.202   1.673   9.870 -0.0215 -1.3836 -2.4562
  104OSM   C10S10553   6.398   1.699   9.773 -0.7427 -0.3284  0.6255
  104OSM   H10S10554   6.443   1.634   9.851 -1.6281 -1.2665  0.3628
  104OSM   H10T10555   6.461   1.787   9.747  0.1840 -1.1071  0.2105
  104OSM   C11S10556   6.371   1.604   9.650  0.4627 -0.1253  0.4152
  104OSM   H11S10557   6.471   1.556   9.636 -0.8449 -2.1786 -2.2856
  104OSM   H11T10558   6.344   1.676   9.570 -1.1995 -1.7657 -0.5195
  104OSM   C12S10559   6.269   1.491   9.685 -0.4218  0.3805 -0.0961
  104OSM   H12S10560   6.168   1.537   9.685 -1.1201 -1.1223  0.5183
  104OSM   H12T10561   6.286   1.462   9.790  0.1963 -0.2371 -0.3640
  104OSM   C13S10562   6.285   1.364   9.594 -0.1220 -0.1567  0.0214
  104OSM   H13S10563   6.219   1.287   9.641 -1.0438  0.4965 -0.2039
  104OSM   H13T10564   6.389   1.326   9.585 -1.1591 -2.4908 -2.9264
  104OSM   C14S10565   6.222   1.397   9.454 -1.5104  1.3357 -0.2329
  104OSM   H14S10566   6.279   1.474   9.399 -0.6267 -0.9397 -2.5908
  104OSM   H14T10567   6.123   1.442   9.479 -3.4034 -1.2198 -2.7345
  104OSM   C15S10568   6.200   1.276   9.360 -0.6146  0.7459 -0.1936
  104OSM   H15S10569   6.131   1.309   9.279  0.3021  3.9390  0.2406
  104OSM   H15T10570   6.147   1.201   9.421  0.3511  1.6295  1.7988
  104OSM   C16S10571   6.323   1.211   9.295 -0.3656 -0.3280 -0.2570
  104OSM   H16S10572   6.378   1.152   9.371  1.2205  1.4701  0.0227
  104OSM   H16T10573   6.398   1.278   9.248 -0.0098  0.6764  1.7304
  104OSM   C17S10574   6.290   1.113   9.184  0.0223 -0.4030  0.0229
  104OSM   H17S10575   6.385   1.086   9.133  0.8233 -0.6363  1.6282
  104OSM   H17T10576   6.223   1.157   9.108 -0.3666 -2.0449 -0.6067
  104OSM   C18S10577   6.234   0.985   9.241  0.6393  0.3428  0.4793
  104OSM   H18S10578   6.279   0.968   9.341  0.1174 -1.0515  0.4863
  104OSM   H18T10579   6.259   0.891   9.187  1.6411  0.1690  1.2478
  104OSM   H18U10580   6.123   0.987   9.245  0.5172  0.3161 -1.8169
  104OSM    C1F10581   5.720   2.203  10.227  0.0880 -0.1542  0.6418
  104OSM     OF10582   5.758   2.306  10.278 -0.2413  0.6456 -0.0787
  104OSM    C2F10583   5.623   2.214  10.124  0.2927 -0.0106  0.0533
  104OSM    H2F10584   5.534   2.263  10.168  2.3710  0.6812  3.6013
  104OSM    H2G10585   5.591   2.114  10.089  0.0506  0.2515 -0.4877
  104OSM    C3F10586   5.671   2.272   9.988  0.4182 -0.0886 -0.2956
  104OSM    H3F10587   5.758   2.215   9.949  1.5958  1.8066 -0.5015
  104OSM    H3G10588   5.691   2.376  10.022 -0.6840 -0.4160  1.4221
  104OSM    C4F10589   5.576   2.273   9.875 -0.2683  0.2330  0.8957
  104OSM    H4F10590   5.489   2.342   9.880 -0.6221 -0.0672 -0.8210
  104OSM    H4G10591   5.534   2.173   9.850  0.9198  0.4362 -2.2038
  104OSM    C5F10592   5.652   2.303   9.749 -0.5266  0.4051  0.7613
  104OSM    H5F10593   5.748   2.248   9.761 -0.7021  0.3875  2.1514
  104OSM    H5G10594   5.685   2.409   9.749  3.1552 -0.6530  0.6697
  104OSM    C6F10595   5.593   2.261   9.617 -0.3292 -0.0937  0.0415
  104OSM    H6F10596   5.509   2.332   9.599 -2.2785 -2.0663  1.1165
  104OSM    H6G10597   5.542   2.162   9.624 -1.0020  0.1634 -0.9715
  104OSM    C7F10598   5.706   2.251   9.510  0.3765 -0.5276 -0.5122
  104OSM    H7F10599   5.769   2.169   9.550 -2.3507 -1.0078  3.0937
  104OSM    H7G10600   5.773   2.339   9.522  0.9420 -1.0894  0.4630
  104OSM    C8F10601   5.661   2.237   9.364  0.8685 -0.1361  0.0604
  104OSM    H8F10602   5.753   2.233   9.302  0.4307  0.7907 -0.6712
  104OSM    H8G10603   5.605   2.328   9.332  0.6545 -0.3431 -0.1492
  104OSM    C9F10604   5.590   2.106   9.339  0.5609  0.2203  0.4769
  104OSM    H9F10605   5.587   2.046   9.431  2.4742 -0.6077  0.0381
  104OSM   C10F10606   5.546   2.064   9.221 -0.6458 -0.0357 -0.4680
  104OSM   H10F10607   5.494   1.967   9.210  1.4955 -1.4990  1.7627
  104OSM   C11F10608   5.553   2.141   9.096 -0.5443  0.1055  0.7517
  104OSM   H11F10609   5.660   2.156   9.075 -0.4897 -0.1781  0.8227
  104OSM   H11G10610   5.504   2.240   9.106  1.0609  1.4502 -3.6986
  104OSM   C12F10611   5.486   2.085   8.974 -0.3280  0.4762  0.4599
  104OSM   H12F10612   5.378   2.069   8.995  0.0846  0.2850  2.5308
  104OSM   H12G10613   5.523   1.983   8.950 -0.3587  0.4390  0.5652
  104OSM   C13F10614   5.508   2.169   8.848 -0.0693 -0.5330 -0.0800
  104OSM   H13F10615   5.615   2.176   8.821 -0.0696 -3.3909 -1.0515
  104OSM   H13G10616   5.471   2.270   8.874 -0.3335 -0.7586  0.4471
  104OSM   C14F10617   5.419   2.123   8.727  0.2767 -0.7783 -1.1803
  104OSM   H14F10618   5.314   2.144   8.757  0.7725 -2.5744  2.0375
  104OSM   H14G10619   5.431   2.012   8.720 -2.6178 -1.3441  1.6204
  104OSM   C15F10620   5.448   2.201   8.600 -0.0764 -0.2256  0.0669
  104OSM   H15F10621   5.546   2.160   8.567 -0.4253 -0.1199 -1.1183
  104OSM   H15G10622   5.458   2.311   8.614  0.2228 -0.1947 -0.3901
  104OSM   C16F10623   5.340   2.187   8.489 -0.4871 -0.6583  0.9800
  104OSM   H16F10624   5.321   2.291   8.454 -2.0984 -0.9883  0.8527
  104OSM   H16G10625   5.251   2.144   8.538 -2.0422  0.9436 -0.3556
  104OSM   C17F10626   5.384   2.103   8.374  0.4916 -0.1095  0.2502
  104OSM   H17F10627   5.455   2.159   8.310 -2.4073  2.6436 -0.6932
  104OSM   H17G10628   5.306   2.065   8.304 -0.4707 -2.3867  2.4658
  104OSM   C18F10629   5.448   1.971   8.424 -0.5284 -0.1631 -0.0044
  104OSM   H18F10630   5.548   1.975   8.472  0.0377  0.8981 -1.2411
  104OSM   H18G10631   5.463   1.905   8.336  1.3584  0.0787  0.1261
  104OSM   H18H10632   5.380   1.915   8.491 -0.3869 -2.9751 -2.1379
  105OSM      N10633   2.454   5.093  10.984 -0.4118 -0.6479  0.6131
  105OSM    C1510634   2.464   5.235  11.043 -0.0574 -0.5894 -0.5653
  105OSM   H15A10635   2.567   5.263  11.057 -0.5722  1.1418 -0.1280
  105OSM   H15B10636   2.412   5.234  11.138 -1.2712  1.1860 -1.1901
  105OSM   H15C10637   2.440   5.311  10.971  2.1316  0.0757 -0.6134
  105OSM    C1410638   2.536   5.005  11.069 -0.0365  0.0927 -0.4971
  105OSM   H14A10639   2.635   5.036  11.098 -0.0407 -0.9842  0.7031
  105OSM   H14B10640   2.546   4.909  11.022  0.3626  0.6773 -1.6247
  105OSM   H14C10641   2.477   4.976  11.155  0.3236  0.9415  0.0474
  105OSM    C1310642   2.311   5.052  10.974  0.6851  0.3861 -0.0340
  105OSM   H13A10643   2.269   5.057  11.073  3.8056  3.9042  1.2713
  105OSM   H13B10644   2.312   4.953  10.931  0.5033  0.7324 -0.8351
  105OSM   H13C10645   2.254   5.113  10.906  0.4808 -0.7688 -0.9024
  105OSM    C1210646   2.503   5.097  10.839  0.1034  0.1394 -0.1063
  105OSM   H12A10647   2.588   5.165  10.834 -0.4680  1.0389  1.8767
  105OSM   H12B10648   2.430   5.140  10.772  1.3669  1.7589 -0.4944
  105OSM    C1110649   2.550   4.963  10.771  0.4723 -0.4196  0.3591
  105OSM   H11A10650   2.657   4.939  10.791  0.4858  0.1392  0.9437
  105OSM   H11B10651   2.555   4.987  10.662 -0.7421  2.6817  0.9459
  105OSM      P10652   2.504   4.704  10.820 -0.0191  0.3379  0.2824
  105OSM    O1310653   2.622   4.704  10.909  0.4086  0.3974  0.0759
  105OSM    O1410654   2.392   4.617  10.871  0.8423  0.4213  0.0156
  105OSM    O1110655   2.547   4.643  10.681  0.3497 -0.2147  0.5307
  105OSM    O1210656   2.451   4.859  10.792 -0.2642 -0.2278  0.3376
  105OSM    C1S10657   2.439   4.605  10.595 -0.1359  0.3873  0.4774
  105OSM    H1S10658   2.371   4.692  10.583 -0.9443  0.4345  4.7263
  105OSM    H1T10659   2.371   4.526  10.632 -0.6017 -0.2819 -1.7524
  105OSM     NF10660   2.376   4.568  10.363  0.1677 -0.0298 -0.1710
  105OSM    HNF10661   2.346   4.479  10.328  0.6316 -0.7341  1.1848
  105OSM    C2S10662   2.492   4.560  10.455 -0.8112  0.2382 -0.2725
  105OSM    H2S10663   2.571   4.631  10.426  0.7683 -0.2646  2.5995
  105OSM    C3S10664   2.563   4.417  10.466  0.7276  0.1704  0.4596
  105OSM    H3S10665   2.485   4.345  10.499 -1.0884  1.7467 -0.3143
  105OSM     O310666   2.673   4.404  10.555  0.1246 -0.1055  0.1063
  105OSM    HO310667   2.662   4.475  10.619 -0.2118  0.0723 -0.1459
  105OSM    C4S10668   2.602   4.364  10.327 -0.6895  0.6161  0.1622
  105OSM    H4S10669   2.521   4.299  10.289  2.1357 -1.2217 -2.9237
  105OSM    C5S10670   2.713   4.381  10.249  0.0578 -0.6111  0.1578
  105OSM    H5S10671   2.790   4.447  10.291  0.4454  0.0745 -1.5882
  105OSM    C6S10672   2.743   4.320  10.114 -0.1862  0.2085  0.0172
  105OSM    H6S10673   2.700   4.217  10.111  1.2315 -0.3487 -2.0096
  105OSM    H6T10674   2.852   4.313  10.095 -0.0662  1.2033  0.3400
  105OSM    C7S10675   2.685   4.395   9.990 -0.6283 -0.1126 -0.5680
  105OSM    H7S10676   2.758   4.473   9.959  1.1692 -1.2396  0.7455
  105OSM    H7T10677   2.590   4.441  10.024  0.3235  1.8811 -0.5527
  105OSM    C8S10678   2.668   4.303   9.874  0.5234 -0.1291  0.1214
  105OSM    H8S10679   2.587   4.235   9.909  1.0595 -0.6570  0.3443
  105OSM    H8T10680   2.769   4.260   9.855  0.4931 -0.4393  0.6359
  105OSM    C9S10681   2.616   4.370   9.753  0.4481  0.9568 -0.2447
  105OSM    H9S10682   2.688   4.447   9.718 -0.0062  1.0631 -0.9564
  105OSM    H9T10683   2.518   4.419   9.768 -0.1004  0.1584 -1.1307
  105OSM   C10S10684   2.603   4.271   9.642  0.1878 -0.2780  0.5750
  105OSM   H10S10685   2.539   4.190   9.683  0.3007  0.3369  1.9901
  105OSM   H10T10686   2.703   4.227   9.624 -0.6415 -1.5480 -1.0974
  105OSM   C11S10687   2.535   4.321   9.516 -0.1939 -0.3179  0.6842
  105OSM   H11S10688   2.612   4.382   9.463 -1.7956  0.9944 -0.1572
  105OSM   H11T10689   2.448   4.387   9.532  2.0503  3.0428 -0.3595
  105OSM   C12S10690   2.497   4.215   9.407  0.3503  0.8236 -0.3603
  105OSM   H12S10691   2.421   4.141   9.439  1.4603 -0.2707 -0.1999
  105OSM   H12T10692   2.592   4.162   9.382  0.2448  0.8894 -0.9219
  105OSM   C13S10693   2.438   4.286   9.289 -0.1532 -0.2287  1.3074
  105OSM   H13S10694   2.511   4.367   9.268 -1.1473  0.8450  1.9467
  105OSM   H13T10695   2.344   4.334   9.324 -0.8183 -1.1692  0.8244
  105OSM   C14S10696   2.410   4.211   9.159 -0.9247  0.5049  0.2718
  105OSM   H14S10697   2.345   4.123   9.180 -1.2942  1.3609  2.8893
  105OSM   H14T10698   2.509   4.183   9.119 -0.0726  2.3429  1.0537
  105OSM   C15S10699   2.338   4.302   9.055 -0.1056 -0.4651 -0.0052
  105OSM   H15S10700   2.284   4.383   9.108 -0.0766 -0.0201 -0.6522
  105OSM   H15T10701   2.261   4.242   9.000  0.5426  1.6756 -3.4545
  105OSM   C16S10702   2.427   4.339   8.936  0.2063 -0.1406 -1.0182
  105OSM   H16S10703   2.472   4.246   8.896  0.7338 -0.7525  0.9376
  105OSM   H16T10704   2.503   4.411   8.973 -1.7664  1.8626 -0.7790
  105OSM   C17S10705   2.354   4.399   8.808  0.2246 -0.7830 -0.0043
  105OSM   H17S10706   2.439   4.421   8.739  1.6744  0.8956  2.2488
  105OSM   H17T10707   2.310   4.494   8.844 -1.4301 -0.4128 -2.8789
  105OSM   C18S10708   2.254   4.314   8.730 -0.2912 -0.5232 -0.6241
  105OSM   H18S10709   2.240   4.354   8.627 -0.8976  0.5703 -0.1344
  105OSM   H18T10710   2.161   4.301   8.790  0.4808 -0.8555  0.5101
  105OSM   H18U10711   2.293   4.211   8.719  1.3152 -0.0061  0.1652
  105OSM    C1F10712   2.334   4.692  10.321  0.0964 -0.5859 -0.0664
  105OSM     OF10713   2.408   4.790  10.342  0.6204  0.1594  0.5137
  105OSM    C2F10714   2.211   4.701  10.239  0.5842  0.4599 -0.9535
  105OSM    H2F10715   2.135   4.649  10.302  0.3415  0.6681 -1.0764
  105OSM    H2G10716   2.222   4.653  10.140  3.0811  0.1055 -0.5390
  105OSM    C3F10717   2.165   4.841  10.228  0.1664  0.3272  0.3412
  105OSM    H3F10718   2.251   4.908  10.212  0.3879 -0.4194 -1.7242
  105OSM    H3G10719   2.104   4.867  10.318 -0.0426 -1.0300  0.6103
  105OSM    C4F10720   2.089   4.879  10.103 -0.8247 -0.4180 -0.2357
  105OSM    H4F10721   2.051   4.983  10.108  0.5648  0.0343  1.6317
  105OSM    H4G10722   1.996   4.820  10.086 -2.0002  0.3699  3.0936
  105OSM    C5F10723   2.183   4.875   9.979 -0.4931  0.0644  0.5773
  105OSM    H5F10724   2.239   4.779   9.984  1.4403  1.1442  0.2966
  105OSM    H5G10725   2.263   4.952   9.981 -0.2930 -0.1510  0.9917
  105OSM    C6F10726   2.100   4.891   9.851  0.9999  0.5546 -0.2543
  105OSM    H6F10727   2.062   4.996   9.845 -0.6313  0.0720  1.1885
  105OSM    H6G10728   2.007   4.832   9.861  0.9950  0.5298 -0.4485
  105OSM    C7F10729   2.166   4.853   9.720  0.4831 -0.0805 -0.9186
  105OSM    H7F10730   2.205   4.749   9.719 -0.8243 -0.6374  1.5927
  105OSM    H7G10731   2.244   4.928   9.695 -0.2815  0.9663 -0.2223
  105OSM    C8F10732   2.064   4.857   9.600  0.0061  0.5987 -0.4229
  105OSM    H8F10733   2.028   4.962   9.586 -0.5631  0.0511 -3.1705
  105OSM    H8G10734   1.976   4.799   9.637  0.4431  0.2393  0.0575
  105OSM    C9F10735   2.125   4.800   9.477 -0.1595 -0.1469  0.3880
  105OSM    H9F10736   2.205   4.726   9.494 -1.6783 -2.2475 -1.3200
  105OSM   C10F10737   2.092   4.833   9.353 -0.0123 -0.7516  0.2380
  105OSM   H10F10738   2.156   4.797   9.271  0.6120 -0.7507  0.7208
  105OSM   C11F10739   1.985   4.939   9.308 -0.1351 -0.0681  0.4846
  105OSM   H11F10740   2.016   5.045   9.324  0.9804 -0.2376 -0.4808
  105OSM   H11G10741   1.889   4.921   9.360 -0.3526 -0.4486 -0.0493
  105OSM   C12F10742   1.959   4.932   9.160 -0.0356  0.2108 -0.1479
  105OSM   H12F10743   2.047   4.964   9.101 -1.2234  1.3831 -1.3340
  105OSM   H12G10744   1.880   5.005   9.134 -0.1123  0.8500  1.8077
  105OSM   C13F10745   1.912   4.792   9.112 -0.0472  0.5073  0.2923
  105OSM   H13F10746   1.829   4.761   9.178  0.5040 -0.2511  0.6327
  105OSM   H13G10747   1.995   4.719   9.115  0.0121  0.4490 -2.3481
  105OSM   C14F10748   1.858   4.803   8.972  0.7436 -0.0221  0.0689
  105OSM   H14F10749   1.922   4.864   8.904 -1.3776  1.3275 -0.7583
  105OSM   H14G10750   1.759   4.854   8.967  0.7410 -0.1840 -2.1252
  105OSM   C15F10751   1.841   4.664   8.903 -0.0901  0.2460  0.7272
  105OSM   H15F10752   1.784   4.600   8.973  1.5091 -1.4434  0.5013
  105OSM   H15G10753   1.945   4.626   8.894  0.0119  0.7375 -0.2564
  105OSM   C16F10754   1.778   4.678   8.764 -0.0934 -0.3783  0.0257
  105OSM   H16F10755   1.821   4.774   8.729 -1.1257  0.5012  1.1099
  105OSM   H16G10756   1.668   4.692   8.773  0.0266 -0.2036  1.1878
  105OSM   C17F10757   1.826   4.578   8.660 -0.0564  0.0193  0.2198
  105OSM   H17F10758   1.820   4.475   8.702  0.3778 -0.9244 -1.9301
  105OSM   H17G10759   1.933   4.592   8.636 -0.1152 -2.8046 -1.9245
  105OSM   C18F10760   1.743   4.580   8.530  0.6526  0.5009 -0.2963
  105OSM   H18F10761   1.779   4.514   8.448 -0.1547 -0.2175 -0.0859
  105OSM   H18G10762   1.746   4.684   8.492 -0.7920  0.4740 -0.5371
  105OSM   H18H10763   1.641   4.541   8.551  1.1287 -0.7759 -0.2911
  106OSM      N10764   1.973   4.010  10.794  0.1754 -0.1580  0.1039
  106OSM    C1510765   1.954   3.870  10.741 -0.7265  0.2176  0.2183
  106OSM   H15A10766   2.032   3.803  10.774  0.5910  1.8638  0.4938
  106OSM   H15B10767   1.963   3.881  10.634  0.5683 -1.9826  0.0720
  106OSM   H15C10768   1.856   3.829  10.763 -0.4874 -0.2285  0.4528
  106OSM    C1410769   1.945   3.999  10.939  0.2856 -0.1601 -0.6751
  106OSM   H14A10770   1.839   3.986  10.960  0.7428 -0.5018  1.5822
  106OSM   H14B10771   1.983   4.083  10.995  0.5223 -0.1424 -0.8665
  106OSM   H14C10772   2.009   3.921  10.977  3.1685  2.0922 -0.7330
  106OSM    C1310773   2.113   4.045  10.776  0.5208  0.4934  0.7285
  106OSM   H13A10774   2.160   3.960  10.824  0.9504  0.5225  0.3676
  106OSM   H13B10775   2.135   4.141  10.818 -0.5340  1.2174 -0.3283
  106OSM   H13C10776   2.142   4.047  10.672 -0.2806 -0.7459  0.4598
  106OSM    C1210777   1.877   4.113  10.737  1.0908 -0.3621  0.2892
  106OSM   H12A10778   1.921   4.153  10.647  2.0140 -0.3472  0.7381
  106OSM   H12B10779   1.861   4.198  10.802  0.5125  0.9827 -1.5607
  106OSM    C1110780   1.738   4.059  10.698  0.1387 -0.1569 -0.0383
  106OSM   H11A10781   1.751   3.999  10.606 -2.5978  0.6670 -1.0423
  106OSM   H11B10782   1.673   4.144  10.668  0.4695  1.3607  3.3381
  106OSM      P10783   1.575   3.874  10.779 -0.1136  0.1595  0.0217
  106OSM    O1310784   1.574   3.762  10.878  0.0489 -0.3614  0.1125
  106OSM    O1410785   1.447   3.952  10.768  0.5121  0.1707 -0.3527
  106OSM    O1110786   1.614   3.815  10.643 -0.2299 -0.4111  0.8783
  106OSM    O1210787   1.682   3.988  10.808  0.0323 -0.2226 -0.5579
  106OSM    C1S10788   1.530   3.750  10.548 -0.4106  0.2745 -0.3118
  106OSM    H1S10789   1.422   3.775  10.556 -0.8671 -1.7980  0.4975
  106OSM    H1T10790   1.543   3.640  10.560 -2.3356 -0.1262 -1.6878
  106OSM     NF10791   1.481   3.731  10.300  0.1809  0.0200 -0.3675
  106OSM    HNF10792   1.507   3.642  10.264 -0.5271 -1.5722  2.8518
  106OSM    C2S10793   1.571   3.787  10.400 -0.7199 -0.4688  1.3777
  106OSM    H2S10794   1.555   3.897  10.394 -3.9066 -0.9821 -0.1338
  106OSM    C3S10795   1.709   3.735  10.376  0.0797 -0.3347 -0.0371
  106OSM    H3S10796   1.713   3.627  10.401 -0.5910  0.0687  1.8672
  106OSM     O310797   1.801   3.792  10.464  0.2366  0.1192  0.5944
  106OSM    HO310798   1.746   3.819  10.537  0.4774 -3.2181  2.0857
  106OSM    C4S10799   1.759   3.752  10.230 -0.2938  0.3332  0.2681
  106OSM    H4S10800   1.759   3.652  10.185 -1.7692 -0.2294  1.4848
  106OSM    C5S10801   1.812   3.859  10.168 -0.1257  0.5814  0.2074
  106OSM    H5S10802   1.826   3.954  10.221  0.9842  0.3025  0.4267
  106OSM    C6S10803   1.859   3.866  10.021  1.1764  0.3343 -0.1531
  106OSM    H6S10804   1.967   3.893  10.018  1.0936  0.6582 -0.1511
  106OSM    H6T10805   1.798   3.936   9.960 -1.3021 -2.3321 -0.8764
  106OSM    C7S10806   1.844   3.735   9.946  0.2323  0.9131  0.0349
  106OSM    H7S10807   1.741   3.694   9.949  0.4428  0.4722  4.2415
  106OSM    H7T10808   1.895   3.653  10.002 -0.6487 -0.6921 -1.4815
  106OSM    C8S10809   1.910   3.728   9.805  0.1444  0.2972 -0.4913
  106OSM    H8S10810   1.917   3.621   9.777  2.0439 -0.4912  2.6998
  106OSM    H8T10811   2.011   3.774   9.803 -1.1495  3.1834 -1.3101
  106OSM    C9S10812   1.823   3.787   9.694 -0.3642 -0.5250 -0.1384
  106OSM    H9S10813   1.777   3.883   9.726  0.5171  0.0744 -0.6513
  106OSM    H9T10814   1.742   3.712   9.678 -0.3960 -0.7146  0.8805
  106OSM   C10S10815   1.906   3.819   9.575  0.2904 -0.2158  0.4955
  106OSM   H10S10816   1.989   3.889   9.596 -0.8325  0.6116  2.2881
  106OSM   H10T10817   1.845   3.878   9.503  1.7807  3.5219  2.1468
  106OSM   C11S10818   1.968   3.705   9.499 -0.4355  0.0236 -0.1420
  106OSM   H11S10819   1.917   3.611   9.531  0.3857 -0.8410 -1.3295
  106OSM   H11T10820   2.075   3.694   9.525 -0.4589  0.0162 -0.0482
  106OSM   C12S10821   1.942   3.719   9.351  0.0982 -0.0207  0.7946
  106OSM   H12S10822   1.989   3.812   9.311  2.6407 -1.8940 -0.7712
  106OSM   H12T10823   1.834   3.737   9.335  0.9089  2.6285 -2.2577
  106OSM   C13S10824   1.997   3.605   9.271 -0.7831  0.8481  0.0162
  106OSM   H13S10825   1.940   3.512   9.290  0.6972  0.0445  0.6503
  106OSM   H13T10826   2.102   3.576   9.293 -1.6596 -2.0234  0.5763
  106OSM   C14S10827   1.996   3.641   9.124 -0.4547 -0.6739  0.6687
  106OSM   H14S10828   2.056   3.569   9.064 -0.4280 -0.8696  0.9335
  106OSM   H14T10829   2.026   3.745   9.100  0.7452 -1.6395 -2.3308
  106OSM   C15S10830   1.864   3.612   9.048 -0.0995 -0.0465 -0.0637
  106OSM   H15S10831   1.782   3.661   9.105  0.8182  1.4166  0.0171
  106OSM   H15T10832   1.842   3.503   9.057  0.2925  0.0727  2.7305
  106OSM   C16S10833   1.874   3.656   8.903  0.6082  0.4262  0.0209
  106OSM   H16S10834   1.905   3.762   8.892 -0.9366  0.7201 -2.0083
  106OSM   H16T10835   1.769   3.662   8.866 -0.5811  0.7876  3.3273
  106OSM   C17S10836   1.955   3.565   8.809 -0.0171 -0.3750  0.3515
  106OSM   H17S10837   1.919   3.465   8.840 -0.7606  0.0075  0.7467
  106OSM   H17T10838   2.066   3.572   8.809 -0.1447  2.2545 -0.4681
  106OSM   C18S10839   1.921   3.595   8.661 -0.7507 -0.4544  0.3886
  106OSM   H18S10840   1.941   3.702   8.637 -1.6425 -0.7077 -1.5821
  106OSM   H18T10841   1.819   3.561   8.635 -0.5324 -1.2076  0.5024
  106OSM   H18U10842   1.987   3.532   8.597 -1.5098  1.8161 -2.7885
  106OSM    C1F10843   1.355   3.773  10.293  0.9939  0.1241  0.4038
  106OSM     OF10844   1.310   3.866  10.354  0.0670  0.2058 -0.0172
  106OSM    C2F10845   1.268   3.682  10.216  0.0891 -0.0119 -0.1367
  106OSM    H2F10846   1.175   3.657  10.272  0.1276 -1.3182 -0.6322
  106OSM    H2G10847   1.321   3.588  10.190 -0.2585 -0.2982  0.1783
  106OSM    C3F10848   1.211   3.760  10.092 -0.5972 -0.6129 -0.3173
  106OSM    H3F10849   1.153   3.843  10.138  0.9588  0.0095  0.5467
  106OSM    H3G10850   1.142   3.688  10.041 -0.5383 -1.8674  1.3502
  106OSM    C4F10851   1.322   3.806   9.998  0.2447 -0.0873 -0.1766
  106OSM    H4F10852   1.387   3.721   9.968  2.1561  1.2125  0.1289
  106OSM    H4G10853   1.377   3.899  10.025  1.6780 -0.9922  0.0872
  106OSM    C5F10854   1.252   3.856   9.871  0.1892 -0.5229  0.4785
  106OSM    H5F10855   1.180   3.938   9.889  1.8375  1.3459 -1.2046
  106OSM    H5G10856   1.193   3.768   9.839  0.0593 -0.1558 -0.2926
  106OSM    C6F10857   1.356   3.891   9.767 -0.1682 -0.1520  0.3990
  106OSM    H6F10858   1.423   3.804   9.749  2.0804  1.5757  0.2346
  106OSM    H6G10859   1.422   3.972   9.805  0.0943 -1.0963  1.9881
  106OSM    C7F10860   1.290   3.940   9.643  0.4682 -0.0294  0.0335
  106OSM    H7F10861   1.206   4.008   9.666 -0.7240 -1.2550 -0.5563
  106OSM    H7G10862   1.239   3.853   9.595  1.4241 -1.1861  1.0596
  106OSM    C8F10863   1.379   4.020   9.546 -0.3921  0.7126  0.1816
  106OSM    H8F10864   1.417   4.117   9.586  3.0354 -0.7737  0.6549
  106OSM    H8G10865   1.309   4.056   9.467 -1.1739 -2.3293 -0.5491
  106OSM    C9F10866   1.489   3.937   9.485  0.8238  0.3168 -1.0352
  106OSM    H9F10867   1.579   3.938   9.548  0.5241 -2.0100 -0.5231
  106OSM   C10F10868   1.494   3.872   9.369 -0.2676  0.4773 -0.7494
  106OSM   H10F10869   1.586   3.817   9.345 -0.6855 -0.2959 -0.6268
  106OSM   C11F10870   1.395   3.874   9.260  0.0432 -0.0683 -0.2481
  106OSM   H11F10871   1.304   3.928   9.292  0.1927 -1.1893  2.2178
  106OSM   H11G10872   1.362   3.776   9.221 -1.6402 -0.1001  1.1917
  106OSM   C12F10873   1.452   3.952   9.142 -0.9565  0.0812 -0.5755
  106OSM   H12F10874   1.556   3.915   9.129 -0.9752 -1.7138  3.5949
  106OSM   H12G10875   1.464   4.059   9.169 -1.7046 -0.5166  2.2728
  106OSM   C13F10876   1.371   3.947   9.001  0.4130  0.6227  0.1462
  106OSM   H13F10877   1.338   3.841   9.002  2.2603  0.0224 -1.0701
  106OSM   H13G10878   1.429   3.976   8.911 -2.0999 -1.9800 -2.3993
  106OSM   C14F10879   1.245   4.038   9.012  0.5624 -0.7323 -0.4323
  106OSM   H14F10880   1.281   4.138   9.041  0.8633 -1.1403  0.6175
  106OSM   H14G10881   1.177   3.985   9.082  0.2237 -0.5980 -0.6599
  106OSM   C15F10882   1.176   4.051   8.870 -0.3424 -0.2467 -0.6380
  106OSM   H15F10883   1.086   4.115   8.878  0.5768  1.3771 -2.8542
  106OSM   H15G10884   1.148   3.945   8.850  2.7695 -1.1434 -0.5340
  106OSM   C16F10885   1.271   4.109   8.763 -0.6200 -0.1159 -0.4716
  106OSM   H16F10886   1.351   4.037   8.737 -0.2547 -0.1837  0.7985
  106OSM   H16G10887   1.324   4.199   8.800 -2.0262 -0.2910  2.1054
  106OSM   C17F10888   1.210   4.137   8.625 -0.4275  0.2045  0.3807
  106OSM   H17F10889   1.281   4.208   8.578 -1.2299  0.3611 -0.6164
  106OSM   H17G10890   1.112   4.187   8.645 -0.0962  0.2279  1.9331
  106OSM   C18F10891   1.190   4.022   8.533 -0.5448  0.0876 -0.4912
  106OSM   H18F10892   1.099   3.966   8.563 -0.9872  0.6014 -0.8460
  106OSM   H18G10893   1.286   3.968   8.518  0.2019  1.2987 -0.1573
  106OSM   H18H10894   1.177   4.056   8.428  0.3086  1.0834 -0.2834
  107OSM      N10895   4.617   1.526  11.075  1.0214 -0.5196  0.0571
  107OSM    C1510896   4.739   1.478  11.024  0.1729 -0.0080 -0.0077
  107OSM   H15A10897   4.724   1.383  10.977  0.7303 -0.2864  0.3675
  107OSM   H15B10898   4.810   1.471  11.105 -0.5107  2.6135  0.8804
  107OSM   H15C10899   4.788   1.554  10.963  1.6829 -1.8466 -1.1411
  107OSM    C1410900   4.535   1.416  11.136 -0.0084 -0.7002 -0.7022
  107OSM   H14A10901   4.444   1.456  11.180 -0.5883 -3.0639  0.3210
  107OSM   H14B10902   4.582   1.363  11.217  0.3572  1.9958  0.8860
  107OSM   H14C10903   4.525   1.338  11.062 -1.8014 -1.1577 -0.0136
  107OSM    C1310904   4.633   1.636  11.179 -0.9404 -0.1805  0.5850
  107OSM   H13A10905   4.691   1.718  11.139  0.4563 -1.6123 -0.3940
  107OSM   H13B10906   4.669   1.599  11.274  0.8927  0.6752  0.2558
  107OSM   H13C10907   4.531   1.673  11.183 -1.1231 -0.6062 -0.0592
  107OSM    C1210908   4.543   1.587  10.955  0.4668  0.0534 -0.0905
  107OSM   H12A10909   4.499   1.514  10.889 -1.1358  2.3141 -1.5936
  107OSM   H12B10910   4.610   1.652  10.902  1.3444 -0.4485  0.3936
  107OSM    C1110911   4.417   1.664  10.977 -1.0579  0.6372  0.2139
  107OSM   H11A10912   4.338   1.603  11.025 -0.2896  0.8826  1.8155
  107OSM   H11B10913   4.364   1.677  10.880 -2.9480 -0.6570  1.0526
  107OSM      P10914   4.310   1.872  11.059 -0.3751  0.3715  0.0512
  107OSM    O1310915   4.225   1.803  11.161  0.1907  0.2635  0.2609
  107OSM    O1410916   4.355   2.012  11.092  0.0684  0.3769  0.0585
  107OSM    O1110917   4.231   1.886  10.928  0.6756 -0.0613 -0.2131
  107OSM    O1210918   4.441   1.789  11.031 -0.3081 -1.4609 -0.4319
  107OSM    C1S10919   4.294   1.955  10.821 -0.7388 -0.2783  0.3324
  107OSM    H1S10920   4.405   1.959  10.829 -0.7007 -0.4540 -0.0627
  107OSM    H1T10921   4.270   2.061  10.840 -0.9199 -0.3614  0.5598
  107OSM     NF10922   4.352   1.927  10.573  0.9637  0.2523 -0.4163
  107OSM    HNF10923   4.329   1.993  10.502 -0.2047 -1.1563 -1.3648
  107OSM    C2S10924   4.251   1.903  10.679 -0.2174 -0.0637 -0.3908
  107OSM    H2S10925   4.250   1.792  10.684 -1.4662 -0.0887 -1.1908
  107OSM    C3S10926   4.111   1.963  10.651  1.1119  0.0638  0.6296
  107OSM    H3S10927   4.117   2.071  10.626 -2.4822  0.1058 -0.3236
  107OSM     O310928   4.018   1.961  10.764  0.2191 -0.1874  0.0569
  107OSM    HO310929   4.068   1.942  10.843 -1.5944 -2.1676  0.7950
  107OSM    C4S10930   4.052   1.893  10.527  0.4094 -0.0149 -0.3758
  107OSM    H4S10931   4.083   1.942  10.433  1.4199 -0.0748 -0.0743
  107OSM    C5S10932   3.969   1.788  10.525  0.0542 -0.2983  0.0510
  107OSM    H5S10933   3.940   1.737  10.618  1.9057  0.6249  1.1719
  107OSM    C6S10934   3.911   1.730  10.402 -0.5333 -1.1584  0.4289
  107OSM    H6S10935   3.801   1.727  10.410 -0.6257 -1.3788 -0.8393
  107OSM    H6T10936   3.944   1.624  10.392 -0.4270 -1.2523  1.6750
  107OSM    C7S10937   3.940   1.798  10.266  0.0021  0.0474  0.1593
  107OSM    H7S10938   4.048   1.823  10.270  0.4001 -1.2814 -1.5823
  107OSM    H7T10939   3.881   1.891  10.256 -0.4630 -0.0714  1.6330
  107OSM    C8S10940   3.919   1.701  10.149  0.2991  0.8706  1.1066
  107OSM    H8S10941   3.841   1.626  10.171  2.4605 -1.0671  2.3441
  107OSM    H8T10942   4.007   1.636  10.131 -0.5897  1.0774 -5.0835
  107OSM    C9S10943   3.899   1.782  10.027 -0.4338  0.2300  0.2512
  107OSM    H9S10944   3.978   1.858  10.011 -0.8116  0.1616 -2.0946
  107OSM    H9T10945   3.802   1.835  10.030 -1.3702 -1.4380 -0.1585
  107OSM   C10S10946   3.898   1.685   9.913 -0.4619  0.8600 -0.2182
  107OSM   H10S10947   3.816   1.614   9.938  1.9659 -1.0304  2.6122
  107OSM   H10T10948   3.987   1.620   9.904 -1.1089  0.0957 -1.0944
  107OSM   C11S10949   3.884   1.756   9.782  0.0847  0.6128 -0.0078
  107OSM   H11S10950   3.941   1.851   9.774  1.1511  0.1197  1.4552
  107OSM   H11T10951   3.781   1.775   9.746 -0.1025  1.2100  0.8349
  107OSM   C12S10952   3.944   1.673   9.666  0.2404  0.1816 -0.2703
  107OSM   H12S10953   3.906   1.568   9.667  0.7044 -0.0356 -2.6911
  107OSM   H12T10954   4.053   1.664   9.682 -0.0142  0.6259  1.8216
  107OSM   C13S10955   3.911   1.732   9.522  0.1236 -0.1929  0.4009
  107OSM   H13S10956   3.970   1.826   9.518  2.7565 -1.8511 -2.7999
  107OSM   H13T10957   3.802   1.755   9.515  0.4852  2.3299  2.4323
  107OSM   C14S10958   3.955   1.636   9.410 -0.2567  0.6344 -0.6987
  107OSM   H14S10959   3.927   1.532   9.438 -0.0897  0.7550 -0.0794
  107OSM   H14T10960   4.066   1.635   9.400 -0.3469  1.8343 -1.9556
  107OSM   C15S10961   3.880   1.650   9.273 -0.6845 -0.0370  0.3494
  107OSM   H15S10962   3.891   1.755   9.238  1.7596 -0.1358  0.7496
  107OSM   H15T10963   3.775   1.612   9.275 -0.3513 -1.0689 -1.4845
  107OSM   C16S10964   3.949   1.560   9.166 -0.1261 -0.5123 -0.0544
  107OSM   H16S10965   3.973   1.460   9.207  1.7413 -0.2866 -0.5391
  107OSM   H16T10966   4.045   1.613   9.147 -0.0877 -0.3270  0.6673
  107OSM   C17S10967   3.867   1.534   9.044  0.0645 -0.2084  0.6208
  107OSM   H17S10968   3.768   1.492   9.071  0.2767 -0.7599  0.5662
  107OSM   H17T10969   3.911   1.455   8.979  0.8652 -0.7193  1.7602
  107OSM   C18S10970   3.837   1.656   8.962  0.0374  0.1156 -0.9972
  107OSM   H18S10971   3.812   1.619   8.861 -0.0350  0.2918 -1.0428
  107OSM   H18T10972   3.915   1.735   8.966 -0.2598  0.3285  1.7657
  107OSM   H18U10973   3.745   1.703   9.003  0.1513 -0.8120  0.3558
  107OSM    C1F10974   4.468   1.860  10.586  0.2235  0.0431  0.4200
  107OSM     OF10975   4.487   1.776  10.672 -0.1024 -0.1537  0.3667
  107OSM    C2F10976   4.573   1.906  10.488  0.1524 -0.5277  0.2308
  107OSM    H2F10977   4.633   1.997  10.510 -0.2437  0.3509 -2.1477
  107OSM    H2G10978   4.515   1.926  10.395 -1.2727  2.5666  1.6964
  107OSM    C3F10979   4.676   1.799  10.462 -0.3305  0.6743 -0.1604
  107OSM    H3F10980   4.622   1.705  10.437  0.8257 -0.6996  2.4195
  107OSM    H3G10981   4.743   1.776  10.547  0.2423  1.3544 -0.4324
  107OSM    C4F10982   4.758   1.833  10.332  0.3685 -0.3822  0.1010
  107OSM    H4F10983   4.849   1.769  10.336  1.4087  1.1389  1.0634
  107OSM    H4G10984   4.799   1.936  10.338  0.2140 -0.1521 -2.3861
  107OSM    C5F10985   4.677   1.815  10.205  0.4724  0.1970  0.0993
  107OSM    H5F10986   4.620   1.907  10.179  0.6654  0.1923 -0.3543
  107OSM    H5G10987   4.604   1.733  10.222  0.9242 -0.1172  0.5070
  107OSM    C6F10988   4.744   1.772  10.072 -0.1523 -0.1784 -0.9721
  107OSM    H6F10989   4.789   1.675  10.100 -0.8929 -0.0343  0.7337
  107OSM    H6G10990   4.819   1.846  10.036  2.8133 -3.0651 -0.8590
  107OSM    C7F10991   4.648   1.732   9.950 -0.2251 -0.5682 -0.6145
  107OSM    H7F10992   4.609   1.823   9.901 -0.6057 -0.2005  0.3582
  107OSM    H7G10993   4.568   1.662   9.981 -0.9419 -0.0764 -1.3600
  107OSM    C8F10994   4.712   1.647   9.835 -0.4084  0.3596  0.1510
  107OSM    H8F10995   4.628   1.610   9.772 -0.7218  0.6584  0.3940
  107OSM    H8G10996   4.752   1.560   9.891 -1.3107  0.9722  1.7896
  107OSM    C9F10997   4.810   1.716   9.747  0.6801 -0.9249 -0.2783
  107OSM    H9F10998   4.889   1.776   9.795 -0.5254 -0.8975  1.7057
  107OSM   C10F10999   4.816   1.708   9.618  0.0817 -0.0936  0.3608
  107OSM   H10F11000   4.903   1.747   9.564 -1.3483  0.3984 -1.6615
  107OSM   C11F11001   4.721   1.616   9.534  0.2181 -0.2668  0.0672
  107OSM   H11F11002   4.614   1.646   9.529  0.1311 -0.4760  0.6951
  107OSM   H11G11003   4.728   1.510   9.565 -0.6379  0.1970  1.8862
  107OSM   C12F11004   4.772   1.625   9.384 -0.6649 -0.8386 -0.1342
  107OSM   H12F11005   4.881   1.604   9.379 -0.6070 -0.0925 -2.8959
  107OSM   H12G11006   4.759   1.731   9.353 -1.3307 -0.7440  0.4405
  107OSM   C13F11007   4.693   1.538   9.299  0.0364 -0.3649  0.9760
  107OSM   H13F11008   4.583   1.542   9.318 -0.1869 -2.8203  0.4305
  107OSM   H13G11009   4.735   1.435   9.297  0.8428 -0.0243 -0.2492
  107OSM   C14F11010   4.716   1.573   9.152  0.3310 -0.4263 -0.2041
  107OSM   H14F11011   4.781   1.662   9.145  0.7313 -0.6268  0.9022
  107OSM   H14G11012   4.616   1.602   9.113 -0.6742 -1.6061  1.4241
  107OSM   C15F11013   4.779   1.456   9.065  0.2553 -0.0555 -0.1117
  107OSM   H15F11014   4.704   1.375   9.073  0.4097 -0.2394 -0.5091
  107OSM   H15G11015   4.872   1.416   9.112 -0.3614 -0.0902  1.1084
  107OSM   C16F11016   4.796   1.491   8.923 -0.2641 -0.1213  0.6880
  107OSM   H16F11017   4.888   1.552   8.928 -0.6600  0.5626 -0.3225
  107OSM   H16G11018   4.718   1.564   8.892 -0.0382  0.3583  1.2459
  107OSM   C17F11019   4.808   1.383   8.826  0.0012 -0.2684 -0.9085
  107OSM   H17F11020   4.876   1.302   8.861 -0.1981  0.0714  0.2713
  107OSM   H17G11021   4.855   1.427   8.735  0.3685  1.3484  0.0280
  107OSM   C18F11022   4.672   1.317   8.790 -0.7488  0.1780  0.3542
  107OSM   H18F11023   4.690   1.235   8.717 -1.1580  0.4232 -0.0225
  107OSM   H18G11024   4.607   1.395   8.745 -1.0360 -0.0616  0.3515
  107OSM   H18H11025   4.620   1.273   8.878 -3.3986  0.6418 -0.9256
  108OSM      N11026   1.530   3.320  10.956  0.5386  0.6031 -0.4770
  108OSM    C1511027   1.386   3.301  10.998 -0.4624 -0.9078  0.7641
  108OSM   H15A11028   1.319   3.299  10.914 -0.8828  3.2430  0.9014
  108OSM   H15B11029   1.365   3.386  11.062  0.2816 -0.4184  0.3627
  108OSM   H15C11030   1.373   3.208  11.051 -1.9612 -0.4801  1.1809
  108OSM    C1411031   1.531   3.431  10.852 -0.1974  0.1903  1.1404
  108OSM   H14A11032   1.633   3.452  10.824 -0.3560  0.2602  0.6070
  108OSM   H14B11033   1.497   3.525  10.894 -1.5967 -1.1294  3.0683
  108OSM   H14C11034   1.480   3.412  10.758  3.4209 -1.0657 -0.6302
  108OSM    C1311035   1.615   3.345  11.076  0.4362  0.0080  0.4885
  108OSM   H13A11036   1.719   3.357  11.049  0.2212 -0.7950 -0.7336
  108OSM   H13B11037   1.599   3.272  11.154 -0.5523  1.5227  1.7596
  108OSM   H13C11038   1.583   3.439  11.120 -1.8467 -0.7877  0.5791
  108OSM    C1211039   1.579   3.188  10.893 -0.0948  0.3878  0.0208
  108OSM   H12A11040   1.593   3.114  10.971  2.3334 -2.4981 -3.0280
  108OSM   H12B11041   1.672   3.212  10.845  0.1281 -0.7728 -0.1361
  108OSM    C1111042   1.489   3.123  10.786  0.1552 -0.7387 -0.4006
  108OSM   H11A11043   1.387   3.116  10.828  0.3878 -2.5092 -0.0891
  108OSM   H11B11044   1.528   3.021  10.763  1.5654 -0.7502  1.8777
  108OSM      P11045   1.589   3.198  10.561  0.1500  0.0906 -0.0032
  108OSM    O1311046   1.640   3.339  10.549  0.6279  0.0139 -0.5795
  108OSM    O1411047   1.686   3.087  10.579  0.5361 -0.6683  0.2147
  108OSM    O1111048   1.513   3.159  10.432 -0.0987  0.0265  0.1699
  108OSM    O1211049   1.479   3.206  10.666  0.2231 -0.6493 -0.1310
  108OSM    C1S11050   1.419   3.053  10.420 -0.1051  0.2592 -0.5345
  108OSM    H1S11051   1.316   3.090  10.436 -0.5393 -1.4026  0.6641
  108OSM    H1T11052   1.428   2.972  10.496  0.6322  0.6255 -0.2344
  108OSM     NF11053   1.293   2.944  10.243  0.6017 -0.5046  0.2208
  108OSM    HNF11054   1.273   2.852  10.275 -0.2279 -0.4221 -0.0640
  108OSM    C2S11055   1.422   3.000  10.274  0.1239 -0.1059 -0.3677
  108OSM    H2S11056   1.450   3.083  10.206  1.1867  0.4393  0.7136
  108OSM    C3S11057   1.527   2.896  10.263 -0.3867  0.2527 -0.3710
  108OSM    H3S11058   1.499   2.814  10.333 -0.9459 -0.9199 -1.9309
  108OSM     O311059   1.656   2.937  10.300  0.0136  0.3746  0.4271
  108OSM    HO311060   1.640   3.022  10.341 -1.1126  0.7352 -0.7336
  108OSM    C4S11061   1.533   2.842  10.122 -0.6689 -0.2865 -0.2507
  108OSM    H4S11062   1.442   2.787  10.094 -0.4000 -1.2422  0.7030
  108OSM    C5S11063   1.627   2.863  10.028  0.0777  0.4343 -0.3553
  108OSM    H5S11064   1.718   2.912  10.066 -0.3144 -0.5672  1.8990
  108OSM    C6S11065   1.626   2.825   9.883  0.1824  0.3216 -0.0433
  108OSM    H6S11066   1.724   2.784   9.853 -0.2035 -2.0039  1.6907
  108OSM    H6T11067   1.608   2.914   9.819  0.1948  0.8175  0.6407
  108OSM    C7S11068   1.517   2.719   9.854 -0.0625  0.1305  0.3772
  108OSM    H7S11069   1.425   2.781   9.853  0.3317  0.7445 -2.4196
  108OSM    H7T11070   1.527   2.637   9.929 -2.2162 -1.0536 -0.5831
  108OSM    C8S11071   1.543   2.648   9.714 -0.2364  0.0284 -0.0520
  108OSM    H8S11072   1.445   2.601   9.690  0.4574 -2.4627  1.7310
  108OSM    H8T11073   1.611   2.562   9.730  1.0716  0.9509 -0.6412
  108OSM    C9S11074   1.590   2.731   9.591  0.2994 -0.4113  0.0703
  108OSM    H9S11075   1.688   2.771   9.625  0.5909 -0.4605 -0.6975
  108OSM    H9T11076   1.519   2.815   9.579  1.2855  0.9864  3.5219
  108OSM   C10S11077   1.592   2.652   9.459  0.2431  0.3051  0.3966
  108OSM   H10S11078   1.487   2.624   9.436  1.0029 -0.6808 -2.0244
  108OSM   H10T11079   1.655   2.563   9.482 -2.2246 -1.3571  0.9741
  108OSM   C11S11080   1.632   2.723   9.336  0.7922 -0.4123  0.3318
  108OSM   H11S11081   1.735   2.765   9.343  1.2945 -1.0460 -2.6493
  108OSM   H11T11082   1.572   2.816   9.319 -0.6063 -1.7157 -2.1904
  108OSM   C12S11083   1.639   2.643   9.203  0.1138 -0.5264 -0.1700
  108OSM   H12S11084   1.538   2.650   9.158 -0.3751 -0.9146  0.8566
  108OSM   H12T11085   1.668   2.536   9.216  1.8168 -0.1626 -0.7776
  108OSM   C13S11086   1.727   2.709   9.096  0.4840  0.2564 -0.2856
  108OSM   H13S11087   1.833   2.695   9.125 -0.5492 -3.3381  2.1731
  108OSM   H13T11088   1.702   2.815   9.078 -0.1694  0.4576  1.6419
  108OSM   C14S11089   1.720   2.632   8.965  0.2742  0.6256  0.5452
  108OSM   H14S11090   1.620   2.644   8.919  0.6771  2.6076  0.1329
  108OSM   H14T11091   1.738   2.523   8.978 -1.2930  0.5334  2.0819
  108OSM   C15S11092   1.810   2.687   8.859  0.2485  0.1858  0.0265
  108OSM   H15S11093   1.915   2.662   8.886  1.5377  3.3427 -1.7386
  108OSM   H15T11094   1.792   2.796   8.851 -0.9654  0.0052  0.1758
  108OSM   C16S11095   1.785   2.639   8.720 -0.1562  0.3713  0.2200
  108OSM   H16S11096   1.685   2.665   8.680 -0.5054 -0.1315  0.7480
  108OSM   H16T11097   1.792   2.528   8.714  2.1653  0.5821 -1.9139
  108OSM   C17S11098   1.899   2.690   8.629 -0.0588 -0.3063 -0.4235
  108OSM   H17S11099   1.977   2.612   8.642 -0.7145 -1.0434 -0.8298
  108OSM   H17T11100   1.934   2.787   8.669  1.3633 -0.5289 -1.0823
  108OSM   C18S11101   1.858   2.689   8.488  0.5023  0.4824  0.2660
  108OSM   H18S11102   1.772   2.759   8.479  0.3935  0.1441 -1.6004
  108OSM   H18T11103   1.823   2.592   8.446 -2.0356  1.6220 -0.3995
  108OSM   H18U11104   1.933   2.732   8.418 -2.4308  2.1699 -1.9550
  108OSM    C1F11105   1.190   3.012  10.191  0.0210  0.2221  0.1851
  108OSM     OF11106   1.193   3.128  10.157  0.3312  0.1601 -0.3678
  108OSM    C2F11107   1.071   2.927  10.180 -0.7906  0.1004 -0.0579
  108OSM    H2F11108   1.046   2.899  10.285 -0.4378  0.8280  0.2200
  108OSM    H2G11109   1.107   2.830  10.141 -0.3367 -1.2865  3.5880
  108OSM    C3F11110   0.944   2.964  10.096 -0.0544  0.3327 -0.0457
  108OSM    H3F11111   0.882   3.040  10.149  2.6114  1.3302  1.7381
  108OSM    H3G11112   0.892   2.866  10.084 -0.0979  0.3362  0.1106
  108OSM    C4F11113   0.981   3.000   9.947  0.1743 -0.1904 -0.2413
  108OSM    H4F11114   1.048   3.089   9.945  1.0206 -0.7295  2.0675
  108OSM    H4G11115   0.892   3.020   9.885 -0.0946  0.9369  0.4898
  108OSM    C5F11116   1.061   2.888   9.879 -0.2692 -0.1582 -0.4753
  108OSM    H5F11117   1.034   2.788   9.922 -1.0365  0.4629  0.5206
  108OSM    H5G11118   1.167   2.911   9.903 -1.5166  4.1984  1.2172
  108OSM    C6F11119   1.048   2.886   9.728 -0.3483  0.0108  0.1835
  108OSM    H6F11120   1.075   2.990   9.698 -0.2768  0.5168  1.9784
  108OSM    H6G11121   0.941   2.872   9.702 -0.6528  0.7179  1.0511
  108OSM    C7F11122   1.148   2.787   9.659  0.7115 -0.4847  0.1853
  108OSM    H7F11123   1.121   2.682   9.684 -1.2606  0.1655  0.8314
  108OSM    H7G11124   1.248   2.801   9.705  0.2654 -1.1472  1.3900
  108OSM    C8F11125   1.160   2.796   9.507  0.0468 -0.0781  0.0849
  108OSM    H8F11126   1.254   2.745   9.478 -0.8955 -0.6684 -2.0030
  108OSM    H8G11127   1.171   2.902   9.475  0.5842 -0.0198  0.4590
  108OSM    C9F11128   1.038   2.736   9.427  0.2972 -0.3279 -0.3738
  108OSM    H9F11129   1.007   2.634   9.455 -1.8631  0.3643 -0.1394
  108OSM   C10F11130   0.966   2.796   9.326  0.8537 -0.7689  0.0436
  108OSM   H10F11131   0.891   2.733   9.275 -0.2080  2.1300 -2.1528
  108OSM   C11F11132   0.975   2.935   9.263  0.1372  0.1284 -0.5782
  108OSM   H11F11133   1.064   2.989   9.301 -0.9286 -0.5863  3.0607
  108OSM   H11G11134   0.882   2.990   9.287  0.9162 -0.3024  3.7490
  108OSM   C12F11135   0.982   2.919   9.110 -0.6891  0.4508  0.4873
  108OSM   H12F11136   0.961   3.024   9.080  2.3694  0.4122 -1.9456
  108OSM   H12G11137   0.907   2.848   9.069 -1.6193  1.9334 -0.3988
  108OSM   C13F11138   1.123   2.855   9.074  0.3175 -0.9616 -0.0180
  108OSM   H13F11139   1.122   2.748   9.106  0.5196 -0.6966  0.8986
  108OSM   H13G11140   1.197   2.913   9.133  1.1500 -1.1186 -0.9015
  108OSM   C14F11141   1.146   2.871   8.921 -0.1457  1.1784 -0.1600
  108OSM   H14F11142   1.148   2.978   8.893 -1.4021  1.4880  0.8800
  108OSM   H14G11143   1.061   2.811   8.881  1.2273  0.0100 -1.3662
  108OSM   C15F11144   1.266   2.799   8.869 -0.1378 -0.3463  0.0782
  108OSM   H15F11145   1.254   2.695   8.906  1.5474 -0.2037  1.0726
  108OSM   H15G11146   1.354   2.840   8.924  0.7352 -2.1184  0.0135
  108OSM   C16F11147   1.275   2.812   8.718  0.5659  0.2586  0.8674
  108OSM   H16F11148   1.303   2.914   8.682  2.5927  0.7645  3.7123
  108OSM   H16G11149   1.182   2.774   8.671  2.9744 -1.6570 -2.6006
  108OSM   C17F11150   1.393   2.726   8.646  0.1774 -0.0120 -0.3249
  108OSM   H17F11151   1.371   2.618   8.664 -1.8522  0.1084 -1.8342
  108OSM   H17G11152   1.485   2.763   8.696  0.1892 -1.3825  0.7232
  108OSM   C18F11153   1.386   2.762   8.493 -0.1889 -0.0847  1.1153
  108OSM   H18F11154   1.372   2.871   8.478 -1.4758 -0.3051  0.6679
  108OSM   H18G11155   1.300   2.701   8.459 -0.6026  0.4249  1.2445
  108OSM   H18H11156   1.479   2.728   8.442  0.2099  3.8714 -0.9294
  109OSM      N11157   6.389   1.172  10.714 -0.0346 -0.2304 -0.0737
  109OSM    C1511158   6.458   1.097  10.600 -0.8572 -0.0888 -0.0389
  109OSM   H15A11159   6.507   1.008  10.638  0.0268 -0.1988 -1.3892
  109OSM   H15B11160   6.521   1.162  10.542  0.3805 -0.7892  0.4993
  109OSM   H15C11161   6.384   1.054  10.534 -0.3973  0.8734 -1.1910
  109OSM    C1411162   6.281   1.257  10.657 -0.1689  0.9280  0.3252
  109OSM   H14A11163   6.322   1.346  10.612 -1.9093  1.3322 -0.4879
  109OSM   H14B11164   6.220   1.285  10.741 -0.9237  0.8860 -0.2062
  109OSM   H14C11165   6.217   1.200  10.591  1.1509 -0.2785  0.0394
  109OSM    C1311166   6.326   1.072  10.801 -0.2449 -0.2362  0.5825
  109OSM   H13A11167   6.239   1.098  10.859 -0.4143  0.5951 -0.0386
  109OSM   H13B11168   6.395   1.033  10.873  1.2320  0.9669 -0.1464
  109OSM   H13C11169   6.278   0.998  10.739 -0.0272 -0.4363  0.6540
  109OSM    C1211170   6.494   1.246  10.794 -0.4218  0.8750 -0.1874
  109OSM   H12A11171   6.547   1.308  10.722 -1.3316 -0.4892 -2.0935
  109OSM   H12B11172   6.555   1.163  10.824  1.0007  1.6155 -0.9851
  109OSM    C1111173   6.457   1.342  10.912  0.5921 -0.5005 -0.1302
  109OSM   H11A11174   6.547   1.377  10.966 -0.3455  1.1158  0.3894
  109OSM   H11B11175   6.389   1.280  10.975 -2.3436  0.5580 -2.1721
  109OSM      P11176   6.451   1.593  10.818  0.0300  0.0310 -0.0693
  109OSM    O1311177   6.348   1.678  10.764  0.2068 -0.0323  0.5250
  109OSM    O1411178   6.541   1.632  10.928  0.0134 -0.2704  0.6444
  109OSM    O1111179   6.547   1.547  10.706  0.6957  0.7112 -0.1076
  109OSM    O1211180   6.377   1.459  10.861 -0.2356 -0.6419 -0.7671
  109OSM    C1S11181   6.664   1.612  10.667  0.7501  0.5160  0.2955
  109OSM    H1S11182   6.737   1.577  10.743 -0.0961  0.4549  1.0903
  109OSM    H1T11183   6.659   1.722  10.658 -0.3881  0.5473  1.2273
  109OSM     NF11184   6.855   1.624  10.504  0.8333 -0.5535  0.2812
  109OSM    HNF11185   6.861   1.719  10.476  0.5570 -0.4355  0.6178
  109OSM    C2S11186   6.717   1.571  10.521 -0.2068  0.1026 -0.0411
  109OSM    H2S11187   6.719   1.460  10.523 -1.1431  0.0960  3.1965
  109OSM    C3S11188   6.620   1.616  10.404 -0.3273 -0.1894 -0.1229
  109OSM    H3S11189   6.618   1.727  10.404 -1.0294 -0.1992 -0.0517
  109OSM     O311190   6.490   1.578  10.423  0.0313  0.1129 -0.2142
  109OSM    HO311191   6.468   1.590  10.515  0.9845  2.5645 -0.2705
  109OSM    C4S11192   6.663   1.575  10.270 -0.5541  0.3537  0.3506
  109OSM    H4S11193   6.694   1.469  10.260 -0.3544  0.6426 -2.5779
  109OSM    C5S11194   6.664   1.654  10.165  1.1169  0.2971 -0.4518
  109OSM    H5S11195   6.631   1.758  10.177  0.4438 -0.1525  1.9210
  109OSM    C6S11196   6.706   1.609  10.028  0.3484  0.1112  0.6978
  109OSM    H6S11197   6.633   1.641   9.950  0.7254  0.1526  0.3627
  109OSM    H6T11198   6.691   1.499  10.014  0.5573  0.0370  1.0532
  109OSM    C7S11199   6.852   1.646   9.996 -0.2195 -0.1481  0.2327
  109OSM    H7S11200   6.925   1.629  10.077  1.1265 -1.0106 -1.1389
  109OSM    H7T11201   6.839   1.757   9.989 -0.9827 -0.2736 -0.4548
  109OSM    C8S11202   6.895   1.593   9.862  0.2986  0.1885 -0.8733
  109OSM    H8S11203   6.870   1.485   9.868  1.6086 -0.1107 -0.6835
  109OSM    H8T11204   7.001   1.622   9.846  1.5089 -1.6863  3.0114
  109OSM    C9S11205   6.808   1.641   9.743 -0.3447 -0.1861  0.9983
  109OSM    H9S11206   6.806   1.752   9.738 -0.6506 -0.2384 -0.2736
  109OSM    H9T11207   6.702   1.609   9.750 -0.6735  0.4064 -0.9773
  109OSM   C10S11208   6.875   1.588   9.606  0.2053 -0.1549  0.4000
  109OSM   H10S11209   6.849   1.480   9.610 -0.3772  0.0549  3.1121
  109OSM   H10T11210   6.985   1.597   9.618  0.0864  3.1798 -0.5691
  109OSM   C11S11211   6.823   1.670   9.491 -0.2465 -0.4593  0.2281
  109OSM   H11S11212   6.835   1.774   9.527 -1.5278  0.5351 -2.1280
  109OSM   H11T11213   6.714   1.648   9.480  0.4168 -4.0609  0.2363
  109OSM   C12S11214   6.893   1.652   9.363 -0.1350  0.0484 -0.2162
  109OSM   H12S11215   6.996   1.686   9.386 -0.4754  1.5805 -0.8696
  109OSM   H12T11216   6.843   1.724   9.295 -0.1333 -0.0430 -0.3159
  109OSM   C13S11217   6.874   1.510   9.302  0.4477 -0.2211 -0.1777
  109OSM   H13S11218   6.764   1.495   9.301  0.0068  2.6854  0.2293
  109OSM   H13T11219   6.913   1.444   9.383 -1.7246  0.5655  1.5764
  109OSM   C14S11220   6.945   1.499   9.162 -0.5222  0.2010 -0.3049
  109OSM   H14S11221   7.025   1.575   9.166 -0.9910  0.6410  0.9958
  109OSM   H14T11222   6.871   1.536   9.087 -2.2372 -0.1220  1.1877
  109OSM   C15S11223   6.995   1.355   9.137  0.4676  0.3171  0.0435
  109OSM   H15S11224   6.903   1.293   9.136  0.4792  0.2970  0.2394
  109OSM   H15T11225   7.068   1.332   9.217  0.5670  0.2556 -0.0641
  109OSM   C16S11226   7.059   1.347   8.997 -0.0650 -0.6092  0.0995
  109OSM   H16S11227   7.155   1.403   8.993 -1.7849  2.3699 -1.6386
  109OSM   H16T11228   6.987   1.405   8.935  0.6159  0.5480  0.3934
  109OSM   C17S11229   7.084   1.210   8.942 -0.2652  0.1142  0.1340
  109OSM   H17S11230   7.140   1.224   8.847  2.2723 -0.0166  1.5656
  109OSM   H17T11231   6.989   1.157   8.918  1.5186 -2.9463 -0.4207
  109OSM   C18S11232   7.168   1.120   9.036 -0.6004  0.2251  0.7276
  109OSM   H18S11233   7.268   1.163   9.056 -1.2373  0.3870  3.7703
  109OSM   H18T11234   7.181   1.022   8.984 -1.6845 -0.6091  1.9899
  109OSM   H18U11235   7.124   1.110   9.137 -1.4317  0.5809  0.4020
  109OSM    C1F11236   6.959   1.561  10.559  1.0057 -0.1080 -0.2868
  109OSM     OF11237   6.941   1.452  10.614 -0.0854  0.5772  0.3006
  109OSM    C2F11238   7.094   1.634  10.564  0.1277  0.0116 -0.2021
  109OSM    H2F11239   7.187   1.574  10.567  0.4944  0.5667 -0.3893
  109OSM    H2G11240   7.083   1.703  10.651 -0.5000 -0.7416  0.3197
  109OSM    C3F11241   7.120   1.738  10.452 -0.6448  0.1419  0.2241
  109OSM    H3F11242   7.212   1.790  10.486 -2.7097  2.6160  2.2832
  109OSM    H3G11243   7.043   1.818  10.458  0.3007  1.1601 -0.8069
  109OSM    C4F11244   7.132   1.678  10.315  0.1128 -0.0561 -0.0909
  109OSM    H4F11245   7.035   1.699  10.263 -0.7730 -1.2619  1.0388
  109OSM    H4G11246   7.140   1.568  10.330 -0.9358 -0.0535  0.5356
  109OSM    C5F11247   7.252   1.725  10.235 -0.0326  0.3555  0.1797
  109OSM    H5F11248   7.338   1.727  10.305 -0.1698  0.9795  0.3286
  109OSM    H5G11249   7.217   1.823  10.197 -1.4435 -1.4490 -3.4644
  109OSM    C6F11250   7.272   1.632  10.112  0.0331  0.0638  0.2050
  109OSM    H6F11251   7.184   1.631  10.043  0.3452  1.5988 -0.2298
  109OSM    H6G11252   7.277   1.531  10.157  0.0737 -1.3574 -2.8694
  109OSM    C7F11253   7.391   1.662  10.025 -0.6300 -0.1487  0.5824
  109OSM    H7F11254   7.484   1.630  10.077 -0.3105 -0.3858 -0.1125
  109OSM    H7G11255   7.403   1.772  10.020 -0.1176 -0.2944 -2.2273
  109OSM    C8F11256   7.377   1.613   9.877 -0.3716  0.0883 -0.2548
  109OSM    H8F11257   7.292   1.669   9.834 -0.1573  0.4991 -0.1462
  109OSM    H8G11258   7.350   1.505   9.879 -0.5739  0.1318 -0.7379
  109OSM    C9F11259   7.499   1.611   9.789 -0.2053  0.1959 -0.1713
  109OSM    H9F11260   7.587   1.560   9.830  0.0460  0.8756  0.1427
  109OSM   C10F11261   7.506   1.668   9.672 -0.0154 -0.9143  0.0547
  109OSM   H10F11262   7.601   1.649   9.620 -0.1582  0.8313 -0.8755
  109OSM   C11F11263   7.393   1.741   9.598 -0.3177  0.4870  0.1961
  109OSM   H11F11264   7.391   1.836   9.656  0.8317  0.4966  0.2451
  109OSM   H11G11265   7.300   1.684   9.612 -0.5694  0.3521 -1.7851
  109OSM   C12F11266   7.408   1.778   9.448 -0.2765  0.2900 -0.7409
  109OSM   H12F11267   7.499   1.841   9.436 -0.2535 -0.0277 -2.3585
  109OSM   H12G11268   7.319   1.840   9.426 -0.4169 -0.5046 -2.5110
  109OSM   C13F11269   7.404   1.658   9.353 -0.1913  0.2129 -0.3340
  109OSM   H13F11270   7.365   1.572   9.412  0.6259 -0.4661 -0.7611
  109OSM   H13G11271   7.508   1.632   9.325  0.0039 -0.7253  1.2054
  109OSM   C14F11272   7.328   1.677   9.220 -0.0647  0.0684  0.5468
  109OSM   H14F11273   7.231   1.721   9.251 -0.5689 -0.5221 -0.1752
  109OSM   H14G11274   7.318   1.576   9.175  1.4714 -0.1801  0.7203
  109OSM   C15F11275   7.398   1.775   9.125  0.1423  0.0335  0.9266
  109OSM   H15F11276   7.505   1.745   9.118  0.1093  0.5795 -2.9092
  109OSM   H15G11277   7.399   1.876   9.174 -1.6454 -0.3748  1.8463
  109OSM   C16F11278   7.349   1.778   8.978 -0.0679  0.5231 -0.5165
  109OSM   H16F11279   7.401   1.862   8.926 -0.0521  0.2487 -0.9455
  109OSM   H16G11280   7.240   1.798   8.985 -0.5672 -2.1215 -0.1845
  109OSM   C17F11281   7.371   1.643   8.911 -0.6438  0.6207  0.3726
  109OSM   H17F11282   7.305   1.639   8.822  0.2190  0.5463 -0.2696
  109OSM   H17G11283   7.336   1.563   8.979  1.9767  0.5433  1.6847
  109OSM   C18F11284   7.519   1.615   8.881  0.6295 -0.5759 -0.3725
  109OSM   H18F11285   7.533   1.505   8.882 -0.7824 -0.8048  3.4623
  109OSM   H18G11286   7.585   1.655   8.961 -0.0231  0.9369 -0.5662
  109OSM   H18H11287   7.545   1.672   8.789 -0.5946  3.7368  1.8152
  110OSM      N11288   0.558   6.443  11.196 -0.4087 -0.2828  0.0176
  110OSM    C1511289   0.676   6.419  11.284 -0.6477  0.0324 -0.1089
  110OSM   H15A11290   0.679   6.477  11.375  1.6987  0.0957 -0.1763
  110OSM   H15B11291   0.767   6.448  11.233 -0.5689 -0.4997 -0.2782
  110OSM   H15C11292   0.684   6.318  11.321  0.9454  0.2502  0.1808
  110OSM    C1411293   0.573   6.345  11.083 -0.5229  0.3721  0.2773
  110OSM   H14A11294   0.583   6.246  11.126  1.5503  0.3470 -0.2182
  110OSM   H14B11295   0.662   6.377  11.030  0.2300 -4.1955 -1.3767
  110OSM   H14C11296   0.511   6.339  10.995  0.3281  1.1293 -0.3837
  110OSM    C1311297   0.435   6.411  11.270  0.0069 -0.2668 -0.3544
  110OSM   H13A11298   0.345   6.414  11.210 -0.9847 -0.3595  1.1032
  110OSM   H13B11299   0.435   6.484  11.349  1.3215 -0.1999 -0.4042
  110OSM   H13C11300   0.446   6.316  11.321  1.2103  0.1390  0.1628
  110OSM    C1211301   0.562   6.587  11.142  0.1453  0.5030 -0.4717
  110OSM   H12A11302   0.572   6.653  11.228  3.9598 -1.6293  0.8278
  110OSM   H12B11303   0.471   6.610  11.089 -0.3607 -0.0109  0.1713
  110OSM    C1111304   0.684   6.622  11.048 -0.1434 -0.0508 -1.2358
  110OSM   H11A11305   0.668   6.731  11.034 -0.6409  0.3609  2.1818
  110OSM   H11B11306   0.679   6.581  10.945 -0.8167  1.9431 -2.0175
  110OSM      P11307   0.920   6.696  11.146 -0.1687  0.1724 -0.2648
  110OSM    O1311308   0.862   6.792  11.243 -0.2552 -0.5331 -0.4426
  110OSM    O1411309   1.033   6.611  11.190 -0.0738  0.0303  0.1527
  110OSM    O1111310   0.953   6.787  11.018 -0.5099 -0.9567  0.1432
  110OSM    O1211311   0.812   6.593  11.100  0.1688  0.4716 -0.4182
  110OSM    C1S11312   0.965   6.733  10.888 -0.5089  1.1107  0.0596
  110OSM    H1S11313   0.871   6.692  10.846  0.6851 -2.0312  0.3015
  110OSM    H1T11314   1.037   6.648  10.896 -0.9897  0.3833 -2.8275
  110OSM     NF11315   1.014   6.792  10.640 -0.0404  0.4668 -0.1992
  110OSM    HNF11316   1.102   6.757  10.610  0.3673  0.9722  0.4037
  110OSM    C2S11317   1.013   6.845  10.780 -0.1791 -0.3155 -0.5013
  110OSM    H2S11318   0.947   6.934  10.793  0.5052  0.1358 -0.0874
  110OSM    C3S11319   1.151   6.913  10.826  0.1701  0.2007 -0.2910
  110OSM    H3S11320   1.230   6.837  10.812  0.1401  0.0337  0.4839
  110OSM     O311321   1.162   6.937  10.969  0.1281 -0.0543  1.3812
  110OSM    HO311322   1.094   6.877  11.000  0.0001  0.4911  2.1783
  110OSM    C4S11323   1.196   7.032  10.742 -0.3951 -0.3884 -0.8955
  110OSM    H4S11324   1.268   7.022  10.659 -0.7689 -1.2523 -1.1193
  110OSM    C5S11325   1.154   7.159  10.766 -0.3012  0.8335 -0.3317
  110OSM    H5S11326   1.083   7.191  10.844 -0.6179  1.9164 -1.0402
  110OSM    C6S11327   1.208   7.279  10.689 -0.2477  0.1152  0.7080
  110OSM    H6S11328   1.235   7.353  10.769 -1.1893  1.0317  0.1863
  110OSM    H6T11329   1.125   7.323  10.631  0.3047 -2.6094 -2.2684
  110OSM    C7S11330   1.325   7.259  10.593  0.1271  0.2514  0.0860
  110OSM    H7S11331   1.300   7.197  10.504  1.7390  2.8889 -2.2786
  110OSM    H7T11332   1.411   7.214  10.649  1.2996  2.0786 -0.1941
  110OSM    C8S11333   1.389   7.385  10.530  0.1740  0.1982  0.2824
  110OSM    H8S11334   1.444   7.449  10.602  0.1394 -0.1140  0.5824
  110OSM    H8T11335   1.303   7.445  10.492 -0.3800  0.5779  2.1112
  110OSM    C9S11336   1.481   7.353  10.415  0.6146  0.1499 -0.4889
  110OSM    H9S11337   1.421   7.290  10.347  2.2176 -0.1402 -1.6686
  110OSM    H9T11338   1.576   7.300  10.439  0.4654 -0.7037 -1.7488
  110OSM   C10S11339   1.518   7.465  10.324  0.4672  0.4420 -0.4832
  110OSM   H10S11340   1.430   7.513  10.276  0.1141  0.7066  0.4183
  110OSM   H10T11341   1.574   7.419  10.240  1.9136  3.5180 -1.2594
  110OSM   C11S11342   1.613   7.570  10.393 -0.5430 -1.0598  0.0790
  110OSM   H11S11343   1.692   7.519  10.452  1.4742  1.3531 -0.4620
  110OSM   H11T11344   1.557   7.622  10.474 -0.6110 -1.6813  0.4327
  110OSM   C12S11345   1.670   7.662  10.288 -0.4669  1.2270  0.1043
  110OSM   H12S11346   1.595   7.716  10.227 -2.3148 -0.4356  0.8807
  110OSM   H12T11347   1.745   7.609  10.225  0.1511  1.2674  0.7920
  110OSM   C13S11348   1.754   7.776  10.352 -0.1981 -0.1473  0.7611
  110OSM   H13S11349   1.797   7.748  10.450  0.1350  1.3172  1.0494
  110OSM   H13T11350   1.685   7.860  10.375  0.4793  0.6524 -0.0814
  110OSM   C14S11351   1.874   7.822  10.270 -0.2642 -0.0442 -0.1534
  110OSM   H14S11352   1.834   7.901  10.204 -0.8072 -1.6269 -1.7620
  110OSM   H14T11353   1.899   7.734  10.207 -1.6917  0.0703 -0.8950
  110OSM   C15S11354   1.992   7.876  10.351  0.8398  0.0909 -0.1258
  110OSM   H15S11355   2.035   7.810  10.429  0.0023  1.3033  1.3898
  110OSM   H15T11356   1.938   7.946  10.419  0.6063 -0.3306  0.1273
  110OSM   C16S11357   2.095   7.938  10.265 -0.2170 -0.3960  0.2606
  110OSM   H16S11358   2.065   8.014  10.189  1.4064 -0.0244 -0.0345
  110OSM   H16T11359   2.141   7.862  10.199  3.6623  1.2022  1.0062
  110OSM   C17S11360   2.213   7.989  10.334  0.4312 -0.1274  0.3750
  110OSM   H17S11361   2.266   7.912  10.394 -0.1088 -0.2886  0.6452
  110OSM   H17T11362   2.183   8.068  10.406 -0.7765 -0.8500  0.6896
  110OSM   C18S11363   2.325   8.050  10.242  0.0879 -0.2915 -0.4019
  110OSM   H18S11364   2.398   8.100  10.310 -0.3435 -2.2372  1.5384
  110OSM   H18T11365   2.275   8.129  10.182  1.2476 -0.7742 -2.0340
  110OSM   H18U11366   2.382   7.984  10.174  2.1484  1.5676 -0.5497
  110OSM    C1F11367   0.906   6.784  10.567  0.0796  0.9551  0.4599
  110OSM     OF11368   0.789   6.815  10.607  0.2990  0.1577 -0.2050
  110OSM    C2F11369   0.929   6.727  10.431  0.3697  0.3947 -0.7119
  110OSM    H2F11370   0.962   6.621  10.433 -0.9410 -0.0437 -1.6506
  110OSM    H2G11371   1.011   6.787  10.386  2.7721 -0.3374  2.5003
  110OSM    C3F11372   0.800   6.727  10.348  0.9344  0.7233  0.2515
  110OSM    H3F11373   0.783   6.835  10.331 -1.1013  0.2941 -0.6692
  110OSM    H3G11374   0.712   6.684  10.401  1.7247 -2.4939 -0.9440
  110OSM    C4F11375   0.826   6.666  10.206  0.0186  0.1286  0.2684
  110OSM    H4F11376   0.858   6.562  10.228  1.1400  0.8347  2.0722
  110OSM    H4G11377   0.901   6.716  10.140  0.4320  0.0164  0.6531
  110OSM    C5F11378   0.708   6.659  10.121 -0.3626 -0.2329 -0.4497
  110OSM    H5F11379   0.687   6.766  10.099  3.2436  0.3440 -1.2872
  110OSM    H5G11380   0.630   6.612  10.185  0.3394  1.5155  1.7423
  110OSM    C6F11381   0.731   6.590   9.986  0.4447 -0.2117  0.6657
  110OSM    H6F11382   0.788   6.495   9.995  0.9528  0.2250  2.1968
  110OSM    H6G11383   0.792   6.658   9.922  1.4044 -1.3375  0.3679
  110OSM    C7F11384   0.598   6.560   9.915  0.2020  0.1850 -0.5719
  110OSM    H7F11385   0.550   6.658   9.893  0.4329 -0.0110 -1.9628
  110OSM    H7G11386   0.523   6.500   9.971  2.5950 -1.9118  0.5030
  110OSM    C8F11387   0.615   6.474   9.794  0.0691  0.1632  0.0399
  110OSM    H8F11388   0.517   6.436   9.755  0.0595 -0.2833  0.4996
  110OSM    H8G11389   0.663   6.381   9.831  1.5349 -0.4149 -3.1200
  110OSM    C9F11390   0.700   6.525   9.677 -0.4256 -0.0575  0.0809
  110OSM    H9F11391   0.767   6.609   9.701 -2.6597  2.3765 -1.8311
  110OSM   C10F11392   0.703   6.475   9.552  0.0726  0.2895 -0.2570
  110OSM   H10F11393   0.757   6.526   9.470 -0.3143  0.7650 -0.2170
  110OSM   C11F11394   0.609   6.362   9.511  0.1114  0.9536  0.1582
  110OSM   H11F11395   0.505   6.385   9.542  0.2008  0.6058  0.7312
  110OSM   H11G11396   0.632   6.267   9.565  0.5418  1.0975  0.2309
  110OSM   C12F11397   0.619   6.331   9.359  0.4154  0.6240 -0.5708
  110OSM   H12F11398   0.539   6.256   9.337  2.6330 -2.8127  2.6045
  110OSM   H12G11399   0.714   6.283   9.328  1.1010  1.2671  0.5153
  110OSM   C13F11400   0.600   6.443   9.258  0.5942  0.1993  0.0461
  110OSM   H13F11401   0.592   6.543   9.307  0.0960 -1.8706  4.5201
  110OSM   H13G11402   0.509   6.420   9.199  0.6873  0.4171 -0.1829
  110OSM   C14F11403   0.715   6.444   9.159  0.8924  0.0415 -0.2010
  110OSM   H14F11404   0.731   6.337   9.134 -1.6303 -0.7171  1.2681
  110OSM   H14G11405   0.807   6.486   9.204  1.1494 -2.5685  1.8327
  110OSM   C15F11406   0.678   6.537   9.040  0.5727 -0.2030  0.0338
  110OSM   H15F11407   0.677   6.637   9.088 -0.7788 -0.6952  1.0795
  110OSM   H15G11408   0.579   6.506   9.001  0.0616  1.2075  0.1639
  110OSM   C16F11409   0.784   6.518   8.931 -0.1858  1.1052 -0.3467
  110OSM   H16F11410   0.790   6.411   8.905  1.0764  0.7446  1.3316
  110OSM   H16G11411   0.887   6.545   8.963  0.6160 -1.7910 -0.4009
  110OSM   C17F11412   0.764   6.587   8.791 -0.2331 -1.2263  0.3120
  110OSM   H17F11413   0.664   6.561   8.750 -0.2703 -0.6695  0.0520
  110OSM   H17G11414   0.838   6.544   8.720  0.9960  0.8708  0.3028
  110OSM   C18F11415   0.789   6.734   8.784 -0.2584 -0.3569  0.0708
  110OSM   H18F11416   0.873   6.769   8.848 -0.8731  0.4686  0.4417
  110OSM   H18G11417   0.714   6.807   8.821 -1.2744 -1.3071 -0.0674
  110OSM   H18H11418   0.824   6.768   8.684  1.8740 -3.0004 -0.1347
  111OSM      N11419   1.994   4.635  10.912 -0.2352  0.2327  0.3536
  111OSM    C1511420   2.002   4.480  10.901 -0.6565  0.2982 -0.4913
  111OSM   H15A11421   2.072   4.460  10.821 -3.3798 -0.6333 -2.7083
  111OSM   H15B11422   1.911   4.432  10.868  0.1293 -1.3480 -0.3352
  111OSM   H15C11423   2.026   4.434  10.996 -0.5445  2.3292  0.4873
  111OSM    C1411424   1.880   4.674  11.003 -0.0746  0.1569  0.5948
  111OSM   H14A11425   1.887   4.631  11.102  0.2518 -2.1183 -0.3872
  111OSM   H14B11426   1.789   4.636  10.959  0.1947  1.3259 -0.9996
  111OSM   H14C11427   1.876   4.782  11.007  2.4659  0.4014 -1.8305
  111OSM    C1311428   2.120   4.682  10.977  0.5586 -0.8966  0.3915
  111OSM   H13A11429   2.133   4.788  10.992  0.8050 -1.1015  1.6918
  111OSM   H13B11430   2.200   4.641  10.916 -2.0605 -0.9636 -3.1813
  111OSM   H13C11431   2.132   4.634  11.073 -1.8601 -3.0972 -0.3343
  111OSM    C1211432   1.984   4.695  10.774 -0.0266 -0.2262 -0.0134
  111OSM   H12A11433   1.964   4.800  10.787  0.5488 -0.3589  2.2960
  111OSM   H12B11434   1.894   4.651  10.734 -0.4288  0.8890 -0.3389
  111OSM    C1111435   2.095   4.647  10.676  0.0410 -0.8012  0.6200
  111OSM   H11A11436   2.188   4.674  10.731  0.6670 -1.2664 -0.1989
  111OSM   H11B11437   2.097   4.723  10.595  1.1282 -0.0612  1.3248
  111OSM      P11438   2.024   4.426  10.536  0.0718  0.0736 -0.2384
  111OSM    O1311439   2.112   4.336  10.460 -0.1838  0.0797  0.1092
  111OSM    O1411440   1.911   4.361  10.604  0.6382 -0.1272 -0.7069
  111OSM    O1111441   1.972   4.541  10.439  0.5466  0.2811 -0.1713
  111OSM    O1211442   2.108   4.507  10.646 -0.3106 -0.1634  0.5845
  111OSM    C1S11443   1.863   4.633  10.454  0.6840  0.1360 -0.6602
  111OSM    H1S11444   1.897   4.720  10.513 -2.8843  0.7276  0.6121
  111OSM    H1T11445   1.781   4.582  10.509  1.6468  1.4969  2.1092
  111OSM     NF11446   1.713   4.784  10.331 -0.0386  0.6694 -0.4949
  111OSM    HNF11447   1.621   4.750  10.314  0.1381 -0.0429 -0.0459
  111OSM    C2S11448   1.818   4.682  10.314  0.0503 -0.3015  0.9909
  111OSM    H2S11449   1.903   4.720  10.255  0.5131 -0.5341  1.5017
  111OSM    C3S11450   1.780   4.552  10.231 -0.4348 -0.2920 -0.1669
  111OSM    H3S11451   1.697   4.498  10.281 -0.7508 -0.4876 -0.8934
  111OSM     O311452   1.883   4.451  10.215 -0.1055  0.1560 -0.0192
  111OSM    HO311453   1.934   4.474  10.293 -1.2373 -1.1842  1.1519
  111OSM    C4S11454   1.730   4.588  10.091  0.4952 -0.3157  0.7244
  111OSM    H4S11455   1.620   4.584  10.085  0.5421 -0.5920 -0.0060
  111OSM    C5S11456   1.800   4.633   9.988 -0.4629 -0.3040 -0.3657
  111OSM    H5S11457   1.908   4.636  10.006 -0.5574 -3.4695  1.1506
  111OSM    C6S11458   1.745   4.679   9.854  0.3466 -0.4059  0.4561
  111OSM    H6S11459   1.771   4.617   9.766  2.4696  0.8034  0.2003
  111OSM    H6T11460   1.795   4.771   9.817  0.4619 -0.6788 -0.0690
  111OSM    C7S11461   1.594   4.718   9.839 -0.4952 -0.1682 -0.3489
  111OSM    H7S11462   1.569   4.804   9.905 -0.3421 -1.4407  1.3913
  111OSM    H7T11463   1.535   4.629   9.869  1.4297 -1.6922 -0.9504
  111OSM    C8S11464   1.556   4.764   9.696  0.6695 -0.4475  0.0384
  111OSM    H8S11465   1.629   4.845   9.678  1.3553 -0.5270  2.2725
  111OSM    H8T11466   1.459   4.818   9.697 -0.3430 -2.1956  2.0293
  111OSM    C9S11467   1.572   4.650   9.591 -0.6156 -0.1735 -0.1377
  111OSM    H9S11468   1.524   4.562   9.638  0.3067 -0.1382  0.8832
  111OSM    H9T11469   1.679   4.625   9.575  0.0110  0.8245  2.3346
  111OSM   C10S11470   1.518   4.666   9.453 -0.1980  0.6368  0.7219
  111OSM   H10S11471   1.410   4.693   9.454 -1.8721 -5.2889 -1.3288
  111OSM   H10T11472   1.525   4.573   9.393  0.9836  0.8744  0.4797
  111OSM   C11S11473   1.591   4.762   9.380  0.1036  0.0833  0.3313
  111OSM   H11S11474   1.697   4.731   9.364  0.0379  1.2680 -2.6654
  111OSM   H11T11475   1.595   4.862   9.429  1.1828  0.1553  0.1198
  111OSM   C12S11476   1.546   4.780   9.235  0.0346  0.1115  0.5863
  111OSM   H12S11477   1.554   4.683   9.182 -0.3552  1.0055 -1.1438
  111OSM   H12T11478   1.615   4.858   9.196 -0.2412  0.7562  1.3751
  111OSM   C13S11479   1.408   4.843   9.219 -0.2954  0.1844 -0.3323
  111OSM   H13S11480   1.418   4.932   9.285 -1.5587  0.4952 -0.5534
  111OSM   H13T11481   1.332   4.770   9.257 -2.5033  1.1298 -2.8014
  111OSM   C14S11482   1.385   4.889   9.074  0.0727  0.9256  0.0712
  111OSM   H14S11483   1.400   4.794   9.018  2.1285  0.8413  0.7288
  111OSM   H14T11484   1.464   4.961   9.042 -0.9756  2.1403  0.2134
  111OSM   C15S11485   1.247   4.947   9.057 -0.1258  0.6907  0.7724
  111OSM   H15S11486   1.239   5.023   9.137  0.1195 -2.2010  3.6196
  111OSM   H15T11487   1.171   4.869   9.079  1.1664 -0.6130  0.7615
  111OSM   C16S11488   1.227   4.992   8.914  0.4931 -0.2818  0.4359
  111OSM   H16S11489   1.261   4.912   8.845  0.8288 -1.3084  1.7890
  111OSM   H16T11490   1.290   5.081   8.889  0.6873 -0.7527 -0.7793
  111OSM   C17S11491   1.085   5.029   8.874  0.1644 -0.9805  0.8285
  111OSM   H17S11492   1.054   5.130   8.907  2.1299  0.8703 -2.6871
  111OSM   H17T11493   1.022   4.950   8.919 -1.1339  0.6502  1.9521
  111OSM   C18S11494   1.067   5.027   8.723  0.1862 -0.2051  0.3172
  111OSM   H18S11495   0.965   4.992   8.696  0.5991 -0.3373 -1.1193
  111OSM   H18T11496   1.127   4.939   8.689 -0.0726 -1.6987  3.4982
  111OSM   H18U11497   1.096   5.116   8.664 -0.3440  0.7534  1.4913
  111OSM    C1F11498   1.732   4.891  10.401  0.1854  0.1794 -0.9799
  111OSM     OF11499   1.843   4.925  10.438  0.4745  0.2773  0.2335
  111OSM    C2F11500   1.614   4.955  10.459  0.0051  0.3238  0.4520
  111OSM    H2F11501   1.615   4.927  10.567  0.4318  0.2505  0.4292
  111OSM    H2G11502   1.525   4.909  10.411 -1.7822  1.2315  2.7896
  111OSM    C3F11503   1.625   5.099  10.422  0.0489  0.0286  0.5751
  111OSM    H3F11504   1.708   5.140  10.483  0.9514 -1.5169  0.4366
  111OSM    H3G11505   1.534   5.154  10.453  0.5963  0.2452  1.8186
  111OSM    C4F11506   1.646   5.127  10.272  0.5532 -0.2503 -0.4380
  111OSM    H4F11507   1.567   5.084  10.206 -1.3989  0.8193  1.1227
  111OSM    H4G11508   1.745   5.087  10.243  0.5183 -1.3970  1.0234
  111OSM    C5F11509   1.652   5.278  10.244  0.1357  0.0550  0.9368
  111OSM    H5F11510   1.726   5.335  10.305  1.8607  0.0922 -1.1121
  111OSM    H5G11511   1.554   5.327  10.262 -0.5902  0.9676 -4.5310
  111OSM    C6F11512   1.677   5.300  10.092  0.3640 -0.5654 -0.1830
  111OSM    H6F11513   1.613   5.235  10.028 -1.9941  1.8469 -0.3543
  111OSM    H6G11514   1.785   5.282  10.073  0.0641 -0.6481 -1.9305
  111OSM    C7F11515   1.661   5.444  10.039 -0.4856  0.8823  0.4765
  111OSM    H7F11516   1.736   5.510  10.087 -0.9113  1.7051  0.0279
  111OSM    H7G11517   1.559   5.473  10.073 -0.3232  2.0273  0.0083
  111OSM    C8F11518   1.682   5.464   9.888  0.4929  0.1447  0.2434
  111OSM    H8F11519   1.793   5.460   9.878  0.7298  1.3892  2.1288
  111OSM    H8G11520   1.637   5.559   9.853 -2.4854 -0.1945  2.9059
  111OSM    C9F11521   1.616   5.362   9.801 -0.7886  1.0073  0.7463
  111OSM    H9F11522   1.509   5.351   9.825 -0.8965  0.4588  0.0377
  111OSM   C10F11523   1.666   5.279   9.709  0.0238 -0.8568 -0.5364
  111OSM   H10F11524   1.595   5.212   9.660 -0.2189 -1.6435  0.8807
  111OSM   C11F11525   1.809   5.274   9.658 -0.1723  0.7638 -0.0015
  111OSM   H11F11526   1.848   5.172   9.637 -1.4316 -0.5735  3.7589
  111OSM   H11G11527   1.872   5.319   9.737  1.1296 -1.1860  0.1106
  111OSM   C12F11528   1.820   5.359   9.528 -0.1665 -0.4845  0.4869
  111OSM   H12F11529   1.928   5.368   9.504 -0.9038  1.0272 -2.4359
  111OSM   H12G11530   1.789   5.465   9.543 -0.8165 -0.5329 -0.4563
  111OSM   C13F11531   1.767   5.291   9.402  0.1251 -0.4181 -0.6359
  111OSM   H13F11532   1.656   5.288   9.398 -0.0027  1.6399  0.6803
  111OSM   H13G11533   1.808   5.188   9.397  1.1601  0.0164 -1.1815
  111OSM   C14F11534   1.812   5.365   9.277  0.3037  0.0518  0.5843
  111OSM   H14F11535   1.923   5.366   9.277  0.3367 -0.5497  2.4927
  111OSM   H14G11536   1.776   5.469   9.292 -1.6193 -0.5016 -0.1257
  111OSM   C15F11537   1.754   5.319   9.143  0.2418  0.5681  0.4626
  111OSM   H15F11538   1.773   5.210   9.128 -0.8365  0.4978 -0.5527
  111OSM   H15G11539   1.820   5.382   9.080  1.3270 -0.5705  0.4290
  111OSM   C16F11540   1.616   5.366   9.118  0.8741  0.3330 -0.3264
  111OSM   H16F11541   1.602   5.461   9.063  0.2585  0.3431 -0.1612
  111OSM   H16G11542   1.571   5.383   9.219 -1.8585 -0.8514 -1.2924
  111OSM   C17F11543   1.530   5.259   9.047  0.3491 -0.4934 -0.4427
  111OSM   H17F11544   1.424   5.293   9.052  0.0416 -1.5622  0.5173
  111OSM   H17G11545   1.531   5.163   9.103 -0.6196  1.4590  3.0282
  111OSM   C18F11546   1.568   5.245   8.905  0.2894 -0.1032 -0.6512
  111OSM   H18F11547   1.502   5.176   8.847  0.1998  1.0492 -1.9639
  111OSM   H18G11548   1.668   5.198   8.894 -0.0365 -0.9467  0.0050
  111OSM   H18H11549   1.569   5.339   8.845  0.2803  0.8759  0.8661
  112OSM      N11550   1.514   2.423  11.115  0.4207 -0.4866 -0.7689
  112OSM    C1511551   1.511   2.578  11.135 -0.1202  0.2047 -0.3405
  112OSM   H15A11552   1.581   2.616  11.208 -1.4478  1.1550  0.4823
  112OSM   H15B11553   1.414   2.617  11.163 -1.2271 -2.2571 -0.6698
  112OSM   H15C11554   1.534   2.630  11.043 -0.8117  2.1845  0.5627
  112OSM    C1411555   1.657   2.388  11.094  0.3730 -0.5548 -0.5535
  112OSM   H14A11556   1.663   2.280  11.096  0.5007 -0.5796 -1.9637
  112OSM   H14B11557   1.722   2.427  11.171  2.5753 -0.4096 -2.4245
  112OSM   H14C11558   1.700   2.423  11.001  1.4803  0.4992  0.3429
  112OSM    C1311559   1.468   2.354  11.236  0.2086  0.1574  0.0979
  112OSM   H13A11560   1.503   2.252  11.227  4.5952  1.4853  0.9467
  112OSM   H13B11561   1.361   2.353  11.243  0.0443  0.1897 -1.9800
  112OSM   H13C11562   1.513   2.392  11.326  2.5056 -1.4013 -0.3412
  112OSM    C1211563   1.427   2.379  10.991  0.1649  0.0975 -0.3860
  112OSM   H12A11564   1.327   2.415  11.009  0.9356  2.1280  0.0309
  112OSM   H12B11565   1.427   2.271  10.986  2.1682  0.0334  0.6453
  112OSM    C1111566   1.474   2.423  10.849  0.0236  0.2476  0.5206
  112OSM   H11A11567   1.410   2.360  10.784 -0.4918  1.4112 -0.1175
  112OSM   H11B11568   1.582   2.398  10.841 -0.3175 -1.0838 -0.0204
  112OSM      P11569   1.511   2.655  10.718 -0.0108 -0.2779 -0.4003
  112OSM    O1311570   1.410   2.760  10.684 -0.6692 -0.0896 -1.0419
  112OSM    O1411571   1.646   2.693  10.755 -0.0689 -0.0289 -0.0673
  112OSM    O1111572   1.522   2.559  10.590 -0.2783  0.1170 -0.3463
  112OSM    O1211573   1.452   2.562  10.832 -0.3866  0.2163 -0.0384
  112OSM    C1S11574   1.412   2.511  10.514 -0.0317  0.1639 -0.2338
  112OSM    H1S11575   1.319   2.572  10.518 -1.0939 -1.4781  0.5493
  112OSM    H1T11576   1.385   2.409  10.547 -1.7143  1.0612  1.2589
  112OSM     NF11577   1.323   2.469  10.288 -0.5940  0.8195 -0.5587
  112OSM    HNF11578   1.317   2.377  10.251 -1.5547  0.1813  1.1182
  112OSM    C2S11579   1.442   2.507  10.365  0.0750 -0.4848 -0.1200
  112OSM    H2S11580   1.472   2.608  10.333  2.3559 -1.4075 -0.9974
  112OSM    C3S11581   1.575   2.427  10.336  0.9808  0.3834 -0.1861
  112OSM    H3S11582   1.562   2.325  10.378 -0.4584  0.7546  0.3294
  112OSM     O311583   1.682   2.466  10.412  0.4219 -0.4299  0.3515
  112OSM    HO311584   1.638   2.510  10.485 -3.1417 -2.8503 -0.1754
  112OSM    C4S11585   1.618   2.425  10.189  0.2970  0.4035  0.7910
  112OSM    H4S11586   1.629   2.521  10.137  0.1009  0.4084  0.7599
  112OSM    C5S11587   1.618   2.311  10.112  1.5759 -0.4295  0.0284
  112OSM    H5S11588   1.573   2.220  10.154  0.4102 -0.0187 -0.2890
  112OSM    C6S11589   1.652   2.307   9.964  0.2225 -0.4328 -0.4482
  112OSM    H6S11590   1.744   2.247   9.949  0.2530 -0.5034  0.0196
  112OSM    H6T11591   1.666   2.408   9.922 -2.2539  0.4327  0.6641
  112OSM    C7S11592   1.536   2.253   9.878 -0.4460  0.7818 -0.0821
  112OSM    H7S11593   1.443   2.310   9.897 -1.9422 -2.5716  3.3583
  112OSM    H7T11594   1.525   2.149   9.915 -0.2456  0.0109 -2.1536
  112OSM    C8S11595   1.565   2.226   9.729 -0.8852  0.4741  0.0681
  112OSM    H8S11596   1.585   2.321   9.675 -0.3266 -0.4001 -1.3185
  112OSM    H8T11597   1.473   2.184   9.682 -1.6939  1.6095  0.6219
  112OSM    C9S11598   1.684   2.126   9.703  0.6185  0.0219 -0.5718
  112OSM    H9S11599   1.674   2.031   9.760 -0.3635  2.2748  3.1692
  112OSM    H9T11600   1.775   2.183   9.733 -0.7044  3.4000 -2.6807
  112OSM   C10S11601   1.710   2.110   9.553  0.0965  0.4921 -0.5023
  112OSM   H10S11602   1.719   2.214   9.515 -1.5735  0.3385 -1.3756
  112OSM   H10T11603   1.623   2.065   9.501  0.6940 -2.8704  1.2567
  112OSM   C11S11604   1.842   2.032   9.539  0.2263  0.0917  0.0918
  112OSM   H11S11605   1.835   1.924   9.564 -0.8677  0.3042  0.7402
  112OSM   H11T11606   1.924   2.072   9.602 -1.3408 -2.3799  3.8512
  112OSM   C12S11607   1.883   2.049   9.388  0.1721 -0.1500 -0.5114
  112OSM   H12S11608   1.889   2.157   9.365 -2.0241  0.3158  0.9219
  112OSM   H12T11609   1.802   2.012   9.322  0.4844  0.9232 -1.5070
  112OSM   C13S11610   2.008   1.969   9.344 -0.0724  0.2671 -0.0060
  112OSM   H13S11611   2.036   1.898   9.425 -0.9448  0.6974  0.6770
  112OSM   H13T11612   2.088   2.046   9.332  1.2064 -1.2986 -1.8510
  112OSM   C14S11613   1.980   1.897   9.214  0.4782  0.0471 -0.3026
  112OSM   H14S11614   1.950   1.969   9.135 -2.0613  0.7531  1.2151
  112OSM   H14T11615   1.887   1.843   9.240  0.8302  0.2945  1.5622
  112OSM   C15S11616   2.094   1.815   9.162 -0.1637 -0.0405  0.2551
  112OSM   H15S11617   2.161   1.769   9.238 -1.0759  0.9672  1.6946
  112OSM   H15T11618   2.159   1.880   9.099  0.1215 -0.1367  0.4496
  112OSM   C16S11619   2.038   1.706   9.069 -0.3172 -0.3878 -0.5592
  112OSM   H16S11620   1.990   1.761   8.985 -1.2221 -0.9009 -0.3950
  112OSM   H16T11621   1.969   1.649   9.136  0.3952 -1.6684 -0.8967
  112OSM   C17S11622   2.145   1.624   9.006 -0.1114  0.1369  0.0714
  112OSM   H17S11623   2.095   1.534   8.963 -1.7522  0.2198  1.7513
  112OSM   H17T11624   2.218   1.590   9.082 -2.1912 -2.4111  0.9870
  112OSM   C18S11625   2.224   1.698   8.902  0.4118  0.1567 -0.7020
  112OSM   H18S11626   2.152   1.738   8.827  0.0411 -0.5418 -0.7222
  112OSM   H18T11627   2.302   1.632   8.860  1.0046  0.9329 -0.8401
  112OSM   H18U11628   2.262   1.794   8.943  1.5603 -0.9000  0.7638
  112OSM    C1F11629   1.211   2.540  10.284  0.3253 -0.6399 -0.3874
  112OSM     OF11630   1.232   2.660  10.307 -0.1250  0.5592  0.0805
  112OSM    C2F11631   1.077   2.478  10.252 -0.9852 -0.3287  0.0340
  112OSM    H2F11632   1.014   2.472  10.343 -1.0383 -0.6259 -0.0220
  112OSM    H2G11633   1.084   2.379  10.201  2.1484 -0.5034  0.7452
  112OSM    C3F11634   0.991   2.561  10.148 -0.1261 -0.4826  0.0887
  112OSM    H3F11635   1.054   2.579  10.058 -0.9500 -1.3524 -0.6702
  112OSM    H3G11636   0.957   2.659  10.187 -2.4792 -1.5580  0.8405
  112OSM    C4F11637   0.862   2.498  10.096 -0.0700  0.0674 -0.0792
  112OSM    H4F11638   0.775   2.515  10.161  0.4637 -1.8888  1.1751
  112OSM    H4G11639   0.868   2.388  10.091  1.7905  0.1979 -1.4607
  112OSM    C5F11640   0.829   2.554   9.955 -0.8023  0.2479  0.2823
  112OSM    H5F11641   0.900   2.506   9.885 -1.2819 -0.9658  0.6039
  112OSM    H5G11642   0.839   2.664   9.947  1.2750 -0.1321 -3.5484
  112OSM    C6F11643   0.695   2.509   9.900 -0.3062 -0.0895 -0.3742
  112OSM    H6F11644   0.618   2.572   9.949 -0.6719 -0.1949 -0.8069
  112OSM    H6G11645   0.682   2.402   9.926  3.4793 -1.3907 -3.2851
  112OSM    C7F11646   0.690   2.520   9.744 -0.1035 -0.0650 -0.1217
  112OSM    H7F11647   0.768   2.460   9.693  2.3875  2.5672  0.4689
  112OSM    H7G11648   0.711   2.626   9.717 -2.3370  0.6731  0.8728
  112OSM    C8F11649   0.553   2.467   9.700 -0.0319  0.2317  0.7244
  112OSM    H8F11650   0.485   2.486   9.786 -1.5465 -1.8866  0.0368
  112OSM    H8G11651   0.563   2.357   9.687  2.1038  0.4145  0.6668
  112OSM    C9F11652   0.503   2.528   9.569 -0.0131  0.1272 -0.6297
  112OSM    H9F11653   0.422   2.601   9.580 -0.5708 -0.2417 -2.2281
  112OSM   C10F11654   0.539   2.490   9.448 -0.1789 -0.1455  0.2877
  112OSM   H10F11655   0.522   2.569   9.373 -2.1113  2.5290  3.3725
  112OSM   C11F11656   0.643   2.384   9.417  0.3394  0.6842 -0.0726
  112OSM   H11F11657   0.673   2.341   9.515  0.0722  1.7325  0.4853
  112OSM   H11G11658   0.729   2.431   9.366 -0.5625  2.6123  0.1311
  112OSM   C12F11659   0.577   2.277   9.328  0.6158  0.6427  0.5027
  112OSM   H12F11660   0.549   2.316   9.227  2.2049  1.4989  0.3695
  112OSM   H12G11661   0.487   2.230   9.372  1.4856 -2.7953 -1.2306
  112OSM   C13F11662   0.648   2.146   9.296  0.4046 -0.1332  0.2320
  112OSM   H13F11663   0.587   2.088   9.224  1.5901  0.7718 -1.5246
  112OSM   H13G11664   0.658   2.085   9.389  2.9172 -0.6788 -0.3651
  112OSM   C14F11665   0.782   2.155   9.228 -0.7871  0.4925  0.3832
  112OSM   H14F11666   0.858   2.219   9.278  0.4542  0.3346 -1.2473
  112OSM   H14G11667   0.761   2.199   9.128  1.6048  0.3612 -0.2151
  112OSM   C15F11668   0.851   2.011   9.213  0.7490 -0.5230  0.2656
  112OSM   H15F11669   0.786   1.933   9.168 -2.0026  0.3486  2.5167
  112OSM   H15G11670   0.876   1.981   9.317 -1.4817 -3.7913 -0.0528
  112OSM   C16F11671   0.989   2.013   9.149  0.9692  1.0070  0.4662
  112OSM   H16F11672   1.041   2.105   9.183  0.6160  1.1873  0.5212
  112OSM   H16G11673   0.980   2.021   9.039  1.0341 -0.8425  0.3145
  112OSM   C17F11674   1.083   1.891   9.184 -0.1785 -0.2505  0.0132
  112OSM   H17F11675   1.118   1.890   9.289  0.7524  0.0860 -0.2836
  112OSM   H17G11676   1.174   1.896   9.119  0.5796  0.8118  1.1268
  112OSM   C18F11677   1.025   1.748   9.150 -0.0638 -0.6288  0.2266
  112OSM   H18F11678   0.937   1.719   9.211 -1.9303 -1.0124 -2.5639
  112OSM   H18G11679   1.102   1.668   9.160 -0.2317 -0.7384  0.6301
  112OSM   H18H11680   1.005   1.755   9.041 -1.5732  0.4036  0.5566
  113OSM      N11681   1.764   1.681  11.145 -0.2027  0.1475  0.0147
  113OSM    C1511682   1.827   1.636  11.276  0.6715 -0.2455 -0.1120
  113OSM   H15A11683   1.932   1.628  11.256  0.7807 -1.7372  0.9375
  113OSM   H15B11684   1.786   1.548  11.325  0.4459  0.8632  1.7559
  113OSM   H15C11685   1.816   1.716  11.347 -1.1510  0.4000 -1.0981
  113OSM    C1411686   1.762   1.557  11.059 -0.2959 -0.0066  0.3006
  113OSM   H14A11687   1.721   1.472  11.111 -0.6316 -1.2931 -1.9867
  113OSM   H14B11688   1.854   1.533  11.008 -1.2580 -1.0990 -0.9507
  113OSM   H14C11689   1.696   1.581  10.977  0.0614 -0.0610 -0.0050
  113OSM    C1311690   1.626   1.724  11.173 -0.2836 -0.1547  0.6147
  113OSM   H13A11691   1.624   1.795  11.254  0.9909 -0.1679  0.6722
  113OSM   H13B11692   1.578   1.635  11.211 -1.0884  0.3950  0.9064
  113OSM   H13C11693   1.579   1.757  11.081  0.8934  1.0186  0.4165
  113OSM    C1211694   1.846   1.791  11.088 -0.2513  0.3138  0.3522
  113OSM   H12A11695   1.946   1.752  11.077  0.1968  1.6740 -0.5544
  113OSM   H12B11696   1.850   1.882  11.145  1.5287  0.0807  0.6404
  113OSM    C1111697   1.801   1.827  10.940 -0.5180  0.8756  0.8181
  113OSM   H11A11698   1.805   1.733  10.881  2.0514 -0.8134  3.5497
  113OSM   H11B11699   1.875   1.899  10.900  1.4804 -2.2104 -1.2871
  113OSM      P11700   1.636   2.033  10.969 -0.0501 -0.0590 -0.1909
  113OSM    O1311701   1.491   2.065  10.970  0.4569 -0.2897  0.3130
  113OSM    O1411702   1.715   2.078  11.082 -0.0882 -0.3038  0.1793
  113OSM    O1111703   1.699   2.107  10.843 -0.4680  0.2767 -0.6081
  113OSM    O1211704   1.664   1.877  10.941  0.2090  0.5276 -0.0515
  113OSM    C1S11705   1.668   2.066  10.707 -0.0280  0.3233 -0.0757
  113OSM    H1S11706   1.559   2.071  10.686 -0.5776 -1.1069  2.2424
  113OSM    H1T11707   1.706   1.962  10.708 -0.3630  0.1987 -0.2598
  113OSM     NF11708   1.744   2.053  10.478 -0.2999 -0.2466  0.2749
  113OSM    HNF11709   1.826   1.997  10.476  0.3709  0.6127  2.4695
  113OSM    C2S11710   1.736   2.144  10.592  0.5503  0.4998 -0.2776
  113OSM    H2S11711   1.675   2.235  10.573 -0.8633 -0.0286  1.5633
  113OSM    C3S11712   1.879   2.190  10.636  0.2631 -0.1462  0.0533
  113OSM    H3S11713   1.929   2.094  10.662  1.4245  0.7732  1.2294
  113OSM     O311714   1.894   2.262  10.755 -0.2293  0.6183 -0.9344
  113OSM    HO311715   1.827   2.224  10.813  1.4770  2.1854  2.1680
  113OSM    C4S11716   1.951   2.256  10.518 -0.5988 -0.0654  0.5525
  113OSM    H4S11717   1.899   2.351  10.497  0.5109 -0.0657 -2.5112
  113OSM    C5S11718   2.055   2.213  10.447  0.6443 -0.3458  0.1663
  113OSM    H5S11719   2.100   2.116  10.473 -1.5888 -1.5720 -0.3784
  113OSM    C6S11720   2.113   2.282  10.329  0.8891  0.4049 -0.1502
  113OSM    H6S11721   2.224   2.291  10.327  1.1877 -2.1608  1.9005
  113OSM    H6T11722   2.072   2.385  10.318  1.3508  0.7052  0.8985
  113OSM    C7S11723   2.082   2.225  10.185 -0.8741 -0.0113 -0.0874
  113OSM    H7S11724   2.154   2.284  10.124  0.1274 -1.1040  0.0356
  113OSM    H7T11725   1.979   2.254  10.153  0.8488  3.4240 -2.9314
  113OSM    C8S11726   2.117   2.078  10.168 -0.0473 -0.1322 -0.1060
  113OSM    H8S11727   2.052   2.007  10.222  0.6193 -1.0241 -0.4621
  113OSM    H8T11728   2.225   2.061  10.186 -0.4888 -0.6352  2.1333
  113OSM    C9S11729   2.104   2.035  10.023 -0.8739  0.8080 -0.0754
  113OSM    H9S11730   1.998   2.059  10.001 -0.7361  0.9790 -0.5513
  113OSM    H9T11731   2.118   1.925  10.011  1.5734  1.0183  0.5802
  113OSM   C10S11732   2.207   2.117   9.940  0.3055  0.2974  0.6831
  113OSM   H10S11733   2.288   2.140  10.011 -0.0336  0.8002  0.9054
  113OSM   H10T11734   2.167   2.215   9.907  0.3333 -0.0275 -0.3342
  113OSM   C11S11735   2.246   2.045   9.813  0.3361  0.2081  0.4784
  113OSM   H11S11736   2.147   2.024   9.768  1.3153 -0.4084 -1.4390
  113OSM   H11T11737   2.296   1.949   9.838  0.8940  0.1346 -0.8914
  113OSM   C12S11738   2.344   2.120   9.728 -0.9953 -0.1353  0.7192
  113OSM   H12S11739   2.442   2.093   9.773 -1.7064 -3.0166  0.6119
  113OSM   H12T11740   2.345   2.231   9.722  1.5239 -0.2062 -1.1597
  113OSM   C13S11741   2.339   2.056   9.588  0.3978 -0.3505  0.0933
  113OSM   H13S11742   2.245   2.099   9.550  0.8375  0.6929  0.1835
  113OSM   H13T11743   2.322   1.947   9.604 -0.2641 -0.3364 -0.4967
  113OSM   C14S11744   2.456   2.101   9.499  0.3334  0.7771  0.7063
  113OSM   H14S11745   2.544   2.059   9.552 -1.0099 -0.7198  1.8183
  113OSM   H14T11746   2.457   2.212   9.491  0.8598  0.7053 -0.2942
  113OSM   C15S11747   2.451   2.042   9.355 -0.0472 -0.0170 -0.0079
  113OSM   H15S11748   2.351   2.063   9.313 -0.2300 -0.6974  0.0800
  113OSM   H15T11749   2.467   1.933   9.368 -0.0812  0.0698  0.7551
  113OSM   C16S11750   2.555   2.096   9.258 -0.4829 -0.0509  0.1983
  113OSM   H16S11751   2.655   2.068   9.297 -0.0234  2.3658  0.8878
  113OSM   H16T11752   2.537   2.206   9.257 -3.4564 -0.5085 -0.7507
  113OSM   C17S11753   2.522   2.065   9.108  0.2716 -0.9547 -0.0283
  113OSM   H17S11754   2.615   2.105   9.062 -0.1506 -0.3495 -0.3486
  113OSM   H17T11755   2.438   2.128   9.073  1.4363 -0.1933 -1.5332
  113OSM   C18S11756   2.512   1.914   9.077 -0.0462  0.0669 -0.0308
  113OSM   H18S11757   2.425   1.861   9.122  0.0748  0.1395  0.2867
  113OSM   H18T11758   2.611   1.872   9.104 -0.2781 -1.3291 -1.3041
  113OSM   H18U11759   2.515   1.895   8.968  0.6410  0.6174 -0.1129
  113OSM    C1F11760   1.631   2.016  10.407 -0.4655 -0.7089 -0.0381
  113OSM     OF11761   1.513   2.050  10.445  0.0152 -0.1612  0.4155
  113OSM    C2F11762   1.658   1.943  10.281  0.3356  0.2440 -0.0604
  113OSM    H2F11763   1.716   1.854  10.313 -1.6602 -0.4476  1.7724
  113OSM    H2G11764   1.726   1.993  10.209 -1.2342  1.2554 -0.8721
  113OSM    C3F11765   1.523   1.903  10.209 -0.7241 -0.2496  0.4618
  113OSM    H3F11766   1.463   1.994  10.189  2.0796  1.5056 -0.2318
  113OSM    H3G11767   1.469   1.830  10.274 -2.1252  0.5156  0.1654
  113OSM    C4F11768   1.544   1.828  10.073  0.1316  0.7534 -0.6140
  113OSM    H4F11769   1.585   1.729  10.101  0.6962  0.3866 -2.6202
  113OSM    H4G11770   1.621   1.875  10.008 -0.1180  0.3672 -1.1951
  113OSM    C5F11771   1.411   1.800  10.003  0.1074 -0.2787 -0.3261
  113OSM    H5F11772   1.341   1.885  10.014 -0.8344 -1.2834  1.7566
  113OSM    H5G11773   1.354   1.722  10.058 -2.2543  2.0631  0.6478
  113OSM    C6F11774   1.416   1.748   9.859 -0.1124  0.8157  0.3983
  113OSM    H6F11775   1.479   1.823   9.806 -2.2517  2.6915  0.4288
  113OSM    H6G11776   1.317   1.740   9.809  0.7871 -1.3541 -1.1051
  113OSM    C7F11777   1.480   1.615   9.847 -0.3522  0.6344 -0.0779
  113OSM    H7F11778   1.418   1.536   9.895 -0.3538  0.6093 -0.1226
  113OSM    H7G11779   1.575   1.613   9.904 -1.2828  1.4417  1.5386
  113OSM    C8F11780   1.528   1.572   9.707  0.9960 -0.4052 -0.2211
  113OSM    H8F11781   1.441   1.548   9.642  1.1661 -1.8602  0.0829
  113OSM    H8G11782   1.587   1.479   9.721 -0.0927 -1.4225 -2.1631
  113OSM    C9F11783   1.615   1.673   9.641 -0.5928 -0.2085  0.1150
  113OSM    H9F11784   1.717   1.681   9.682 -1.7255 -1.6528  3.3657
  113OSM   C10F11785   1.567   1.761   9.551  0.6894  0.4846  0.3937
  113OSM   H10F11786   1.631   1.834   9.500 -1.1443  2.3669  0.7221
  113OSM   C11F11787   1.429   1.771   9.491  0.8546 -1.0008  0.1595
  113OSM   H11F11788   1.395   1.876   9.494  1.1906 -0.8515 -1.1764
  113OSM   H11G11789   1.358   1.707   9.548  0.9805 -1.6120 -0.3667
  113OSM   C12F11790   1.418   1.715   9.348 -0.0962  0.2268  0.8654
  113OSM   H12F11791   1.488   1.772   9.283  0.8236  2.4368  3.6428
  113OSM   H12G11792   1.317   1.741   9.310 -0.2153  0.8799  1.6141
  113OSM   C13F11793   1.452   1.570   9.330  0.3876 -0.1782  0.4290
  113OSM   H13F11794   1.399   1.517   9.412  0.5113 -2.2950 -0.8311
  113OSM   H13G11795   1.562   1.563   9.340  0.1700 -2.5597  1.3570
  113OSM   C14F11796   1.420   1.517   9.188 -0.1179 -0.2134  0.7393
  113OSM   H14F11797   1.316   1.544   9.160  1.2119  2.3312 -2.0754
  113OSM   H14G11798   1.414   1.407   9.190 -2.9518 -0.1859 -2.4053
  113OSM   C15F11799   1.510   1.560   9.074 -0.5953  0.6218  0.3988
  113OSM   H15F11800   1.619   1.545   9.087 -0.5778 -1.6481 -2.1226
  113OSM   H15G11801   1.499   1.670   9.070  1.8272  0.8031 -2.2617
  113OSM   C16F11802   1.472   1.510   8.932  0.4743  0.2898 -0.1711
  113OSM   H16F11803   1.369   1.538   8.900  0.5657 -0.3188 -1.0176
  113OSM   H16G11804   1.478   1.400   8.942 -1.2582  0.0692 -1.3897
  113OSM   C17F11805   1.563   1.546   8.818 -0.2617 -0.2379 -0.4469
  113OSM   H17F11806   1.661   1.495   8.827 -1.1606 -1.8114  0.5060
  113OSM   H17G11807   1.568   1.657   8.813 -3.7628 -0.1084 -1.8037
  113OSM   C18F11808   1.498   1.489   8.692  0.1365  0.3979 -0.6921
  113OSM   H18F11809   1.470   1.383   8.709  0.1498  0.6252  0.7846
  113OSM   H18G11810   1.553   1.490   8.595 -0.1130  3.3300 -0.8423
  113OSM   H18H11811   1.406   1.546   8.668  0.1726 -0.1495 -2.2122
  114OSM      N11812   1.853   6.785  11.831  0.1323  0.1813 -0.1059
  114OSM    C1511813   1.771   6.712  11.725 -0.3037  0.3223  0.0820
  114OSM   H15A11814   1.747   6.609  11.747 -0.4174 -0.1454 -2.1103
  114OSM   H15B11815   1.825   6.695  11.632 -0.8093  2.7635 -0.6941
  114OSM   H15C11816   1.676   6.761  11.708  0.0887  1.0907  0.0969
  114OSM    C1411817   1.882   6.930  11.795 -0.2148 -0.1750  0.6312
  114OSM   H14A11818   1.930   6.974  11.881  0.4824  0.4072 -0.0407
  114OSM   H14B11819   1.797   6.980  11.751  1.4490  2.2275  0.0741
  114OSM   H14C11820   1.959   6.929  11.720  0.2068  0.3062  1.0603
  114OSM    C1311821   1.782   6.788  11.956  0.5874 -0.1044 -0.0610
  114OSM   H13A11822   1.766   6.685  11.985 -0.2070 -0.1156 -0.5262
  114OSM   H13B11823   1.681   6.827  11.953 -0.0483 -1.7909 -0.8125
  114OSM   H13C11824   1.842   6.840  12.029  0.0518  0.1007  0.2413
  114OSM    C1211825   1.986   6.716  11.860 -0.0773 -0.1442  0.8987
  114OSM   H12A11826   1.963   6.617  11.896 -2.0502 -0.8240 -1.9981
  114OSM   H12B11827   2.037   6.764  11.942 -0.8108  3.5503 -0.6671
  114OSM    C1111828   2.089   6.700  11.742  0.7533 -0.7035  0.2421
  114OSM   H11A11829   2.044   6.639  11.661 -0.4719  1.0032 -0.3851
  114OSM   H11B11830   2.168   6.634  11.785 -1.4138 -1.8798  2.5802
  114OSM      P11831   2.213   6.847  11.556 -0.3936 -0.3284 -0.2651
  114OSM    O1311832   2.334   6.918  11.589 -0.2996 -0.4776  0.2388
  114OSM    O1411833   2.221   6.724  11.479 -0.0152  1.1964 -0.6302
  114OSM    O1111834   2.117   6.956  11.495 -0.4274  0.0244 -0.2709
  114OSM    O1211835   2.126   6.825  11.686  0.2067 -0.2671  0.0960
  114OSM    C1S11836   2.125   6.990  11.358  0.1177  0.4131 -0.3484
  114OSM    H1S11837   2.225   6.971  11.314  0.0483  0.8334 -0.6941
  114OSM    H1T11838   2.100   7.096  11.337  0.5074  1.1538  2.6132
  114OSM     NF11839   2.068   6.925  11.136  0.0662  0.4936  0.9843
  114OSM    HNF11840   2.021   7.004  11.097 -0.8613 -0.5348 -0.0304
  114OSM    C2S11841   2.028   6.905  11.271 -0.2097 -0.2892  0.2622
  114OSM    H2S11842   2.037   6.800  11.307  1.2258  1.0052  3.9306
  114OSM    C3S11843   1.887   6.946  11.297 -0.9288  0.1806  0.1780
  114OSM    H3S11844   1.868   7.053  11.271  0.4711  0.2973 -0.4329
  114OSM     O311845   1.861   6.933  11.436 -0.0619 -0.2254 -0.3179
  114OSM    HO311846   1.949   6.913  11.469 -0.3572 -0.7859  0.1432
  114OSM    C4S11847   1.783   6.852  11.230 -0.5006  0.2706 -0.4774
  114OSM    H4S11848   1.764   6.755  11.279  3.8224 -0.7929 -0.7367
  114OSM    C5S11849   1.711   6.889  11.121  0.0517  0.2420  0.6076
  114OSM    H5S11850   1.739   6.983  11.069 -0.1057 -0.2659 -0.4103
  114OSM    C6S11851   1.620   6.800  11.046 -0.2342  0.4344 -0.0881
  114OSM    H6S11852   1.515   6.836  11.043 -0.5782 -0.5484 -0.0673
  114OSM    H6T11853   1.622   6.696  11.086 -1.7054  0.5887  0.4323
  114OSM    C7S11854   1.647   6.772  10.895 -0.2870 -0.4881  0.1773
  114OSM    H7S11855   1.561   6.707  10.870  1.1854 -1.7673 -1.7309
  114OSM    H7T11856   1.745   6.720  10.882  1.2485  2.3088  0.0481
  114OSM    C8S11857   1.648   6.896  10.805 -0.3160  0.4998 -0.1160
  114OSM    H8S11858   1.702   6.983  10.846 -0.2719 -0.7192  2.5241
  114OSM    H8T11859   1.542   6.929  10.809 -0.5306 -0.1688 -0.1571
  114OSM    C9S11860   1.678   6.873  10.659  0.3783 -0.4485  0.0001
  114OSM    H9S11861   1.661   6.968  10.605 -2.6108 -0.2529  1.2136
  114OSM    H9T11862   1.600   6.801  10.626 -0.4122  0.5668 -0.3493
  114OSM   C10S11863   1.816   6.811  10.625  0.2630  0.5888 -0.2002
  114OSM   H10S11864   1.821   6.709  10.668 -0.8098  1.1128  1.2317
  114OSM   H10T11865   1.899   6.869  10.671 -0.2425  0.1212  1.3257
  114OSM   C11S11866   1.829   6.786  10.472  0.7015  0.6293 -0.2796
  114OSM   H11S11867   1.730   6.766  10.426 -0.1752  0.6150  1.5323
  114OSM   H11T11868   1.896   6.698  10.464 -0.2295 -0.2436  1.1833
  114OSM   C12S11869   1.882   6.907  10.400  0.1299  0.4276  0.3752
  114OSM   H12S11870   1.976   6.944  10.446  0.1136  1.0389 -0.0785
  114OSM   H12T11871   1.798   6.978  10.414 -1.6472 -1.6269  0.3356
  114OSM   C13S11872   1.900   6.887  10.250 -0.6037  0.1685  0.6561
  114OSM   H13S11873   1.809   6.912  10.191  0.0373 -1.3671 -1.0309
  114OSM   H13T11874   1.929   6.783  10.225 -2.2913 -0.1505 -0.0373
  114OSM   C14S11875   2.001   6.976  10.182 -0.0808  0.0588 -0.0551
  114OSM   H14S11876   2.101   6.941  10.218  0.1802 -1.2780 -1.9904
  114OSM   H14T11877   1.982   7.079  10.217  0.9452  0.6446 -1.1773
  114OSM   C15S11878   2.001   6.964  10.029  0.7260  0.2068 -0.2516
  114OSM   H15S11879   1.910   6.984   9.969 -0.5937 -0.0104  1.6559
  114OSM   H15T11880   2.050   6.870   9.995  1.7248  0.8902 -0.7546
  114OSM   C16S11881   2.092   7.077   9.973 -0.3730 -0.1874  0.8508
  114OSM   H16S11882   2.194   7.061  10.016 -0.0234 -0.0207  0.0895
  114OSM   H16T11883   2.062   7.173  10.020  1.2983  0.0915  1.4038
  114OSM   C17S11884   2.099   7.086   9.824  0.1817 -0.2271 -0.0625
  114OSM   H17S11885   2.001   7.116   9.781 -0.1894 -0.9422  0.2739
  114OSM   H17T11886   2.119   6.982   9.790  0.5574 -0.2914  0.3436
  114OSM   C18S11887   2.209   7.174   9.771 -0.3004 -0.2507  0.2422
  114OSM   H18S11888   2.233   7.139   9.668  0.4597  1.9461 -0.3600
  114OSM   H18T11889   2.301   7.178   9.832 -0.0647 -0.6576 -0.0882
  114OSM   H18U11890   2.171   7.279   9.761  0.7142  0.1074  0.1377
  114OSM    C1F11891   2.161   6.862  11.078 -0.0601  0.1448 -0.4777
  114OSM     OF11892   2.234   6.785  11.142 -0.2258  0.2845  0.0864
  114OSM    C2F11893   2.194   6.901  10.936  0.1739 -0.0577  0.1463
  114OSM    H2F11894   2.226   7.007  10.928  0.0924 -0.0147  0.3844
  114OSM    H2G11895   2.097   6.884  10.884  0.9841 -0.8214 -1.1358
  114OSM    C3F11896   2.305   6.822  10.869 -0.0784 -0.2556 -0.5306
  114OSM    H3F11897   2.275   6.717  10.852  0.8352 -0.5757 -0.1996
  114OSM    H3G11898   2.391   6.825  10.940 -1.2685  0.4697  0.8984
  114OSM    C4F11899   2.353   6.853  10.724 -0.0953 -0.6230  0.4279
  114OSM    H4F11900   2.403   6.953  10.725 -0.5603 -0.3735  3.4049
  114OSM    H4G11901   2.267   6.852  10.654  0.7743 -1.5169 -0.6567
  114OSM    C5F11902   2.465   6.753  10.685  0.9222 -0.7346  0.5821
  114OSM    H5F11903   2.424   6.651  10.702  0.3928 -0.3070  1.9563
  114OSM    H5G11904   2.551   6.754  10.755  0.4097 -0.9105  1.2153
  114OSM    C6F11905   2.518   6.784  10.540 -0.1841  0.6408 -0.4184
  114OSM    H6F11906   2.556   6.888  10.543  2.5848 -0.2800 -1.5780
  114OSM    H6G11907   2.429   6.783  10.474 -0.6377 -0.3740  0.2031
  114OSM    C7F11908   2.625   6.680  10.499 -0.1820  1.1087 -0.3604
  114OSM    H7F11909   2.575   6.581  10.512  1.8311  0.4902  3.6401
  114OSM    H7G11910   2.710   6.682  10.571 -1.0053 -0.7209  0.7279
  114OSM    C8F11911   2.673   6.696  10.347  0.0047  0.5455 -0.1245
  114OSM    H8F11912   2.715   6.795  10.319 -4.1437  3.1078  2.1200
  114OSM    H8G11913   2.576   6.695  10.292  0.0296  5.3688 -0.4418
  114OSM    C9F11914   2.756   6.580  10.309  0.4377  0.1939  0.2991
  114OSM    H9F11915   2.814   6.533  10.389 -1.1774 -1.2251  0.6633
  114OSM   C10F11916   2.751   6.510  10.199  0.2466  0.6619  0.1730
  114OSM   H10F11917   2.825   6.432  10.175 -1.4878 -0.7320 -0.8264
  114OSM   C11F11918   2.661   6.544  10.086  0.4750 -0.5661  0.9960
  114OSM   H11F11919   2.606   6.639  10.105 -1.2875 -1.9459  3.1092
  114OSM   H11G11920   2.586   6.463  10.071  0.7015 -0.7206  0.7101
  114OSM   C12F11921   2.754   6.545   9.957  0.8569 -0.3691 -0.1305
  114OSM   H12F11922   2.784   6.441   9.934 -1.3455 -1.0588 -0.0299
  114OSM   H12G11923   2.843   6.610   9.966  0.4790  0.1842 -0.3354
  114OSM   C13F11924   2.680   6.601   9.831 -0.2793  0.0418 -0.0661
  114OSM   H13F11925   2.684   6.712   9.841 -3.4944  0.3757 -1.5990
  114OSM   H13G11926   2.569   6.591   9.836 -0.2555 -0.2485 -0.1188
  114OSM   C14F11927   2.708   6.533   9.704 -0.3014 -0.6628  0.1948
  114OSM   H14F11928   2.689   6.425   9.724  1.1378 -0.7724  0.9961
  114OSM   H14G11929   2.815   6.546   9.677  0.2311 -1.2300  1.9922
  114OSM   C15F11930   2.615   6.591   9.600  0.2047  0.6468  0.3069
  114OSM   H15F11931   2.633   6.701   9.597  2.7201  0.3001  0.8744
  114OSM   H15G11932   2.510   6.565   9.621  0.3047  0.4420  0.5491
  114OSM   C16F11933   2.652   6.531   9.462 -0.1331 -0.6092 -0.0529
  114OSM   H16F11934   2.669   6.421   9.458  1.4184 -0.3945  0.5101
  114OSM   H16G11935   2.746   6.576   9.425  0.4509 -1.8264 -0.0786
  114OSM   C17F11936   2.547   6.580   9.359 -0.2506  0.0481 -0.0927
  114OSM   H17F11937   2.548   6.691   9.354  1.6502 -0.0066 -1.3475
  114OSM   H17G11938   2.445   6.558   9.397  0.5978 -0.1205  2.1390
  114OSM   C18F11939   2.559   6.509   9.227  0.1846  0.8638 -0.1321
  114OSM   H18F11940   2.479   6.538   9.156 -2.0430 -1.8350  1.1492
  114OSM   H18G11941   2.537   6.402   9.251 -0.7167  1.0693 -0.0133
  114OSM   H18H11942   2.656   6.520   9.176  0.6149 -2.2112 -0.0584
  115OSM      N11943   4.275   4.362   6.118 -0.0189  0.5596  0.3281
  115OSM    C1511944   4.306   4.219   6.127  0.7564  0.4836 -0.4872
  115OSM   H15A11945   4.232   4.155   6.081  0.9365  0.3080 -0.5326
  115OSM   H15B11946   4.320   4.181   6.227 -1.0430 -1.5360 -0.9484
  115OSM   H15C11947   4.389   4.192   6.063  0.3912  0.3244 -0.9000
  115OSM    C1411948   4.400   4.441   6.131  0.7171 -0.1063  0.3047
  115OSM   H14A11949   4.479   4.423   6.060  1.4004 -1.0259  1.2803
  115OSM   H14B11950   4.435   4.424   6.232 -1.2335 -0.0854  1.0032
  115OSM   H14C11951   4.375   4.546   6.127  1.9654  0.0921 -3.9245
  115OSM    C1311952   4.231   4.382   5.975  0.0389  0.0195  0.1796
  115OSM   H13A11953   4.196   4.483   5.960  0.5328  0.7752  3.6969
  115OSM   H13B11954   4.158   4.306   5.948  1.2217 -1.0681 -0.0178
  115OSM   H13C11955   4.315   4.361   5.912 -1.4241  0.7110 -2.0411
  115OSM    C1211956   4.166   4.407   6.214 -0.3017  0.2827 -0.2613
  115OSM   H12A11957   4.216   4.379   6.305 -1.9924  1.0035  0.9046
  115OSM   H12B11958   4.082   4.339   6.205  1.3076 -1.6675 -0.8844
  115OSM    C1111959   4.123   4.555   6.213  0.5012 -0.0643  0.5262
  115OSM   H11A11960   4.054   4.577   6.297 -0.8543 -0.8639 -0.3530
  115OSM   H11B11961   4.072   4.560   6.115  0.7378  0.5270  0.4318
  115OSM      P11962   4.224   4.792   6.267  0.3627 -0.5399 -0.2941
  115OSM    O1311963   4.341   4.877   6.235 -0.3902 -0.0361 -0.2359
  115OSM    O1411964   4.087   4.834   6.232 -0.1880  0.1787 -0.0572
  115OSM    O1111965   4.241   4.744   6.415  0.2739 -0.0968  0.6807
  115OSM    O1211966   4.236   4.658   6.192  0.0622  0.6314 -0.2969
  115OSM    C1S11967   4.358   4.695   6.471  0.1696 -0.5018 -0.1482
  115OSM    H1S11968   4.450   4.749   6.441  0.2401 -1.7199 -2.2585
  115OSM    H1T11969   4.379   4.590   6.440  0.6371 -0.8141  1.2064
  115OSM     NF11970   4.487   4.643   6.683 -0.4309  0.3639  0.2339
  115OSM    HNF11971   4.472   4.559   6.735  0.3518 -0.0943 -0.2691
  115OSM    C2S11972   4.362   4.702   6.628 -0.6571  0.6949 -0.2664
  115OSM    H2S11973   4.372   4.809   6.654  2.8953 -0.1419  2.0548
  115OSM    C3S11974   4.228   4.654   6.693 -0.6939 -0.2757  0.3106
  115OSM    H3S11975   4.219   4.548   6.659  0.3868 -0.5985  1.0150
  115OSM     O311976   4.121   4.740   6.643  0.3120 -0.5263 -0.1440
  115OSM    HO311977   4.156   4.776   6.561  2.2858 -2.0880 -0.0415
  115OSM    C4S11978   4.213   4.674   6.839  0.2670 -0.4688  0.4463
  115OSM    H4S11979   4.167   4.767   6.876  1.4225  0.1917  0.2321
  115OSM    C5S11980   4.232   4.572   6.919  0.2057 -0.0681  0.5789
  115OSM    H5S11981   4.261   4.474   6.878 -2.5446 -0.1859 -1.1925
  115OSM    C6S11982   4.206   4.571   7.067 -0.3581 -0.1282  0.5852
  115OSM    H6S11983   4.175   4.469   7.100  0.7240 -0.8385 -0.4975
  115OSM    H6T11984   4.121   4.633   7.101 -1.4118 -1.5008  0.5283
  115OSM    C7S11985   4.329   4.617   7.136 -0.1720  0.4396  0.0141
  115OSM    H7S11986   4.363   4.721   7.114  2.1848 -0.6734 -1.8552
  115OSM    H7T11987   4.412   4.550   7.108 -0.8542 -0.0705 -0.8304
  115OSM    C8S11988   4.311   4.595   7.282 -0.0548 -0.0321 -0.4305
  115OSM    H8S11989   4.399   4.619   7.345 -0.9565 -0.1241  0.9108
  115OSM    H8T11990   4.283   4.489   7.301  1.8032 -0.7805 -1.7755
  115OSM    C9S11991   4.193   4.665   7.355  0.3741 -0.0132 -0.9046
  115OSM    H9S11992   4.092   4.638   7.317 -0.2051  1.4490 -0.4045
  115OSM    H9T11993   4.207   4.773   7.338  0.3279  0.2744  0.7853
  115OSM   C10S11994   4.198   4.628   7.507  0.2752  0.1006 -0.2803
  115OSM   H10S11995   4.288   4.672   7.556  0.3442 -0.0123 -0.3061
  115OSM   H10T11996   4.190   4.519   7.525 -0.9679  0.5631  2.3288
  115OSM   C11S11997   4.075   4.675   7.589 -1.0222  0.2654  0.6019
  115OSM   H11S11998   3.988   4.611   7.561 -1.0171  0.9267 -0.9217
  115OSM   H11T11999   4.053   4.783   7.579  1.2694  0.7695  0.9082
  115OSM   C12S12000   4.098   4.654   7.736  0.1800 -0.1329 -0.4937
  115OSM   H12S12001   4.135   4.552   7.759 -1.7529 -1.0230 -1.2284
  115OSM   H12T12002   3.999   4.672   7.783  0.2636  1.4526 -0.8915
  115OSM   C13S12003   4.184   4.766   7.791  0.2179 -0.9981  0.0730
  115OSM   H13S12004   4.160   4.862   7.742 -1.0728 -1.6319 -0.5771
  115OSM   H13T12005   4.294   4.754   7.789  0.1569 -1.5593 -0.0519
  115OSM   C14S12006   4.161   4.800   7.945 -0.8682 -0.0983  0.6434
  115OSM   H14S12007   4.057   4.837   7.931 -0.9291 -0.6186 -0.2814
  115OSM   H14T12008   4.218   4.887   7.986 -1.7266  1.8700 -2.1866
  115OSM   C15S12009   4.189   4.677   8.037 -1.0015 -0.3552 -0.3379
  115OSM   H15S12010   4.160   4.583   7.987 -2.1954 -0.5213  0.6385
  115OSM   H15T12011   4.125   4.683   8.127  1.2839 -0.0467  1.3156
  115OSM   C16S12012   4.339   4.656   8.073  0.6651 -0.0092  0.2949
  115OSM   H16S12013   4.396   4.745   8.106 -1.0253 -0.2503  4.0070
  115OSM   H16T12014   4.388   4.612   7.983  0.6977 -0.3246  0.4692
  115OSM   C17S12015   4.365   4.554   8.185  0.1397 -0.1694  0.5149
  115OSM   H17S12016   4.336   4.449   8.165  1.1151  0.2242 -3.2736
  115OSM   H17T12017   4.306   4.585   8.274 -0.4034  0.6983 -0.1416
  115OSM   C18S12018   4.512   4.561   8.229 -0.0841  0.7661  0.3051
  115OSM   H18S12019   4.548   4.476   8.291 -1.0579  2.1399  2.8569
  115OSM   H18T12020   4.537   4.654   8.285  3.2819 -0.1687  0.4319
  115OSM   H18U12021   4.570   4.574   8.136 -3.7308 -0.2479 -2.2436
  115OSM    C1F12022   4.611   4.686   6.663  0.3285  0.4784 -0.0729
  115OSM     OF12023   4.638   4.801   6.636 -0.4682  0.7172  0.0860
  115OSM    C2F12024   4.728   4.585   6.686 -0.1545 -0.4725  0.7163
  115OSM    H2F12025   4.802   4.617   6.610  1.7858 -1.9526  1.9358
  115OSM    H2G12026   4.689   4.483   6.663 -2.4802  0.6594 -0.5617
  115OSM    C3F12027   4.783   4.589   6.829 -0.1328 -0.0970  0.8270
  115OSM    H3F12028   4.836   4.687   6.834  1.6088 -1.0274  1.2860
  115OSM    H3G12029   4.861   4.511   6.842  0.2980 -0.1263 -1.7360
  115OSM    C4F12030   4.683   4.575   6.943 -0.0382 -0.3788 -0.3156
  115OSM    H4F12031   4.622   4.483   6.925 -1.9878  1.0786 -1.3829
  115OSM    H4G12032   4.610   4.658   6.930  0.2655  0.0522  0.7444
  115OSM    C5F12033   4.747   4.567   7.089  0.3962 -0.2531 -0.0291
  115OSM    H5F12034   4.672   4.583   7.169 -0.6610 -1.3110 -0.7917
  115OSM    H5G12035   4.821   4.650   7.081  1.9281 -1.7942 -2.2937
  115OSM    C6F12036   4.810   4.430   7.103 -0.0985 -1.0475  0.1129
  115OSM    H6F12037   4.877   4.420   7.191  0.7549 -1.0098 -0.5307
  115OSM    H6G12038   4.875   4.398   7.019 -1.1773  0.9384 -1.5178
  115OSM    C7F12039   4.707   4.313   7.126  0.3515 -0.5453  0.0043
  115OSM    H7F12040   4.644   4.297   7.036 -0.8194  1.6373  0.4113
  115OSM    H7G12041   4.649   4.349   7.214  0.4602 -3.0246  1.1330
  115OSM    C8F12042   4.773   4.182   7.163  0.2240 -0.1626  0.2709
  115OSM    H8F12043   4.823   4.208   7.259 -1.2411  1.6908  0.5441
  115OSM    H8G12044   4.829   4.126   7.084  0.6599  0.0698  0.4126
  115OSM    C9F12045   4.668   4.084   7.206  0.7754  0.2114  0.1461
  115OSM    H9F12046   4.616   4.036   7.122 -0.1823  2.0673 -0.3496
  115OSM   C10F12047   4.641   4.042   7.334 -0.3900  0.5575 -1.2562
  115OSM   H10F12048   4.559   3.972   7.352  0.3883  0.3380  1.7966
  115OSM   C11F12049   4.711   4.089   7.457  0.0835 -0.7534 -0.2670
  115OSM   H11F12050   4.818   4.060   7.462 -0.4686 -2.6774  0.7928
  115OSM   H11G12051   4.680   4.035   7.549  1.1962  1.8721  1.7028
  115OSM   C12F12052   4.699   4.247   7.498  0.0926 -0.3480  0.5569
  115OSM   H12F12053   4.748   4.313   7.424  0.8884  0.9167  2.1871
  115OSM   H12G12054   4.752   4.260   7.595 -1.4621  0.4015  1.3218
  115OSM   C13F12055   4.553   4.305   7.524  0.4736 -0.2932 -0.3546
  115OSM   H13F12056   4.482   4.227   7.559 -0.5786  1.9147  2.6038
  115OSM   H13G12057   4.507   4.348   7.432 -1.8739  0.5497  1.1727
  115OSM   C14F12058   4.550   4.418   7.629  0.0303  0.3960  0.0446
  115OSM   H14F12059   4.564   4.508   7.566  0.5633  0.8921  0.8555
  115OSM   H14G12060   4.629   4.408   7.707 -0.5879  0.4433  0.6907
  115OSM   C15F12061   4.415   4.422   7.709 -0.2598  0.4669  0.3091
  115OSM   H15F12062   4.330   4.416   7.637  0.5469 -0.6758 -0.5585
  115OSM   H15G12063   4.409   4.520   7.762  0.0684  0.5307  0.2307
  115OSM   C16F12064   4.409   4.314   7.817 -0.7481  0.0935  0.0462
  115OSM   H16F12065   4.498   4.324   7.882 -0.6237 -1.9231  0.2157
  115OSM   H16G12066   4.424   4.215   7.767 -0.8638  0.7422 -1.2961
  115OSM   C17F12067   4.275   4.314   7.896  0.2274  1.0060  0.1509
  115OSM   H17F12068   4.252   4.414   7.939 -1.6770  0.2770  0.8871
  115OSM   H17G12069   4.300   4.245   7.980 -0.6674 -1.5568 -1.6371
  115OSM   C18F12070   4.159   4.251   7.821  0.2845 -0.0559  0.2549
  115OSM   H18F12071   4.188   4.150   7.785 -0.2863 -0.0666 -0.1837
  115OSM   H18G12072   4.139   4.309   7.728 -1.5450 -1.5737 -0.3309
  115OSM   H18H12073   4.070   4.247   7.887 -1.4589  4.7395 -1.5093
  116OSM      N12074   3.484   1.894   5.897  0.5380  0.0239 -0.4262
  116OSM    C1512075   3.426   2.010   5.828 -0.4397  0.2315  0.2008
  116OSM   H15A12076   3.319   2.017   5.811 -0.4592  0.2865  0.3422
  116OSM   H15B12077   3.479   2.029   5.736  0.6545 -2.7768  0.1523
  116OSM   H15C12078   3.441   2.098   5.889 -1.9624 -0.5694  1.7843
  116OSM    C1412079   3.414   1.772   5.850 -0.3614 -0.9046  0.0634
  116OSM   H14A12080   3.323   1.758   5.907  0.3085  0.8688  1.6391
  116OSM   H14B12081   3.480   1.690   5.876 -0.5032 -0.2379  2.7347
  116OSM   H14C12082   3.395   1.766   5.744 -0.6173  2.4611 -0.1256
  116OSM    C1312083   3.625   1.893   5.857  0.2694 -0.1212  0.7878
  116OSM   H13A12084   3.680   1.820   5.915  1.9889  1.3249  1.0440
  116OSM   H13B12085   3.680   1.985   5.873 -0.1202  0.7537 -2.4253
  116OSM   H13C12086   3.623   1.878   5.750 -0.3912 -0.4208  0.8422
  116OSM    C1212087   3.470   1.908   6.045  0.0831  1.6146 -0.4349
  116OSM   H12A12088   3.526   1.997   6.071 -1.4326  2.5514 -0.2824
  116OSM   H12B12089   3.515   1.826   6.099 -0.2987  0.9341 -1.1547
  116OSM    C1112090   3.329   1.930   6.108 -0.9951 -0.0073 -0.4308
  116OSM   H11A12091   3.288   2.027   6.071  2.2135  1.4401 -0.3501
  116OSM   H11B12092   3.357   1.927   6.215 -4.0710 -1.8329  0.3997
  116OSM      P12093   3.092   1.817   6.114  0.4358  0.2621  0.2253
  116OSM    O1312094   3.034   1.906   6.016 -0.0655  0.3137  0.3127
  116OSM    O1412095   3.045   1.675   6.122  0.1799 -0.3556 -0.2744
  116OSM    O1112096   3.076   1.886   6.253 -0.2849 -0.0437 -0.5552
  116OSM    O1212097   3.246   1.819   6.095  0.8366 -0.5623 -0.1336
  116OSM    C1S12098   3.128   1.839   6.379  0.5860 -0.9981 -0.2532
  116OSM    H1S12099   3.236   1.814   6.369  1.0893  1.1485 -0.4820
  116OSM    H1T12100   3.090   1.737   6.399 -1.3057 -0.5509 -1.4989
  116OSM     NF12101   3.188   1.923   6.611  1.2261 -0.1719 -0.2033
  116OSM    HNF12102   3.142   1.873   6.684  0.3755  0.6331 -0.1838
  116OSM    C2S12103   3.103   1.943   6.498 -0.1240  0.1944 -0.1914
  116OSM    H2S12104   3.133   2.045   6.465 -0.2837 -0.0721 -1.1657
  116OSM    C3S12105   2.952   1.960   6.539 -0.0359  0.4345  0.8231
  116OSM    H3S12106   2.925   1.857   6.571 -2.1982  0.3218 -1.2189
  116OSM     O312107   2.868   1.976   6.424 -0.2240 -0.4396 -0.1308
  116OSM    HO312108   2.922   1.939   6.354  0.3006  1.5998 -0.8257
  116OSM    C4S12109   2.926   2.069   6.644 -0.2102  0.4260  0.7110
  116OSM    H4S12110   2.951   2.173   6.618  2.0353 -0.1823  0.3058
  116OSM    C5S12111   2.862   2.053   6.762 -0.5833 -0.2560 -0.2270
  116OSM    H5S12112   2.822   1.953   6.785  0.5905 -1.2418 -2.2585
  116OSM    C6S12113   2.840   2.157   6.871  0.1184 -0.3001 -0.2863
  116OSM    H6S12114   2.830   2.260   6.830  1.2165  0.1337  0.5304
  116OSM    H6T12115   2.933   2.153   6.931 -0.0283  0.1303 -0.0260
  116OSM    C7S12116   2.724   2.139   6.970  0.3089 -0.0434 -1.0000
  116OSM    H7S12117   2.744   2.046   7.026  0.5359 -0.6104 -2.0102
  116OSM    H7T12118   2.631   2.116   6.913 -0.5581  1.0159 -0.0385
  116OSM    C8S12119   2.709   2.256   7.070 -0.4095  0.1809 -0.1573
  116OSM    H8S12120   2.613   2.257   7.125 -0.0787 -0.9068  0.4557
  116OSM    H8T12121   2.705   2.351   7.013 -0.5783  1.2994  1.7118
  116OSM    C9S12122   2.821   2.262   7.180  0.2316 -0.5362  0.5465
  116OSM    H9S12123   2.915   2.290   7.129  0.1809 -2.4652 -0.6548
  116OSM    H9T12124   2.829   2.164   7.233  1.7981  0.4759  2.2274
  116OSM   C10S12125   2.785   2.383   7.275 -0.2134  0.2005 -0.2197
  116OSM   H10S12126   2.679   2.373   7.306 -0.3900 -1.2788 -1.2494
  116OSM   H10T12127   2.805   2.474   7.215 -3.5997  0.0207 -1.7519
  116OSM   C11S12128   2.883   2.382   7.402  0.4269  0.5111 -0.0608
  116OSM   H11S12129   2.860   2.461   7.477  0.5823 -0.3394  0.8901
  116OSM   H11T12130   2.985   2.393   7.359 -0.6040 -2.2147 -3.4489
  116OSM   C12S12131   2.883   2.254   7.484  0.0402  0.0540 -0.0395
  116OSM   H12S12132   2.956   2.198   7.421  1.3805  1.9230 -0.1934
  116OSM   H12T12133   2.787   2.200   7.492  0.4479 -0.5548  0.8159
  116OSM   C13S12134   2.939   2.276   7.628 -0.4492 -0.6073  0.1144
  116OSM   H13S12135   2.926   2.176   7.675 -0.7380  0.0254  1.4024
  116OSM   H13T12136   2.867   2.347   7.675  0.4861 -0.0208  0.6732
  116OSM   C14S12137   3.079   2.350   7.635 -0.1673  0.2677  0.5082
  116OSM   H14S12138   3.086   2.457   7.606  0.7698 -0.2222 -1.1227
  116OSM   H14T12139   3.133   2.302   7.550 -2.7876 -2.0951  0.1160
  116OSM   C15S12140   3.162   2.346   7.760  0.2571  0.2709  0.4484
  116OSM   H15S12141   3.268   2.375   7.746  0.2449 -0.1664 -0.6050
  116OSM   H15T12142   3.164   2.241   7.796 -0.1493 -0.2772 -1.1228
  116OSM   C16S12143   3.091   2.427   7.877  0.0566 -0.5383  0.0924
  116OSM   H16S12144   3.001   2.371   7.913 -1.0547  0.6830 -0.7446
  116OSM   H16T12145   3.057   2.527   7.842  0.2805  0.1747  1.8484
  116OSM   C17S12146   3.174   2.432   8.004  0.2596  0.3529 -0.6213
  116OSM   H17S12147   3.261   2.497   7.984 -0.4001  1.2216 -0.6925
  116OSM   H17T12148   3.203   2.327   8.026 -1.2480  0.0637  0.0933
  116OSM   C18S12149   3.099   2.477   8.127 -0.3170  0.5233 -0.1925
  116OSM   H18S12150   3.038   2.567   8.105  1.5078  1.3709 -1.9417
  116OSM   H18T12151   3.164   2.501   8.214 -0.8155 -0.4634  0.4530
  116OSM   H18U12152   3.030   2.393   8.149 -1.4298  1.5406  0.2172
  116OSM    C1F12153   3.318   1.925   6.617  0.3265  0.4030 -0.9372
  116OSM     OF12154   3.381   1.948   6.518  0.1420 -0.5002  0.1757
  116OSM    C2F12155   3.376   1.895   6.746  0.8912 -0.3422  0.0124
  116OSM    H2F12156   3.455   1.818   6.731  1.0162  0.0294 -1.3332
  116OSM    H2G12157   3.302   1.835   6.804  0.4723 -0.3757 -0.5490
  116OSM    C3F12158   3.414   2.022   6.824 -0.0186  0.1289 -0.6102
  116OSM    H3F12159   3.354   2.028   6.917  0.1645 -1.2997 -0.3940
  116OSM    H3G12160   3.378   2.113   6.772  1.2227  0.8635 -0.1958
  116OSM    C4F12161   3.562   2.018   6.858 -0.0494 -0.4223 -0.4146
  116OSM    H4F12162   3.575   2.116   6.908 -3.0034  0.6784 -1.6516
  116OSM    H4G12163   3.626   2.025   6.767  0.5052 -2.1083 -0.1826
  116OSM    C5F12164   3.590   1.903   6.956 -0.7581 -0.3628  0.0822
  116OSM    H5F12165   3.698   1.892   6.978 -0.7839 -0.9404 -0.0715
  116OSM    H5G12166   3.552   1.806   6.917 -1.1075 -0.9632  1.8495
  116OSM    C6F12167   3.530   1.915   7.094 -0.5260  0.3049 -0.1808
  116OSM    H6F12168   3.420   1.926   7.079 -0.9528  0.4627  2.7378
  116OSM    H6G12169   3.569   2.004   7.150 -0.9271 -1.0589  2.3578
  116OSM    C7F12170   3.554   1.791   7.176 -0.1690 -0.2812  0.3510
  116OSM    H7F12171   3.656   1.748   7.163 -0.4043 -0.6172 -0.4105
  116OSM    H7G12172   3.481   1.723   7.128  0.7972 -0.8046 -0.3894
  116OSM    C8F12173   3.527   1.811   7.328 -0.2097 -0.2469 -0.1680
  116OSM    H8F12174   3.514   1.711   7.375 -0.2465 -0.0706  0.1965
  116OSM    H8G12175   3.430   1.864   7.337 -0.5536 -0.8372 -0.3683
  116OSM    C9F12176   3.631   1.887   7.412 -0.4066 -0.1734  0.7592
  116OSM    H9F12177   3.657   1.985   7.370 -3.0569  0.1451 -0.2473
  116OSM   C10F12178   3.678   1.843   7.533  0.1882  0.2165 -0.0015
  116OSM   H10F12179   3.752   1.907   7.583  1.8570 -0.6104 -1.3963
  116OSM   C11F12180   3.636   1.720   7.609  0.4676  1.0166  0.4386
  116OSM   H11F12181   3.697   1.633   7.575  0.5299  0.9470  0.7279
  116OSM   H11G12182   3.532   1.684   7.598  1.5854 -1.7577 -1.6210
  116OSM   C12F12183   3.650   1.751   7.760 -0.3661  0.6978 -0.1318
  116OSM   H12F12184   3.579   1.831   7.789  0.6600  2.3208 -1.9572
  116OSM   H12G12185   3.753   1.772   7.794 -0.5305 -0.9939  1.4735
  116OSM   C13F12186   3.620   1.622   7.840 -0.5655  0.3508  0.4017
  116OSM   H13F12187   3.687   1.538   7.814  1.2699  2.0146 -0.3820
  116OSM   H13G12188   3.517   1.591   7.812 -0.7787  1.6040 -0.2463
  116OSM   C14F12189   3.620   1.646   7.996  0.1819  0.1505 -0.5541
  116OSM   H14F12190   3.536   1.717   8.015 -1.5703 -1.4413 -2.1481
  116OSM   H14G12191   3.720   1.686   8.022  0.2190 -1.2678  1.6394
  116OSM   C15F12192   3.586   1.512   8.065 -0.3923  0.5291 -0.3419
  116OSM   H15F12193   3.648   1.436   8.012  2.2285  0.5068  2.5656
  116OSM   H15G12194   3.484   1.470   8.051 -0.6890  1.0110  0.3455
  116OSM   C16F12195   3.620   1.514   8.217  0.0235  1.0648  0.1986
  116OSM   H16F12196   3.534   1.554   8.275 -0.4942  0.6401 -0.2669
  116OSM   H16G12197   3.709   1.578   8.233 -0.5850  1.9759 -0.0223
  116OSM   C17F12198   3.645   1.372   8.270 -0.0487 -0.2208  0.3031
  116OSM   H17F12199   3.736   1.324   8.229  0.2488 -1.6230  2.5209
  116OSM   H17G12200   3.569   1.300   8.234  1.3367 -1.8481  0.6076
  116OSM   C18F12201   3.652   1.364   8.426  0.3348 -0.4591 -0.1881
  116OSM   H18F12202   3.686   1.263   8.458 -0.3096 -0.1537  1.4678
  116OSM   H18G12203   3.555   1.393   8.472  0.6662 -0.6989  0.6721
  116OSM   H18H12204   3.724   1.435   8.474 -0.8469  1.0890 -0.6583
  117OSM      N12205   1.923   4.005   6.188 -0.6006 -0.3890  0.5847
  117OSM    C1512206   1.781   3.969   6.211 -0.1761 -0.8307  0.6020
  117OSM   H15A12207   1.721   3.986   6.122  1.3643  0.5120 -0.1989
  117OSM   H15B12208   1.731   4.031   6.284  0.5640  0.7451 -0.2152
  117OSM   H15C12209   1.766   3.870   6.252 -0.9264  0.0476  2.5055
  117OSM    C1412210   1.963   3.951   6.057  0.5336 -0.1222  0.2181
  117OSM   H14A12211   1.934   3.848   6.044  0.4657  0.0476 -1.0694
  117OSM   H14B12212   2.070   3.961   6.050  0.8463 -2.8104  0.7135
  117OSM   H14C12213   1.924   4.004   5.971 -0.2050  1.5898  1.5711
  117OSM    C1312214   1.939   4.153   6.186 -0.0692 -0.1100 -0.9561
  117OSM   H13A12215   1.904   4.189   6.090  1.0447  0.1352 -1.2758
  117OSM   H13B12216   2.042   4.185   6.180 -0.0232 -0.2512 -0.9040
  117OSM   H13C12217   1.892   4.204   6.269  2.1287  1.9606 -0.9317
  117OSM    C1212218   2.003   3.956   6.306  0.3627 -0.1291  0.3007
  117OSM   H12A12219   1.972   3.857   6.336 -3.0664  0.8955  0.2964
  117OSM   H12B12220   1.990   4.022   6.391 -0.1979  0.5081 -0.2690
  117OSM    C1112221   2.156   3.947   6.271  0.4208  0.2866 -0.1324
  117OSM   H11A12222   2.178   3.879   6.186 -0.4254  0.0570 -0.1728
  117OSM   H11B12223   2.204   3.895   6.357  0.6233 -0.7371 -0.8483
  117OSM      P12224   2.281   4.168   6.326 -0.1036  0.2743 -0.0714
  117OSM    O1312225   2.418   4.111   6.347 -0.0958  0.3419  0.7205
  117OSM    O1412226   2.280   4.303   6.268 -0.0845 -0.3131 -0.6608
  117OSM    O1112227   2.185   4.155   6.457 -0.5278  0.0242 -0.3446
  117OSM    O1212228   2.212   4.066   6.227  0.0820 -0.1696  0.7931
  117OSM    C1S12229   2.265   4.151   6.574  0.0331 -0.1541 -0.0103
  117OSM    H1S12230   2.356   4.213   6.584 -0.8067  0.9223  1.0497
  117OSM    H1T12231   2.290   4.044   6.593  0.0501 -0.2969 -0.8009
  117OSM     NF12232   2.258   4.179   6.829 -0.0952 -0.1909 -0.2863
  117OSM    HNF12233   2.234   4.101   6.886 -3.2377 -0.3736 -1.7699
  117OSM    C2S12234   2.181   4.193   6.704  0.2151 -0.0785 -0.2181
  117OSM    H2S12235   2.162   4.302   6.697  0.9472  0.0684  0.0033
  117OSM    C3S12236   2.047   4.110   6.706 -0.4386  0.7957 -0.1089
  117OSM    H3S12237   2.076   4.005   6.685 -0.4973  0.4377  1.5653
  117OSM     O312238   1.958   4.123   6.594 -0.0453 -0.4797 -0.0033
  117OSM    HO312239   2.013   4.161   6.525  1.6054  2.6316  2.8779
  117OSM    C4S12240   1.968   4.129   6.834 -0.9390  0.0083 -0.5600
  117OSM    H4S12241   1.957   4.035   6.889 -0.3500 -1.5942 -3.0797
  117OSM    C5S12242   1.908   4.251   6.862  0.2360 -0.1433  0.0378
  117OSM    H5S12243   1.917   4.331   6.788 -0.5887 -0.6437 -0.6107
  117OSM    C6S12244   1.819   4.287   6.976 -0.3613  0.9513  0.1980
  117OSM    H6S12245   1.719   4.322   6.944 -1.4031 -0.7507  1.5058
  117OSM    H6T12246   1.863   4.370   7.036  1.6300 -1.2400  1.9038
  117OSM    C7S12247   1.804   4.167   7.083 -0.2071  0.0541 -0.0522
  117OSM    H7S12248   1.907   4.151   7.122  0.0092  4.0644  1.3592
  117OSM    H7T12249   1.770   4.072   7.038  0.1171 -0.2937  0.4283
  117OSM    C8S12250   1.725   4.209   7.217 -0.5910 -0.5082  0.1862
  117OSM    H8S12251   1.634   4.266   7.185  0.1172  0.3753 -0.2752
  117OSM    H8T12252   1.792   4.284   7.263 -0.1304  0.0859 -1.4117
  117OSM    C9S12253   1.698   4.092   7.311 -0.2659  0.4129  0.4918
  117OSM    H9S12254   1.788   4.033   7.337  0.5418  1.3746 -0.0471
  117OSM    H9T12255   1.627   4.033   7.250  0.7728 -1.6463  1.2337
  117OSM   C10S12256   1.635   4.146   7.442  0.3520  0.5311  0.4780
  117OSM   H10S12257   1.554   4.216   7.414 -0.5147 -0.9503 -0.7891
  117OSM   H10T12258   1.715   4.207   7.491  0.5472  0.1477  0.6379
  117OSM   C11S12259   1.586   4.040   7.529 -0.2325  0.4575  0.4838
  117OSM   H11S12260   1.661   3.958   7.521 -0.1332  0.5788  0.1331
  117OSM   H11T12261   1.489   4.003   7.488 -0.4842 -1.0985  2.4571
  117OSM   C12S12262   1.564   4.083   7.675  0.8671 -0.1701 -0.2593
  117OSM   H12S12263   1.645   4.144   7.721  0.1890  0.4521  0.1358
  117OSM   H12T12264   1.566   3.992   7.738  2.9092 -0.8253 -1.2124
  117OSM   C13S12265   1.425   4.154   7.694  0.4312 -0.1392 -0.8354
  117OSM   H13S12266   1.346   4.102   7.635 -1.9975  3.5216 -0.9199
  117OSM   H13T12267   1.436   4.255   7.649 -0.1617 -0.7908 -2.4596
  117OSM   C14S12268   1.374   4.166   7.845 -0.6178  0.6200  0.2545
  117OSM   H14S12269   1.331   4.065   7.868  0.9204 -0.4402 -1.4151
  117OSM   H14T12270   1.288   4.235   7.832 -1.0942 -0.1036 -0.5592
  117OSM   C15S12271   1.476   4.207   7.949  0.3470 -0.4513  0.7918
  117OSM   H15S12272   1.496   4.311   7.914  1.1763 -1.2040 -1.0607
  117OSM   H15T12273   1.573   4.153   7.951  0.0327 -1.2504 -2.0897
  117OSM   C16S12274   1.428   4.214   8.091  0.3036  0.2328  0.0555
  117OSM   H16S12275   1.386   4.119   8.132 -3.1073  1.2216 -0.9066
  117OSM   H16T12276   1.332   4.269   8.080  0.6480  0.7400 -0.3896
  117OSM   C17S12277   1.532   4.268   8.180 -0.0075  0.3846  0.1601
  117OSM   H17S12278   1.558   4.362   8.127  0.2811  0.0921 -0.2228
  117OSM   H17T12279   1.627   4.213   8.163  0.3830  0.9216  0.5791
  117OSM   C18S12280   1.498   4.283   8.324  0.3169  0.1289  0.0142
  117OSM   H18S12281   1.591   4.321   8.371  0.3181 -0.0959  0.1929
  117OSM   H18T12282   1.459   4.189   8.368  2.1428  0.5301  2.5851
  117OSM   H18U12283   1.415   4.357   8.329 -0.1573 -0.2650 -1.7884
  117OSM    C1F12284   2.364   4.252   6.853 -0.1153  0.6413  0.2053
  117OSM     OF12285   2.394   4.349   6.783  0.2581 -0.5923 -0.3021
  117OSM    C2F12286   2.466   4.198   6.960  0.3295  0.4255 -0.7361
  117OSM    H2F12287   2.568   4.236   6.939  0.3496 -0.0539 -1.5327
  117OSM    H2G12288   2.447   4.089   6.947  1.3138  0.1593  0.0083
  117OSM    C3F12289   2.433   4.250   7.100  0.9270 -0.7183 -0.7761
  117OSM    H3F12290   2.418   4.360   7.090  0.9150 -0.5498  0.9285
  117OSM    H3G12291   2.517   4.241   7.172  0.0692  2.6765  0.7347
  117OSM    C4F12292   2.300   4.190   7.164  0.2613  0.1339  0.8455
  117OSM    H4F12293   2.315   4.083   7.188  2.4671  0.2162 -0.0176
  117OSM    H4G12294   2.211   4.203   7.099 -0.6612 -1.1444  1.8232
  117OSM    C5F12295   2.276   4.248   7.302 -1.3271 -0.1286  0.4060
  117OSM    H5F12296   2.279   4.359   7.300  1.3406 -0.1486 -4.7622
  117OSM    H5G12297   2.364   4.224   7.365  0.3482  0.8240 -1.5113
  117OSM    C6F12298   2.144   4.205   7.363  0.0547  0.5503 -0.7087
  117OSM    H6F12299   2.064   4.231   7.291 -0.1164  3.7024  0.5478
  117OSM    H6G12300   2.131   4.269   7.453 -1.3228 -0.2954 -0.2873
  117OSM    C7F12301   2.136   4.064   7.420  0.1359  0.2488  0.2205
  117OSM    H7F12302   2.042   4.066   7.481 -0.6808 -1.6452 -0.9014
  117OSM    H7G12303   2.219   4.033   7.487 -1.9154 -1.0953  2.2295
  117OSM    C8F12304   2.100   3.953   7.315  0.3846 -0.4780  0.2582
  117OSM    H8F12305   2.165   3.977   7.228 -0.6906  1.1310 -0.1386
  117OSM    H8G12306   1.994   3.960   7.283  0.4560 -1.6997 -0.2432
  117OSM    C9F12307   2.127   3.819   7.378  0.1663  0.0528  0.5296
  117OSM    H9F12308   2.223   3.769   7.359  0.4371  0.4586  0.8076
  117OSM   C10F12309   2.048   3.750   7.465 -0.4138  0.0747  0.5020
  117OSM   H10F12310   2.089   3.651   7.491 -1.3558 -0.7437 -1.0757
  117OSM   C11F12311   1.919   3.780   7.539 -0.0671 -0.7740  0.3845
  117OSM   H11F12312   1.840   3.712   7.501  0.7070 -0.9559 -0.9353
  117OSM   H11G12313   1.882   3.882   7.515 -1.0412 -1.9629 -3.5548
  117OSM   C12F12314   1.922   3.749   7.691  0.6118  0.1534 -0.0480
  117OSM   H12F12315   1.998   3.810   7.745 -1.3627  1.4490  1.3438
  117OSM   H12G12316   1.945   3.641   7.698 -2.2485 -0.5752 -1.5450
  117OSM   C13F12317   1.790   3.773   7.765 -0.4952  0.0059  0.9373
  117OSM   H13F12318   1.698   3.792   7.705 -0.4711 -1.7554  0.3108
  117OSM   H13G12319   1.803   3.853   7.841  1.5463 -0.7158  1.3665
  117OSM   C14F12320   1.749   3.657   7.865 -0.4589  0.0026 -0.1003
  117OSM   H14F12321   1.671   3.698   7.933 -1.4002 -0.0831 -1.1115
  117OSM   H14G12322   1.838   3.620   7.920 -0.2901  0.5403  0.0001
  117OSM   C15F12323   1.697   3.536   7.794  0.7436 -0.0877  0.5010
  117OSM   H15F12324   1.767   3.501   7.715  0.5113  1.0672 -0.2276
  117OSM   H15G12325   1.597   3.561   7.750  0.7368  0.0664  0.6065
  117OSM   C16F12326   1.679   3.416   7.888  0.1296 -0.4501 -0.2611
  117OSM   H16F12327   1.616   3.467   7.965  0.9278  1.6500 -0.9576
  117OSM   H16G12328   1.777   3.387   7.930  0.4295  2.2283  0.9752
  117OSM   C17F12329   1.609   3.289   7.839  0.2706 -0.4148  0.0581
  117OSM   H17F12330   1.641   3.259   7.738  1.5192  2.1892 -0.3700
  117OSM   H17G12331   1.633   3.198   7.897  2.8865  0.2551  0.0632
  117OSM   C18F12332   1.456   3.307   7.822  0.6194 -0.2157 -0.0465
  117OSM   H18F12333   1.404   3.331   7.917  1.7587 -0.9457  0.7744
  117OSM   H18G12334   1.411   3.216   7.777  1.7374 -0.7041 -0.2087
  117OSM   H18H12335   1.434   3.393   7.756  3.1485  1.1737  0.8506
  118OSM      N12336   5.143   6.288   6.090 -0.6954 -0.7374  0.0225
  118OSM    C1512337   5.164   6.315   5.946  0.3028 -0.2331 -0.3012
  118OSM   H15A12338   5.260   6.272   5.919  0.3116 -1.8839  2.1517
  118OSM   H15B12339   5.162   6.420   5.919 -0.6804  0.2054  1.4375
  118OSM   H15C12340   5.091   6.265   5.884 -0.1439 -2.4404  1.9571
  118OSM    C1412341   5.180   6.146   6.116 -0.5509 -0.2236 -0.0543
  118OSM   H14A12342   5.109   6.077   6.072 -2.5036  0.8296  1.3193
  118OSM   H14B12343   5.170   6.127   6.222 -1.5171  1.4312  0.1785
  118OSM   H14C12344   5.280   6.118   6.089 -1.2496 -1.4391 -1.4472
  118OSM    C1312345   5.235   6.363   6.177 -0.1454  0.0226 -0.2921
  118OSM   H13A12346   5.186   6.391   6.269  0.4871 -3.1831  1.0736
  118OSM   H13B12347   5.265   6.460   6.139 -1.0355  0.3905 -0.0712
  118OSM   H13C12348   5.319   6.302   6.203  1.0960  1.3197 -1.1856
  118OSM    C1212349   4.998   6.317   6.120  0.3035  0.0520 -0.0725
  118OSM   H12A12350   4.942   6.258   6.049  0.9346 -0.9890  0.2776
  118OSM   H12B12351   4.973   6.421   6.103 -1.3145 -0.2328  0.4857
  118OSM    C1112352   4.953   6.289   6.262 -0.5056 -0.0769 -0.1027
  118OSM   H11A12353   4.858   6.341   6.291  0.5777  3.1391 -2.1090
  118OSM   H11B12354   5.030   6.344   6.321 -1.7677  0.8218  0.7412
  118OSM      P12355   4.816   6.078   6.280  0.2707  0.1078  0.1514
  118OSM    O1312356   4.727   6.151   6.185  0.3836 -0.0489  0.0163
  118OSM    O1412357   4.835   5.935   6.246 -0.4436 -0.5562 -0.3413
  118OSM    O1112358   4.740   6.082   6.416 -0.6138 -0.1314 -0.1040
  118OSM    O1212359   4.955   6.154   6.303 -0.4802 -0.0869 -0.3469
  118OSM    C1S12360   4.769   5.993   6.527 -0.2334 -0.1424  0.5472
  118OSM    H1S12361   4.870   5.947   6.531 -1.1619 -2.1118  1.6203
  118OSM    H1T12362   4.695   5.911   6.538 -1.9245  1.2957  0.1642
  118OSM     NF12363   4.813   5.990   6.767 -0.1611  0.3426 -0.2800
  118OSM    HNF12364   4.755   5.919   6.806  1.1951 -0.4629  0.3081
  118OSM    C2S12365   4.762   6.074   6.663  0.1624  0.3979  0.5702
  118OSM    H2S12366   4.828   6.164   6.655  1.5612 -0.6696 -0.0621
  118OSM    C3S12367   4.615   6.120   6.682 -0.2354 -0.3322  0.2242
  118OSM    H3S12368   4.565   6.023   6.700 -0.5977 -0.0466  0.7818
  118OSM     O312369   4.557   6.188   6.572 -0.3305  0.0405 -0.5139
  118OSM    HO312370   4.623   6.162   6.507  0.3712  0.5621 -0.0127
  118OSM    C4S12371   4.610   6.202   6.811  0.6889  0.2777  0.3173
  118OSM    H4S12372   4.694   6.271   6.827  0.6920  0.0112  1.5190
  118OSM    C5S12373   4.513   6.200   6.898  0.0996 -0.1372 -0.7666
  118OSM    H5S12374   4.421   6.141   6.885 -1.1192  1.7938 -1.0846
  118OSM    C6S12375   4.514   6.291   7.019 -0.0955  0.5246  0.1565
  118OSM    H6S12376   4.412   6.332   7.032 -0.1020  0.7302 -0.5278
  118OSM    H6T12377   4.585   6.375   7.005 -1.3766  1.5268 -0.3996
  118OSM    C7S12378   4.557   6.203   7.140 -0.5952  0.5252  0.1558
  118OSM    H7S12379   4.659   6.163   7.119 -0.9707 -0.1892 -0.3407
  118OSM    H7T12380   4.488   6.116   7.149 -1.0185  0.8240 -0.2187
  118OSM    C8S12381   4.544   6.268   7.278 -0.1379  0.3493  0.0732
  118OSM    H8S12382   4.441   6.307   7.289 -1.2420 -2.1768 -0.7788
  118OSM    H8T12383   4.603   6.362   7.285 -0.5258  0.4748  1.7418
  118OSM    C9S12384   4.568   6.164   7.389  0.3042  0.6199 -0.3677
  118OSM    H9S12385   4.673   6.131   7.407 -0.7944 -3.6126 -1.0995
  118OSM    H9T12386   4.509   6.074   7.361 -0.4305  0.4917  1.5259
  118OSM   C10S12387   4.513   6.206   7.524 -0.5578  0.0211 -0.5208
  118OSM   H10S12388   4.402   6.201   7.516 -0.6403 -0.2478  0.6739
  118OSM   H10T12389   4.534   6.313   7.547  1.5134 -0.4188 -0.3098
  118OSM   C11S12390   4.559   6.119   7.641  0.2990 -0.5145 -0.0855
  118OSM   H11S12391   4.666   6.135   7.669 -0.2300  0.2514  1.5647
  118OSM   H11T12392   4.538   6.012   7.618  0.6517 -0.5281 -0.3564
  118OSM   C12S12393   4.488   6.139   7.775 -0.4087 -0.5367  1.2888
  118OSM   H12S12394   4.523   6.052   7.835  0.0608 -1.7867 -0.7247
  118OSM   H12T12395   4.377   6.135   7.780 -0.4365  0.2297  1.2749
  118OSM   C13S12396   4.529   6.265   7.850  0.2300 -0.2940 -0.0509
  118OSM   H13S12397   4.507   6.347   7.779 -3.0144 -3.4542 -2.8790
  118OSM   H13T12398   4.635   6.263   7.884  0.0409 -0.9770  0.5189
  118OSM   C14S12399   4.453   6.282   7.980  0.5940  0.0131 -0.1617
  118OSM   H14S12400   4.349   6.255   7.951  0.5170  1.9827 -1.8648
  118OSM   H14T12401   4.455   6.392   7.996  0.8222  0.1113 -0.8345
  118OSM   C15S12402   4.502   6.193   8.093  0.1227 -0.7899  0.4802
  118OSM   H15S12403   4.610   6.216   8.102  0.1661 -0.5348 -0.5597
  118OSM   H15T12404   4.487   6.087   8.063 -2.9324 -0.4929  0.7866
  118OSM   C16S12405   4.426   6.215   8.223 -0.2537  0.9240 -0.0535
  118OSM   H16S12406   4.445   6.135   8.298 -1.0168  1.1564  0.3869
  118OSM   H16T12407   4.319   6.198   8.199  0.0935  0.0798 -1.0305
  118OSM   C17S12408   4.469   6.349   8.288 -0.1206 -0.7225  0.3113
  118OSM   H17S12409   4.388   6.422   8.307 -0.3255 -0.9388  0.2690
  118OSM   H17T12410   4.516   6.401   8.201 -1.5780 -0.8848 -0.5856
  118OSM   C18S12411   4.590   6.345   8.387 -0.3577  0.3733 -0.1336
  118OSM   H18S12412   4.653   6.435   8.372  0.0470  0.2893  1.0256
  118OSM   H18T12413   4.661   6.262   8.368  0.9838  1.7347 -1.1305
  118OSM   H18U12414   4.549   6.324   8.488 -1.5387  0.5574 -0.5597
  118OSM    C1F12415   4.937   5.974   6.798 -0.2854  0.3081  0.0428
  118OSM     OF12416   5.026   6.036   6.745  0.2769 -0.5464 -0.1409
  118OSM    C2F12417   4.963   5.884   6.915 -0.2520  0.2914 -0.1109
  118OSM    H2F12418   5.016   5.795   6.874  0.9434  0.0877  1.8264
  118OSM    H2G12419   4.866   5.850   6.956  0.6486 -1.2465  0.7895
  118OSM    C3F12420   5.047   5.965   7.016  0.4773  0.7735 -0.9324
  118OSM    H3F12421   5.010   6.067   7.038 -1.3385 -0.0251 -0.1941
  118OSM    H3G12422   5.148   5.982   6.973 -0.2778  2.4929 -2.0811
  118OSM    C4F12423   5.074   5.895   7.149  0.9271 -0.4614 -0.2327
  118OSM    H4F12424   5.164   5.943   7.195  1.5839 -2.3099  0.4601
  118OSM    H4G12425   5.103   5.790   7.132  0.2117 -0.6397 -0.3558
  118OSM    C5F12426   4.962   5.904   7.259 -0.0255  0.2214 -0.7274
  118OSM    H5F12427   4.885   5.827   7.237 -1.1969  2.1331 -3.6191
  118OSM    H5G12428   4.926   6.009   7.269  0.0122  0.0020  1.9878
  118OSM    C6F12429   5.015   5.866   7.403  0.0901  0.0778  0.0230
  118OSM    H6F12430   5.103   5.927   7.434  0.8947  0.0485 -2.1051
  118OSM    H6G12431   5.053   5.765   7.376 -0.0963  0.7113 -2.7295
  118OSM    C7F12432   4.898   5.873   7.498 -0.0505  0.1299 -0.3458
  118OSM    H7F12433   4.806   5.822   7.463 -0.8630 -0.3799  2.3519
  118OSM    H7G12434   4.873   5.980   7.508 -0.5339  0.1252 -1.5317
  118OSM    C8F12435   4.931   5.823   7.642 -0.2518 -0.5748 -0.2289
  118OSM    H8F12436   4.974   5.721   7.648  0.5000 -0.3079 -0.9664
  118OSM    H8G12437   4.843   5.821   7.709 -0.1719  1.0536 -0.0432
  118OSM    C9F12438   5.036   5.910   7.702 -0.6549  0.5119  0.6619
  118OSM    H9F12439   5.137   5.898   7.658  0.3369 -0.7845  3.2198
  118OSM   C10F12440   5.034   5.994   7.810 -0.9113 -0.5989 -0.0278
  118OSM   H10F12441   5.124   6.052   7.834 -2.4507  1.2157  1.5601
  118OSM   C11F12442   4.911   6.034   7.896  0.9081  0.2369  0.7898
  118OSM   H11F12443   4.828   6.043   7.823  0.1672 -0.1573  1.5703
  118OSM   H11G12444   4.927   6.131   7.947 -1.2379  2.0701 -1.8618
  118OSM   C12F12445   4.875   5.919   7.990 -0.4367 -0.4733  1.2213
  118OSM   H12F12446   4.963   5.902   8.055 -0.1352  0.6555  1.1107
  118OSM   H12G12447   4.859   5.822   7.938 -1.6548  0.6734 -0.6121
  118OSM   C13F12448   4.754   5.958   8.072 -0.3532  0.5463 -0.2826
  118OSM   H13F12449   4.665   5.925   8.013  1.3837 -0.8271 -2.2367
  118OSM   H13G12450   4.764   6.068   8.082 -0.7143  0.6395 -0.8543
  118OSM   C14F12451   4.748   5.898   8.216  0.5177 -0.9407 -0.2631
  118OSM   H14F12452   4.650   5.938   8.250  0.2711 -1.0371 -0.8513
  118OSM   H14G12453   4.825   5.945   8.280 -0.7019 -3.4622  3.2070
  118OSM   C15F12454   4.763   5.748   8.230  0.2858  0.1557 -0.0340
  118OSM   H15F12455   4.856   5.715   8.179 -0.4056  0.2271 -1.3866
  118OSM   H15G12456   4.676   5.693   8.186  0.7111 -0.9019  0.4410
  118OSM   C16F12457   4.768   5.710   8.377  0.4385 -0.0316 -0.0294
  118OSM   H16F12458   4.677   5.741   8.433 -0.4079  0.8845 -1.8803
  118OSM   H16G12459   4.852   5.748   8.439 -1.0353  1.6383  0.9830
  118OSM   C17F12460   4.777   5.551   8.406 -0.0279  0.1914 -0.7966
  118OSM   H17F12461   4.873   5.513   8.365  0.4069  1.6347 -1.1638
  118OSM   H17G12462   4.690   5.500   8.360 -0.1249 -0.8072  0.4748
  118OSM   C18F12463   4.787   5.518   8.552 -0.9201  0.2588 -0.0253
  118OSM   H18F12464   4.863   5.584   8.598 -1.5964  1.2714 -0.3534
  118OSM   H18G12465   4.821   5.415   8.578 -0.1342  0.8852  1.5009
  118OSM   H18H12466   4.692   5.530   8.609  0.3369  0.6384  2.0298
  119OSM      N12467   6.217   6.069   5.589 -0.4696 -0.2717 -0.1390
  119OSM    C1512468   6.312   6.156   5.522  0.2918 -0.4849  0.7064
  119OSM   H15A12469   6.310   6.142   5.415 -1.2386 -0.7486  0.7616
  119OSM   H15B12470   6.416   6.146   5.549  0.6225  0.2531 -0.2789
  119OSM   H15C12471   6.273   6.257   5.519 -1.4694 -1.1852 -2.8204
  119OSM    C1412472   6.073   6.105   5.548  0.2451 -0.1844 -0.0895
  119OSM   H14A12473   6.010   6.029   5.590 -0.0176  1.0652  1.8614
  119OSM   H14B12474   6.055   6.101   5.442 -4.0811  2.1520  0.4457
  119OSM   H14C12475   6.042   6.203   5.582 -0.9803 -0.5440 -0.1444
  119OSM    C1312476   6.245   5.929   5.549  0.6647 -0.0541  1.0244
  119OSM   H13A12477   6.191   5.863   5.615  2.5995 -0.4196  2.2648
  119OSM   H13B12478   6.349   5.912   5.571  0.0828 -4.1684  0.9721
  119OSM   H13C12479   6.218   5.903   5.447  0.5317 -2.2365  1.5929
  119OSM    C1212480   6.232   6.096   5.740 -0.8631  0.4405 -0.0958
  119OSM   H12A12481   6.200   6.198   5.748  1.6863  1.3986 -1.4168
  119OSM   H12B12482   6.335   6.092   5.774 -0.5329  1.4554 -0.9911
  119OSM    C1112483   6.159   6.001   5.838 -0.2745  1.0060  0.1774
  119OSM   H11A12484   6.070   5.969   5.780  0.1373 -0.6448  0.4099
  119OSM   H11B12485   6.124   6.051   5.931  1.4482  1.4306  0.6131
  119OSM      P12486   6.355   5.906   5.967 -0.3919  0.0251  0.0044
  119OSM    O1312487   6.399   5.769   6.004  0.6728 -0.5503  0.1551
  119OSM    O1412488   6.467   5.992   5.910 -0.6560  0.0142 -0.1496
  119OSM    O1112489   6.281   5.976   6.088 -0.7636  0.0128 -0.3057
  119OSM    O1212490   6.237   5.891   5.863 -0.0669 -0.1499  0.2610
  119OSM    C1S12491   6.200   5.900   6.176 -0.9509 -0.5126  0.1339
  119OSM    H1S12492   6.259   5.823   6.229  0.0234  0.0302 -0.1485
  119OSM    H1T12493   6.114   5.855   6.122 -1.4688 -0.2009  0.6887
  119OSM     NF12494   6.061   5.903   6.381 -0.5730 -0.5561  0.3342
  119OSM    HNF12495   5.961   5.901   6.382 -0.6122  0.7366  1.8371
  119OSM    C2S12496   6.139   5.988   6.292 -1.2056 -0.3781  0.2690
  119OSM    H2S12497   6.225   6.042   6.335 -1.5849  0.1718  0.3353
  119OSM    C3S12498   6.051   6.090   6.220 -0.3356 -0.3240  0.4288
  119OSM    H3S12499   5.980   6.044   6.148 -0.4429 -0.1788  0.4420
  119OSM     O312500   6.119   6.176   6.129  0.6193 -0.1322  0.6713
  119OSM    HO312501   6.195   6.120   6.110 -0.0126 -1.1501  1.1093
  119OSM    C4S12502   5.975   6.172   6.316 -0.5175  0.1432  1.0805
  119OSM    H4S12503   5.881   6.119   6.335  0.8578 -1.8910  2.5345
  119OSM    C5S12504   6.003   6.292   6.372 -0.3770  0.0472  0.8067
  119OSM    H5S12505   6.090   6.349   6.337 -1.8250  1.5373 -0.4924
  119OSM    C6S12506   5.916   6.353   6.475 -0.1131  0.6128 -0.5544
  119OSM    H6S12507   5.836   6.416   6.432  1.7455  3.0085 -0.5892
  119OSM    H6T12508   5.974   6.413   6.547 -0.2572 -0.5667  0.5565
  119OSM    C7S12509   5.836   6.255   6.562  0.5665 -0.3023  0.1942
  119OSM    H7S12510   5.759   6.194   6.507 -0.1749  0.0629  0.8179
  119OSM    H7T12511   5.775   6.315   6.633  2.3039 -0.3411  1.7400
  119OSM    C8S12512   5.924   6.175   6.658  0.7187  0.2200 -0.3367
  119OSM    H8S12513   5.999   6.244   6.701 -0.1969  0.5188  0.7828
  119OSM    H8T12514   5.976   6.091   6.606  0.4952  1.6633 -3.0237
  119OSM    C9S12515   5.841   6.123   6.778 -0.1238  0.2993 -0.1583
  119OSM    H9S12516   5.751   6.067   6.745  0.3099 -0.7568  0.4487
  119OSM    H9T12517   5.785   6.208   6.821 -0.2515 -0.1418  0.5512
  119OSM   C10S12518   5.921   6.047   6.887 -0.4455  0.2854 -0.3910
  119OSM   H10S12519   5.991   6.111   6.946  0.5581 -0.4866 -0.7229
  119OSM   H10T12520   5.988   5.970   6.842 -0.1656  0.6908 -0.6751
  119OSM   C11S12521   5.824   5.975   6.987  0.1282 -0.4504 -0.6176
  119OSM   H11S12522   5.769   5.890   6.943 -0.6780  0.2528 -0.9780
  119OSM   H11T12523   5.754   6.048   7.034  1.1978 -1.1056  2.0937
  119OSM   C12S12524   5.904   5.923   7.115 -0.1812  0.2743  0.6547
  119OSM   H12S12525   5.962   6.011   7.150  0.7190 -0.3818  0.8393
  119OSM   H12T12526   5.966   5.835   7.087 -3.0026 -0.8346 -2.4627
  119OSM   C13S12527   5.798   5.878   7.228  0.4482  0.1494  0.9758
  119OSM   H13S12528   5.756   5.786   7.182  0.9307  0.5047 -0.1737
  119OSM   H13T12529   5.720   5.957   7.223  1.4005  1.1599  1.9996
  119OSM   C14S12530   5.849   5.848   7.368 -0.1930 -0.3215 -0.4279
  119OSM   H14S12531   5.883   5.944   7.413 -0.5935 -1.1462  1.6853
  119OSM   H14T12532   5.937   5.781   7.370  0.6934  0.8427  0.5014
  119OSM   C15S12533   5.736   5.796   7.459  0.0669 -0.2331  0.3435
  119OSM   H15S12534   5.711   5.694   7.420 -0.6289  0.2315 -0.4604
  119OSM   H15T12535   5.646   5.858   7.438 -0.1468 -0.1310  1.5344
  119OSM   C16S12536   5.768   5.807   7.613 -0.6928 -0.0562  0.3817
  119OSM   H16S12537   5.688   5.746   7.660  0.0998 -1.4766 -0.0476
  119OSM   H16T12538   5.746   5.914   7.628 -2.1792 -0.1881 -0.7189
  119OSM   C17S12539   5.905   5.755   7.647  0.3529  0.2395 -0.0290
  119OSM   H17S12540   5.978   5.820   7.594 -0.3556  0.0223 -1.2843
  119OSM   H17T12541   5.907   5.649   7.615  0.9962  0.3209 -0.2576
  119OSM   C18S12542   5.936   5.747   7.801  0.8610  0.2908  0.4768
  119OSM   H18S12543   6.018   5.676   7.824  0.8165 -0.0581 -0.4082
  119OSM   H18T12544   5.850   5.707   7.860  1.5238 -3.2490 -0.8285
  119OSM   H18U12545   5.957   5.846   7.847 -0.7513  0.7237  0.3147
  119OSM    C1F12546   6.127   5.846   6.487  0.7509  0.1793 -0.8159
  119OSM     OF12547   6.245   5.868   6.504  0.2645  0.1784 -0.1178
  119OSM    C2F12548   6.042   5.765   6.577 -0.4188  0.5277 -0.1711
  119OSM    H2F12549   5.960   5.723   6.515 -0.0461  1.8850 -1.6421
  119OSM    H2G12550   5.993   5.835   6.649  1.4691 -1.6885  3.3838
  119OSM    C3F12551   6.112   5.654   6.665  0.4815 -0.6921  0.4079
  119OSM    H3F12552   6.178   5.705   6.738  1.0885 -1.3707  0.3286
  119OSM    H3G12553   6.176   5.582   6.610 -0.7072 -1.7203  0.3517
  119OSM    C4F12554   6.001   5.573   6.740 -0.3381  0.3501  0.0479
  119OSM    H4F12555   6.050   5.474   6.751 -1.6952 -0.2734  0.5724
  119OSM    H4G12556   5.910   5.564   6.678 -0.0419  0.4204 -0.4029
  119OSM    C5F12557   5.963   5.629   6.875 -0.0235 -0.3591 -0.2692
  119OSM    H5F12558   5.904   5.723   6.860 -2.0632 -1.3676  1.1598
  119OSM    H5G12559   6.059   5.666   6.917  0.2315  1.0269 -1.9881
  119OSM    C6F12560   5.905   5.518   6.970 -0.2381 -0.6902  0.5608
  119OSM    H6F12561   5.868   5.567   7.063  0.2433  0.0869  0.3508
  119OSM    H6G12562   5.972   5.435   7.002 -1.3508 -0.9532  2.2804
  119OSM    C7F12563   5.773   5.464   6.907  0.3091  0.0628  0.1704
  119OSM    H7F12564   5.797   5.419   6.809  1.6566  0.9660  0.0796
  119OSM    H7G12565   5.697   5.544   6.893  0.3830  0.2960  1.0479
  119OSM    C8F12566   5.710   5.363   7.009 -0.0775  0.1195  0.6157
  119OSM    H8F12567   5.655   5.424   7.083 -1.7803 -0.2060 -0.3629
  119OSM    H8G12568   5.794   5.315   7.063 -0.6867 -0.2874  1.2097
  119OSM    C9F12569   5.628   5.260   6.938 -0.9508 -0.1024  1.1683
  119OSM    H9F12570   5.664   5.239   6.836  3.6750  0.8140  2.5105
  119OSM   C10F12571   5.532   5.187   6.982  0.3748 -0.5855  0.3069
  119OSM   H10F12572   5.485   5.120   6.909 -0.8970 -0.2635  0.8293
  119OSM   C11F12573   5.479   5.200   7.119  0.1669  0.5191 -0.5131
  119OSM   H11F12574   5.370   5.216   7.108 -0.1013 -0.9460 -0.0019
  119OSM   H11G12575   5.518   5.293   7.166 -0.7009  0.5911  0.0615
  119OSM   C12F12576   5.516   5.077   7.199 -0.3073  0.8304 -0.4690
  119OSM   H12F12577   5.617   5.041   7.173 -0.2711  0.2911  0.4106
  119OSM   H12G12578   5.454   4.988   7.174 -0.5756  0.9852 -0.3711
  119OSM   C13F12579   5.488   5.092   7.348 -0.3890  0.3275 -0.5214
  119OSM   H13F12580   5.377   5.090   7.348 -0.4394  2.4862 -0.8847
  119OSM   H13G12581   5.531   5.184   7.395 -0.6793 -0.7270  1.9049
  119OSM   C14F12582   5.524   4.970   7.430  0.3374 -0.0354  0.0181
  119OSM   H14F12583   5.629   4.935   7.432 -0.3297 -2.2756 -1.3521
  119OSM   H14G12584   5.452   4.887   7.409  1.3461 -1.0712  0.5989
  119OSM   C15F12585   5.488   5.006   7.580 -0.6477 -0.6211 -0.3481
  119OSM   H15F12586   5.382   5.040   7.587 -0.6473 -0.2297 -1.8988
  119OSM   H15G12587   5.555   5.088   7.615  0.4783 -1.1764 -1.1837
  119OSM   C16F12588   5.520   4.881   7.675 -1.0281  0.4360 -0.2907
  119OSM   H16F12589   5.473   4.787   7.639 -0.2111  0.3987 -1.2972
  119OSM   H16G12590   5.470   4.900   7.772 -2.6946 -2.2650 -0.5882
  119OSM   C17F12591   5.673   4.863   7.691 -1.0430  0.6259 -0.3452
  119OSM   H17F12592   5.707   4.957   7.740 -1.1276  0.4000  0.1544
  119OSM   H17G12593   5.720   4.852   7.591  1.5025 -1.2153  0.9776
  119OSM   C18F12594   5.719   4.742   7.772  0.6275  0.5695  0.0183
  119OSM   H18F12595   5.825   4.759   7.804  0.7382 -0.8505  0.4733
  119OSM   H18G12596   5.710   4.647   7.714 -0.3746  1.0206 -0.5750
  119OSM   H18H12597   5.653   4.726   7.860 -1.3262 -3.9452 -2.1209
  120OSM      N12598   2.895   2.803   6.457 -0.6050  0.0369 -0.5841
  120OSM    C1512599   2.760   2.851   6.496 -0.2364 -0.3924  0.1135
  120OSM   H15A12600   2.704   2.880   6.408  1.3438 -2.0352 -1.4812
  120OSM   H15B12601   2.764   2.932   6.568  1.5200  0.8756 -1.3460
  120OSM   H15C12602   2.707   2.773   6.548 -2.6749  1.2831  0.2432
  120OSM    C1412603   2.979   2.915   6.413  0.5589 -0.5833 -0.0871
  120OSM   H14A12604   3.063   2.873   6.360 -1.7192 -1.3831 -3.2307
  120OSM   H14B12605   3.006   2.982   6.493 -1.5701 -0.4006  0.5106
  120OSM   H14C12606   2.935   2.987   6.346  2.4417  1.4134  0.7612
  120OSM    C1312607   2.949   2.741   6.588  0.0797  0.7363  0.2966
  120OSM   H13A12608   2.901   2.652   6.623 -1.1210  2.1411  2.2640
  120OSM   H13B12609   2.956   2.814   6.667  4.0848  1.3177 -0.4726
  120OSM   H13C12610   3.056   2.728   6.574 -0.2673 -0.6153 -1.2811
  120OSM    C1212611   2.893   2.700   6.345  0.8282  0.4953 -0.3340
  120OSM   H12A12612   2.882   2.747   6.248  0.5686 -0.9481 -1.0205
  120OSM   H12B12613   2.813   2.630   6.360  0.7595  0.3694 -1.2239
  120OSM    C1112614   3.013   2.610   6.316  0.4118 -0.0335  1.1411
  120OSM   H11A12615   2.981   2.540   6.235 -0.8463 -0.5856  2.0962
  120OSM   H11B12616   3.038   2.543   6.401  1.5452  0.6904  1.3802
  120OSM      P12617   3.266   2.675   6.354  0.0231 -0.1170  0.1873
  120OSM    O1312618   3.324   2.541   6.323  0.3226 -0.5229  0.0495
  120OSM    O1412619   3.359   2.790   6.329  0.4315 -1.0546  0.2082
  120OSM    O1112620   3.231   2.679   6.504 -0.0816  0.2226  0.3299
  120OSM    O1212621   3.129   2.683   6.270 -0.1699 -0.1563 -0.0114
  120OSM    C1S12622   3.338   2.689   6.598  0.2652  0.0327 -0.3459
  120OSM    H1S12623   3.357   2.794   6.628  0.6606 -0.7192  2.1053
  120OSM    H1T12624   3.431   2.639   6.564 -0.6862 -0.1582 -2.8043
  120OSM     NF12625   3.421   2.637   6.840 -0.4264 -0.1708  0.0884
  120OSM    HNF12626   3.492   2.567   6.845  0.8370  1.1992  1.6787
  120OSM    C2S12627   3.308   2.617   6.739  0.0203 -0.4702 -0.1834
  120OSM    H2S12628   3.225   2.670   6.790  0.5478 -1.0148  1.2731
  120OSM    C3S12629   3.268   2.466   6.722 -0.0596 -0.7324 -0.3063
  120OSM    H3S12630   3.342   2.420   6.653  0.8158  2.3567 -1.4804
  120OSM     O312631   3.142   2.446   6.653 -0.6672  0.2670 -0.3084
  120OSM    HO312632   3.109   2.532   6.626 -1.0452 -0.7103 -3.2409
  120OSM    C4S12633   3.279   2.397   6.858 -0.1278  0.0350  0.0320
  120OSM    H4S12634   3.384   2.385   6.889 -0.5101  1.2868  1.9005
  120OSM    C5S12635   3.179   2.348   6.936 -0.2211  0.6670 -0.3720
  120OSM    H5S12636   3.076   2.359   6.901  0.6963  2.1222 -2.7782
  120OSM    C6S12637   3.209   2.289   7.073 -0.3428  0.0162 -0.4467
  120OSM    H6S12638   3.170   2.185   7.072 -2.1137  0.6217  1.2792
  120OSM    H6T12639   3.138   2.339   7.143  1.2759  1.5762  0.1107
  120OSM    C7S12640   3.345   2.296   7.136  0.2207  0.1468  0.1135
  120OSM    H7S12641   3.373   2.401   7.158 -0.2099  0.4303 -0.6935
  120OSM    H7T12642   3.414   2.257   7.058 -1.5948 -1.0927 -0.9018
  120OSM    C8S12643   3.377   2.219   7.269  0.9539  0.6311  0.1452
  120OSM    H8S12644   3.383   2.109   7.258 -0.2342  0.6685 -0.9990
  120OSM    H8T12645   3.291   2.245   7.335  0.3463 -2.0611  0.4479
  120OSM    C9S12646   3.506   2.277   7.332 -0.2762 -0.6436  0.3842
  120OSM    H9S12647   3.508   2.388   7.335 -0.9511 -0.6485  1.5887
  120OSM    H9T12648   3.593   2.237   7.277  0.5200 -1.0562  1.9193
  120OSM   C10S12649   3.505   2.242   7.482  0.1176 -0.4608  0.2432
  120OSM   H10S12650   3.516   2.132   7.485 -0.3537 -0.4890  1.3770
  120OSM   H10T12651   3.407   2.272   7.526  0.1900  1.4045 -0.8116
  120OSM   C11S12652   3.626   2.307   7.557  0.1140 -0.2321  0.5448
  120OSM   H11S12653   3.620   2.418   7.565  0.1192 -0.2215  0.4097
  120OSM   H11T12654   3.719   2.288   7.498  0.0414 -0.8200  0.6154
  120OSM   C12S12655   3.654   2.267   7.705 -0.4260  0.5272  0.0272
  120OSM   H12S12656   3.563   2.280   7.768 -1.7830 -2.6461 -1.1260
  120OSM   H12T12657   3.742   2.321   7.745  1.0423 -1.7023 -0.0828
  120OSM   C13S12658   3.693   2.123   7.735  0.3026  0.5511  0.0430
  120OSM   H13S12659   3.768   2.094   7.658 -0.0462  0.0485 -0.1140
  120OSM   H13T12660   3.608   2.053   7.719  0.9033  0.5954 -3.9137
  120OSM   C14S12661   3.757   2.107   7.876  0.1197 -0.1955  0.7895
  120OSM   H14S12662   3.834   2.180   7.909  0.4610 -0.1215 -0.1585
  120OSM   H14T12663   3.795   2.003   7.892  0.1770 -0.4640 -0.9914
  120OSM   C15S12664   3.649   2.115   7.975 -0.0255  0.0855 -0.6675
  120OSM   H15S12665   3.576   2.034   7.951 -1.2238  1.3630 -1.3754
  120OSM   H15T12666   3.589   2.208   7.969 -2.2024 -1.0388  2.0796
  120OSM   C16S12667   3.696   2.097   8.117  1.2279 -0.2839  0.2654
  120OSM   H16S12668   3.774   2.172   8.142  0.9401  0.3143 -0.6470
  120OSM   H16T12669   3.735   1.992   8.114  1.2603 -0.2304 -1.5340
  120OSM   C17S12670   3.580   2.090   8.222  0.0147  0.2210  0.1056
  120OSM   H17S12671   3.612   2.040   8.316  2.2924  0.8338 -0.3025
  120OSM   H17T12672   3.516   2.023   8.161  0.9413  0.9644 -1.7495
  120OSM   C18S12673   3.505   2.214   8.265 -0.0360  0.9760 -0.3481
  120OSM   H18S12674   3.582   2.288   8.298  1.0035 -0.9059  1.5800
  120OSM   H18T12675   3.437   2.183   8.347 -0.8114  2.5724 -0.3698
  120OSM   H18U12676   3.443   2.261   8.186 -0.9013 -0.6958 -0.6867
  120OSM    C1F12677   3.445   2.759   6.889  0.6034 -0.0679  0.6732
  120OSM     OF12678   3.363   2.848   6.881  0.1203 -0.1146  0.4309
  120OSM    C2F12679   3.583   2.781   6.961  0.3244  0.0527 -0.0396
  120OSM    H2F12680   3.642   2.840   6.889 -0.4706  0.6898 -0.1767
  120OSM    H2G12681   3.634   2.682   6.962 -0.7845 -0.5297  0.3302
  120OSM    C3F12682   3.554   2.845   7.096 -0.2036  0.1823 -0.3080
  120OSM    H3F12683   3.485   2.781   7.154 -1.0783 -0.5109 -2.0584
  120OSM    H3G12684   3.499   2.941   7.083  0.0192  0.1830 -1.3461
  120OSM    C4F12685   3.676   2.877   7.185 -0.8888 -0.1272  0.3480
  120OSM    H4F12686   3.749   2.951   7.144  1.4854 -2.6471 -0.0976
  120OSM    H4G12687   3.721   2.778   7.207  0.1826  0.6173  1.5431
  120OSM    C5F12688   3.627   2.952   7.318  0.2214 -0.0042 -0.2936
  120OSM    H5F12689   3.706   2.934   7.395  2.3960 -1.4984 -2.7625
  120OSM    H5G12690   3.550   2.887   7.364  0.6458  1.2250  2.2615
  120OSM    C6F12691   3.591   3.097   7.299  0.2513 -0.3064 -1.1240
  120OSM    H6F12692   3.517   3.122   7.220 -1.8464  1.1875  1.2483
  120OSM    H6G12693   3.681   3.154   7.267  0.1511  1.3070  1.2897
  120OSM    C7F12694   3.539   3.161   7.427  0.6370 -0.0996 -0.5577
  120OSM    H7F12695   3.459   3.096   7.468  0.2904  0.6473 -0.0414
  120OSM    H7G12696   3.489   3.256   7.400 -0.8542 -0.4774  0.8052
  120OSM    C8F12697   3.649   3.206   7.529 -0.5224  0.3088  0.1286
  120OSM    H8F12698   3.613   3.295   7.586 -1.4731 -0.7486  1.1895
  120OSM    H8G12699   3.747   3.226   7.482  0.1677  2.1020  2.2101
  120OSM    C9F12700   3.675   3.088   7.618 -0.8066  0.1404 -1.0059
  120OSM    H9F12701   3.598   3.010   7.621  0.5659 -1.2488 -1.7085
  120OSM   C10F12702   3.791   3.080   7.688 -0.5203 -0.1562 -0.8478
  120OSM   H10F12703   3.806   2.992   7.752  1.3902 -0.7946 -2.1140
  120OSM   C11F12704   3.912   3.179   7.686  0.9196 -1.4268 -0.2311
  120OSM   H11F12705   3.940   3.212   7.584  2.0169 -0.4261  0.3765
  120OSM   H11G12706   3.999   3.118   7.718  1.8423  0.6029  1.2956
  120OSM   C12F12707   3.890   3.316   7.759  0.8465  0.1245 -0.8335
  120OSM   H12F12708   3.783   3.341   7.745  1.0407  3.3324  2.4258
  120OSM   H12G12709   3.955   3.390   7.707 -0.2480  0.5526 -1.6041
  120OSM   C13F12710   3.918   3.311   7.909  0.1614  0.4586  0.1278
  120OSM   H13F12711   3.922   3.412   7.955  0.1977  1.1154 -1.2783
  120OSM   H13G12712   4.020   3.269   7.922  0.7652  0.6635 -3.4335
  120OSM   C14F12713   3.816   3.232   7.984 -0.5297  0.2321 -0.2054
  120OSM   H14F12714   3.847   3.126   7.976 -2.6736 -0.5529  1.4456
  120OSM   H14G12715   3.720   3.229   7.930 -0.2986 -1.6763 -0.5384
  120OSM   C15F12716   3.800   3.274   8.132 -1.1887  0.3265  0.1399
  120OSM   H15F12717   3.753   3.374   8.144 -1.8826  0.1270 -0.8041
  120OSM   H15G12718   3.899   3.298   8.176 -0.5578 -0.8218 -0.6314
  120OSM   C16F12719   3.734   3.175   8.225 -0.1482 -0.1204 -1.1076
  120OSM   H16F12720   3.773   3.071   8.227 -2.4157 -1.0556 -3.1062
  120OSM   H16G12721   3.629   3.164   8.190 -0.1148  1.0339 -1.5944
  120OSM   C17F12722   3.736   3.233   8.366  0.8890  0.8503  0.5975
  120OSM   H17F12723   3.680   3.163   8.432  1.9817 -0.0019  0.6207
  120OSM   H17G12724   3.687   3.333   8.369  1.5404  1.2378 -1.5229
  120OSM   C18F12725   3.871   3.236   8.434 -0.1085 -1.0695 -0.8119
  120OSM   H18F12726   3.861   3.285   8.533  0.0459  0.0752 -1.3607
  120OSM   H18G12727   3.951   3.288   8.376 -1.2559  2.0185  0.2813
  120OSM   H18H12728   3.903   3.131   8.451  2.1460 -0.1487  0.9531
  121OSM      N12729   4.993   4.806   6.063 -0.0138 -0.1905  0.2522
  121OSM    C1512730   4.888   4.702   6.026 -0.4273  0.2036 -0.3225
  121OSM   H15A12731   4.910   4.665   5.927 -2.3324 -0.8891 -0.3747
  121OSM   H15B12732   4.785   4.737   6.027 -0.3962  0.2792  0.2906
  121OSM   H15C12733   4.880   4.614   6.087 -1.4649 -0.9968 -2.1176
  121OSM    C1412734   5.008   4.903   5.947  0.2491  0.8794  0.1821
  121OSM   H14A12735   4.928   4.975   5.935  0.8138  1.0315 -3.2036
  121OSM   H14B12736   5.013   4.850   5.853 -2.3141 -1.0059  1.0619
  121OSM   H14C12737   5.096   4.965   5.958  1.6221 -1.1153  0.6055
  121OSM    C1312738   4.943   4.897   6.172 -0.2714  0.4761  0.7210
  121OSM   H13A12739   5.022   4.965   6.200 -0.4972  0.8011  0.5799
  121OSM   H13B12740   4.932   4.827   6.253 -2.2928 -1.9422 -1.5298
  121OSM   H13C12741   4.853   4.950   6.143 -0.8691 -0.5198  0.7221
  121OSM    C1212742   5.127   4.743   6.094  0.2852 -0.4251 -0.2275
  121OSM   H12A12743   5.191   4.741   6.007  0.1678 -1.7913 -0.2908
  121OSM   H12B12744   5.110   4.644   6.134 -0.6506  0.9712  3.0521
  121OSM    C1112745   5.217   4.817   6.197 -0.2304 -0.1093  0.7486
  121OSM   H11A12746   5.301   4.752   6.227  1.5731  2.7368  2.0587
  121OSM   H11B12747   5.157   4.835   6.289  1.7802  1.4037  1.8101
  121OSM      P12748   5.382   4.960   6.063  0.5585  0.1670 -0.3851
  121OSM    O1312749   5.403   4.840   5.978 -0.0033 -0.2369 -0.1961
  121OSM    O1412750   5.390   5.084   5.986  0.3810 -0.1820 -0.0563
  121OSM    O1112751   5.496   4.952   6.172 -0.0961 -0.1670 -0.3229
  121OSM    O1212752   5.253   4.940   6.148  0.1277 -0.2864 -0.4564
  121OSM    C1S12753   5.494   5.057   6.272  0.3472  0.5425 -0.2260
  121OSM    H1S12754   5.397   5.112   6.274 -1.0140 -1.7765  1.2157
  121OSM    H1T12755   5.577   5.126   6.247  0.4256  0.5913  0.1617
  121OSM     NF12756   5.501   5.126   6.505 -0.1517 -0.0028  0.3190
  121OSM    HNF12757   5.589   5.166   6.527  0.1127 -0.5168  0.2022
  121OSM    C2S12758   5.510   5.008   6.421 -0.2498 -0.4327  0.2525
  121OSM    H2S12759   5.425   4.939   6.438  1.1797 -2.1289  0.6206
  121OSM    C3S12760   5.642   4.927   6.430 -0.4389 -0.6511  0.9349
  121OSM    H3S12761   5.722   4.991   6.387  1.1248 -2.4202  1.1503
  121OSM     O312762   5.640   4.815   6.339  0.2048 -0.1968 -0.8296
  121OSM    HO312763   5.588   4.848   6.265 -2.6823 -0.1361  1.1481
  121OSM    C4S12764   5.662   4.877   6.568  0.0573 -0.5851 -0.6523
  121OSM    H4S12765   5.603   4.786   6.587  0.4733 -0.4053  1.6616
  121OSM    C5S12766   5.727   4.946   6.667  0.3394 -0.1354  0.1813
  121OSM    H5S12767   5.769   5.044   6.642 -1.5765  0.6732 -0.0037
  121OSM    C6S12768   5.740   4.891   6.805 -0.2538  0.6492 -0.1246
  121OSM    H6S12769   5.687   4.963   6.870 -1.6771 -0.2390 -0.2672
  121OSM    H6T12770   5.845   4.895   6.841  0.4464 -2.1102 -1.7014
  121OSM    C7S12771   5.689   4.751   6.837 -0.2341  0.2958  0.0440
  121OSM    H7S12772   5.760   4.671   6.805  0.5043  0.6260  0.8244
  121OSM    H7T12773   5.590   4.733   6.791 -1.1840 -3.4943  3.3692
  121OSM    C8S12774   5.667   4.738   6.987  0.8996  0.8100  0.3311
  121OSM    H8S12775   5.610   4.824   7.030  0.3363  0.0081  1.1951
  121OSM    H8T12776   5.769   4.741   7.031  0.8291  1.4944  0.4640
  121OSM    C9S12777   5.594   4.604   7.018  0.7527 -0.3491 -0.1656
  121OSM    H9S12778   5.661   4.522   6.983  2.4841  1.6020 -1.5651
  121OSM    H9T12779   5.501   4.599   6.958  0.3305  2.3691  0.2187
  121OSM   C10S12780   5.567   4.580   7.168 -0.3933 -0.6165  0.1226
  121OSM   H10S12781   5.524   4.477   7.176 -1.2762 -0.1625  1.3672
  121OSM   H10T12782   5.497   4.655   7.211  0.8260  0.4060  0.3370
  121OSM   C11S12783   5.688   4.575   7.266  0.4905 -0.7019  0.3684
  121OSM   H11S12784   5.749   4.664   7.240 -3.0510  2.0386  1.0580
  121OSM   H11T12785   5.747   4.492   7.223 -0.9385 -0.6378 -1.8588
  121OSM   C12S12786   5.666   4.563   7.416  0.3296 -0.3771 -0.2523
  121OSM   H12S12787   5.602   4.648   7.451 -0.3209 -1.9550  2.5777
  121OSM   H12T12788   5.764   4.565   7.468  0.4169 -0.9907 -0.3911
  121OSM   C13S12789   5.592   4.430   7.454 -0.5606  0.7746  0.3553
  121OSM   H13S12790   5.659   4.353   7.408 -0.3873  0.6965  0.7371
  121OSM   H13T12791   5.491   4.421   7.408 -1.0241  0.8188  1.3566
  121OSM   C14S12792   5.591   4.400   7.602 -0.2603 -0.0796 -0.2373
  121OSM   H14S12793   5.681   4.434   7.657 -0.3760 -0.4280  0.1615
  121OSM   H14T12794   5.593   4.293   7.628  0.6462 -0.2918 -1.1095
  121OSM   C15S12795   5.485   4.466   7.690 -0.0255  0.1976 -0.0806
  121OSM   H15S12796   5.388   4.464   7.636 -0.0733  0.5817 -0.0086
  121OSM   H15T12797   5.508   4.574   7.681  0.1339  0.0496 -1.4451
  121OSM   C16S12798   5.475   4.422   7.837  0.3298  0.3762  0.3774
  121OSM   H16S12799   5.377   4.468   7.862 -0.9914 -0.9892 -2.0295
  121OSM   H16T12800   5.557   4.461   7.901  0.2197  0.7129  0.3141
  121OSM   C17S12801   5.449   4.270   7.858  0.2092 -0.4219  1.1138
  121OSM   H17S12802   5.546   4.216   7.859  0.1489 -0.5152  2.0472
  121OSM   H17T12803   5.388   4.228   7.775  2.1930 -2.5261  0.6475
  121OSM   C18S12804   5.387   4.234   7.994 -0.2111 -0.2277 -0.1123
  121OSM   H18S12805   5.280   4.265   7.996 -1.0256 -2.9092  2.1307
  121OSM   H18T12806   5.446   4.288   8.070  1.1380  0.0934 -1.3619
  121OSM   H18U12807   5.386   4.123   8.005  1.7871 -0.3081 -0.4887
  121OSM    C1F12808   5.390   5.172   6.567  0.0854 -0.3504  0.3715
  121OSM     OF12809   5.285   5.116   6.550  0.3292  0.1769  0.2181
  121OSM    C2F12810   5.394   5.303   6.648 -0.1243 -0.7825  0.1348
  121OSM    H2F12811   5.380   5.377   6.567 -1.2272 -0.9084  0.2027
  121OSM    H2G12812   5.494   5.325   6.691 -0.7247  2.2867  0.0938
  121OSM    C3F12813   5.275   5.324   6.752  0.7039 -0.2463 -0.1427
  121OSM    H3F12814   5.292   5.252   6.836 -1.3155 -0.1834  0.3372
  121OSM    H3G12815   5.178   5.295   6.706  0.8584  1.3350 -1.4864
  121OSM    C4F12816   5.274   5.471   6.810  0.1158 -0.3149  0.6170
  121OSM    H4F12817   5.285   5.543   6.727  0.2684  0.0831  0.9806
  121OSM    H4G12818   5.370   5.478   6.866  1.0038  0.1688 -0.9382
  121OSM    C5F12819   5.150   5.503   6.903  0.3601  0.0566  0.3754
  121OSM    H5F12820   5.062   5.469   6.846  0.7085 -1.7972  0.9046
  121OSM    H5G12821   5.145   5.611   6.927  0.3367  0.3841 -1.0741
  121OSM    C6F12822   5.150   5.427   7.036  0.3382 -0.4754  1.0802
  121OSM    H6F12823   5.233   5.464   7.099  0.5590  1.4742 -0.2931
  121OSM    H6G12824   5.160   5.318   7.014  0.4194  0.1957 -2.6505
  121OSM    C7F12825   5.019   5.444   7.099  0.0485  0.7172 -0.4771
  121OSM    H7F12826   4.935   5.427   7.028  1.6918  0.2338 -2.3414
  121OSM    H7G12827   5.000   5.543   7.145 -1.3104  0.1907  0.1317
  121OSM    C8F12828   4.992   5.339   7.215 -0.5834 -0.4813  0.0132
  121OSM    H8F12829   4.990   5.238   7.170  1.8010  0.1504 -1.6037
  121OSM    H8G12830   4.891   5.353   7.260 -1.2657  2.2981 -2.1988
  121OSM    C9F12831   5.105   5.340   7.307  0.3209 -0.0290 -0.0862
  121OSM    H9F12832   5.183   5.417   7.297 -0.0984  0.1601 -2.0314
  121OSM   C10F12833   5.110   5.252   7.401 -0.2826  0.0924 -0.1688
  121OSM   H10F12834   5.203   5.249   7.460 -1.3949 -1.3587  1.5781
  121OSM   C11F12835   5.006   5.141   7.429  0.3235 -0.6052  0.1548
  121OSM   H11F12836   5.049   5.045   7.391  2.5508  0.2339  0.4850
  121OSM   H11G12837   4.911   5.154   7.374  1.4716 -2.0813 -2.2611
  121OSM   C12F12838   4.973   5.136   7.579  0.3572 -0.0375 -1.0747
  121OSM   H12F12839   4.887   5.066   7.586 -0.6995  1.2060 -1.4346
  121OSM   H12G12840   4.940   5.233   7.622 -1.1676 -0.2371 -1.7606
  121OSM   C13F12841   5.097   5.082   7.646  0.3227  0.3861  1.1928
  121OSM   H13F12842   5.159   5.171   7.667  0.5720  0.4535  0.2035
  121OSM   H13G12843   5.158   5.019   7.577  0.5256  3.3344 -1.4491
  121OSM   C14F12844   5.064   5.018   7.775  0.9207 -0.3775 -0.4319
  121OSM   H14F12845   4.988   4.938   7.759  1.0184 -1.0411  2.2526
  121OSM   H14G12846   5.008   5.093   7.834 -0.5974  0.0566 -2.4053
  121OSM   C15F12847   5.187   4.966   7.853 -0.4503 -0.1168  0.5696
  121OSM   H15F12848   5.239   5.050   7.902 -1.1272 -2.3412  5.4677
  121OSM   H15G12849   5.260   4.922   7.781 -0.7221  1.2031 -0.5205
  121OSM   C16F12850   5.176   4.855   7.952 -0.0345 -0.1498 -0.5016
  121OSM   H16F12851   5.101   4.777   7.925 -0.5597  0.1037  0.2042
  121OSM   H16G12852   5.135   4.897   8.046  1.8106  2.1109 -0.6480
  121OSM   C17F12853   5.299   4.787   7.995 -0.1442  0.3677 -0.7956
  121OSM   H17F12854   5.366   4.865   8.038  1.5737  0.4803 -3.5089
  121OSM   H17G12855   5.352   4.765   7.899  1.4392 -1.0916  0.3699
  121OSM   C18F12856   5.281   4.677   8.095 -0.5432 -0.4540 -0.9157
  121OSM   H18F12857   5.197   4.619   8.052  0.3595 -1.0240 -1.9474
  121OSM   H18G12858   5.263   4.716   8.197 -0.5932  2.2181 -1.8981
  121OSM   H18H12859   5.378   4.623   8.103 -0.2869  0.3087  1.3433
  122OSM      N12860   3.975   6.739   6.106 -0.0082 -0.4649  0.9361
  122OSM    C1512861   4.080   6.752   5.997  0.3843  0.3350  0.1835
  122OSM   H15A12862   4.176   6.715   6.030 -0.7833 -1.7781  1.2707
  122OSM   H15B12863   4.072   6.852   5.956  0.5806 -0.0643 -0.8498
  122OSM   H15C12864   4.060   6.683   5.916 -2.1505  0.3355  0.7785
  122OSM    C1412865   4.007   6.844   6.208 -0.0298 -0.3388  0.0177
  122OSM   H14A12866   4.111   6.833   6.232 -0.8210 -2.7698  2.6453
  122OSM   H14B12867   3.954   6.833   6.301  1.1799  1.1358  0.8799
  122OSM   H14C12868   3.991   6.940   6.161 -0.3932  0.6815  2.1939
  122OSM    C1312869   3.838   6.777   6.051 -1.0335  0.4849  0.1774
  122OSM   H13A12870   3.765   6.768   6.130  0.0069 -2.1824  0.9017
  122OSM   H13B12871   3.811   6.716   5.966 -5.2202 -0.8554  2.3783
  122OSM   H13C12872   3.840   6.881   6.021 -1.3518  0.8313  1.3162
  122OSM    C1212873   3.968   6.599   6.149  0.2471 -0.2750  0.0011
  122OSM   H12A12874   3.902   6.598   6.235 -0.9686 -0.7954 -0.9266
  122OSM   H12B12875   4.061   6.574   6.198  0.4619 -0.3364 -0.4424
  122OSM    C1112876   3.924   6.486   6.053 -0.6523 -0.7740 -1.3706
  122OSM   H11A12877   3.821   6.510   6.017 -0.6238  0.0099 -0.9457
  122OSM   H11B12878   3.910   6.397   6.118 -0.2591 -0.5430 -0.9683
  122OSM      P12879   4.164   6.395   5.993  0.0014  0.3101 -0.2142
  122OSM    O1312880   4.145   6.248   5.972 -0.3663  0.0832  0.1359
  122OSM    O1412881   4.278   6.461   5.926 -0.8570 -0.0094  0.1962
  122OSM    O1112882   4.182   6.422   6.149 -0.0041  0.0845  0.1186
  122OSM    O1212883   4.032   6.465   5.956  0.4622  0.4551 -0.1655
  122OSM    C1S12884   4.312   6.410   6.209 -0.4657  0.3865  0.0302
  122OSM    H1S12885   4.378   6.493   6.175 -2.2220  1.7760 -0.0439
  122OSM    H1T12886   4.356   6.310   6.193  0.7962  0.9667 -0.1900
  122OSM     NF12887   4.452   6.435   6.420  0.5634  0.5707  0.6379
  122OSM    HNF12888   4.481   6.352   6.467  0.9514  1.6017  2.2524
  122OSM    C2S12889   4.311   6.436   6.366 -0.1481  0.4921 -0.2424
  122OSM    H2S12890   4.264   6.537   6.375  1.6129  1.2869  0.2652
  122OSM    C3S12891   4.218   6.343   6.445  0.5767  0.2093  0.3633
  122OSM    H3S12892   4.253   6.238   6.454 -0.7439 -0.2571  0.1750
  122OSM     O312893   4.101   6.316   6.371  0.4359  0.5006  0.4983
  122OSM    HO312894   4.121   6.359   6.288 -0.1480 -0.0658  0.0584
  122OSM    C4S12895   4.187   6.391   6.586 -0.0586 -0.2698  0.4841
  122OSM    H4S12896   4.115   6.474   6.593  1.1660  0.9823 -1.4215
  122OSM    C5S12897   4.235   6.332   6.704  0.0805 -0.7383  0.0405
  122OSM    H5S12898   4.299   6.244   6.692  1.8889  0.6014 -0.2340
  122OSM    C6S12899   4.207   6.379   6.846 -0.4660 -0.1132  0.3972
  122OSM    H6S12900   4.300   6.422   6.889  0.6045 -0.4121 -1.5523
  122OSM    H6T12901   4.197   6.286   6.905 -0.5171 -0.1765  0.2867
  122OSM    C7S12902   4.083   6.475   6.873 -0.2638  0.5145  0.5611
  122OSM    H7S12903   3.998   6.428   6.819 -1.4491  2.5194  0.6312
  122OSM    H7T12904   4.108   6.567   6.817  2.5645 -0.1484  0.6665
  122OSM    C8S12905   4.054   6.499   7.017 -0.3526 -0.1730 -0.8695
  122OSM    H8S12906   4.030   6.406   7.073 -0.1245  0.1713 -0.1988
  122OSM    H8T12907   3.961   6.558   7.032  0.1202  0.5591 -0.8149
  122OSM    C9S12908   4.160   6.579   7.092 -0.4693 -0.2211  0.2346
  122OSM    H9S12909   4.142   6.682   7.055 -2.5811 -1.1183 -1.3291
  122OSM    H9T12910   4.262   6.551   7.058 -1.0482 -2.4391  0.2621
  122OSM   C10S12911   4.151   6.552   7.243 -0.4722  0.0480  0.6724
  122OSM   H10S12912   4.143   6.442   7.257  2.8014 -0.3585 -0.1713
  122OSM   H10T12913   4.070   6.611   7.291 -0.0342  0.2205  1.2066
  122OSM   C11S12914   4.282   6.593   7.320 -0.1563  0.3780  0.2942
  122OSM   H11S12915   4.299   6.703   7.331 -1.2437  0.6850 -0.8893
  122OSM   H11T12916   4.372   6.577   7.257 -0.1524  3.1232 -0.4785
  122OSM   C12S12917   4.311   6.519   7.442 -0.1342 -0.2538 -0.4847
  122OSM   H12S12918   4.416   6.545   7.468 -0.8724  1.9995  0.4038
  122OSM   H12T12919   4.318   6.410   7.422  0.0200 -0.3173 -0.0818
  122OSM   C13S12920   4.210   6.542   7.550 -0.5978  0.7045 -0.2015
  122OSM   H13S12921   4.114   6.490   7.528 -1.2286  1.6172  0.3324
  122OSM   H13T12922   4.176   6.646   7.567 -2.5864 -0.1519  1.2962
  122OSM   C14S12923   4.267   6.472   7.678  0.1646  0.1332  0.2559
  122OSM   H14S12924   4.368   6.511   7.705  0.9048  0.2490 -2.5041
  122OSM   H14T12925   4.277   6.368   7.642 -1.4053 -0.7373  2.2666
  122OSM   C15S12926   4.181   6.468   7.797  0.3407  0.4243 -0.0713
  122OSM   H15S12927   4.215   6.392   7.870 -1.9721  1.8399  2.5594
  122OSM   H15T12928   4.082   6.430   7.764  1.2220 -0.0650 -2.2742
  122OSM   C16S12929   4.166   6.607   7.866 -0.1818  0.4251 -0.1188
  122OSM   H16S12930   4.112   6.676   7.799  0.8106  2.1726  0.8520
  122OSM   H16T12931   4.268   6.647   7.883 -0.0310  0.1459 -0.3620
  122OSM   C17S12932   4.095   6.607   7.995  0.7136 -0.4829 -0.0486
  122OSM   H17S12933   4.081   6.713   8.025 -1.4724 -0.8228  0.2419
  122OSM   H17T12934   4.145   6.539   8.067 -1.2578 -2.5022 -0.5111
  122OSM   C18S12935   3.958   6.553   7.981 -0.6699 -0.1137 -0.2908
  122OSM   H18S12936   3.954   6.468   7.910  0.4014 -1.1018  0.8335
  122OSM   H18T12937   3.889   6.627   7.934 -0.7498  1.7795  2.6916
  122OSM   H18U12938   3.914   6.526   8.079  0.8962  0.3155  0.5465
  122OSM    C1F12939   4.533   6.537   6.410 -0.0867  0.1653  0.6553
  122OSM     OF12940   4.509   6.637   6.347  0.0744 -0.0362  0.1071
  122OSM    C2F12941   4.669   6.512   6.468 -0.3852  0.0605 -0.9994
  122OSM    H2F12942   4.742   6.579   6.419  0.6324 -0.1315  0.2392
  122OSM    H2G12943   4.697   6.406   6.451 -0.4645  0.0778 -1.2419
  122OSM    C3F12944   4.661   6.540   6.615  0.1335 -0.3675 -0.7472
  122OSM    H3F12945   4.590   6.474   6.670 -0.4454  0.2189 -0.7804
  122OSM    H3G12946   4.621   6.643   6.628  0.7735 -0.3031  0.9008
  122OSM    C4F12947   4.796   6.522   6.680 -0.1219  0.5831  0.0581
  122OSM    H4F12948   4.873   6.584   6.630 -0.4654  0.5840 -0.4672
  122OSM    H4G12949   4.825   6.415   6.684  0.1515  0.6479 -0.1944
  122OSM    C5F12950   4.819   6.565   6.824  0.2914  0.4573 -1.0218
  122OSM    H5F12951   4.730   6.532   6.883  3.1837  1.7877  4.3533
  122OSM    H5G12952   4.829   6.675   6.816 -0.2614  0.7029  1.3406
  122OSM    C6F12953   4.948   6.506   6.887 -0.0608  0.9957 -0.0839
  122OSM    H6F12954   5.040   6.525   6.828  1.2784  0.6246  1.8281
  122OSM    H6G12955   4.939   6.396   6.880  0.5446  0.9045  0.5248
  122OSM    C7F12956   4.985   6.553   7.027  1.1048  1.2053  0.3457
  122OSM    H7F12957   5.006   6.662   7.029  3.0132  0.9221 -2.2267
  122OSM    H7G12958   5.081   6.506   7.056  0.2616 -0.1105  1.1262
  122OSM    C8F12959   4.875   6.518   7.135  0.0362  0.5558 -0.0663
  122OSM    H8F12960   4.860   6.408   7.127  2.2351  0.3401 -1.7970
  122OSM    H8G12961   4.782   6.576   7.113 -0.4414 -0.5894 -1.1125
  122OSM    C9F12962   4.912   6.557   7.279 -0.5912 -0.1955 -0.3889
  122OSM    H9F12963   4.895   6.665   7.289  1.4365  0.2592 -1.6690
  122OSM   C10F12964   4.953   6.484   7.386 -0.5569  1.1151 -0.7729
  122OSM   H10F12965   4.976   6.550   7.471  1.0423  1.5983 -1.5500
  122OSM   C11F12966   4.986   6.337   7.393 -0.7646 -0.2956 -0.5088
  122OSM   H11F12967   5.094   6.311   7.396 -0.9872 -1.4477 -1.7367
  122OSM   H11G12968   4.951   6.278   7.305 -0.7284 -2.0040  0.6128
  122OSM   C12F12969   4.923   6.287   7.521 -0.8254  0.4511 -0.3415
  122OSM   H12F12970   4.928   6.177   7.525 -0.2494  0.5270  1.1368
  122OSM   H12G12971   4.814   6.309   7.514 -0.9708  0.5572  1.8711
  122OSM   C13F12972   4.980   6.337   7.652  0.0435  0.2471  0.1863
  122OSM   H13F12973   4.929   6.288   7.738 -0.8688 -0.2152 -0.6040
  122OSM   H13G12974   4.966   6.446   7.669 -1.2416  0.1004  0.1276
  122OSM   C14F12975   5.125   6.306   7.677  0.4580 -0.3521  0.1945
  122OSM   H14F12976   5.184   6.317   7.583  0.0913 -0.4382 -0.0473
  122OSM   H14G12977   5.143   6.197   7.689 -0.8685 -0.3756  2.1008
  122OSM   C15F12978   5.193   6.399   7.780 -0.2339  0.0385 -0.0176
  122OSM   H15F12979   5.146   6.378   7.879  0.0315 -1.1144 -0.1232
  122OSM   H15G12980   5.162   6.504   7.763 -2.4321 -0.1417  2.5328
  122OSM   C16F12981   5.342   6.382   7.774 -0.1692 -0.2331 -0.6422
  122OSM   H16F12982   5.388   6.412   7.677 -0.6647 -1.2763 -1.2135
  122OSM   H16G12983   5.375   6.280   7.801  0.6072  0.1440 -0.1477
  122OSM   C17F12984   5.416   6.460   7.889  0.1686  0.2712  0.6887
  122OSM   H17F12985   5.398   6.567   7.864  1.4943 -0.2474 -2.7600
  122OSM   H17G12986   5.522   6.427   7.882 -0.1662 -0.3216 -2.8495
  122OSM   C18F12987   5.377   6.430   8.031  0.2152 -0.0972  0.0595
  122OSM   H18F12988   5.287   6.489   8.059  0.0752  0.2628 -1.1274
  122OSM   H18G12989   5.461   6.459   8.097  0.5382 -0.9892  0.0415
  122OSM   H18H12990   5.351   6.322   8.040  0.5686 -0.1638  0.2554
  123OSM      N12991   2.292   2.229   6.270  0.5318  0.1076  0.0336
  123OSM    C1512992   2.343   2.335   6.362  0.5637 -0.3728 -0.5032
  123OSM   H15A12993   2.449   2.346   6.347  0.6208  0.0561  0.1865
  123OSM   H15B12994   2.336   2.309   6.467 -0.4321 -0.0142 -0.4717
  123OSM   H15C12995   2.298   2.431   6.343 -0.4536 -0.3393  1.8736
  123OSM    C1412996   2.339   2.258   6.132 -0.0920 -0.1433 -0.5124
  123OSM   H14A12997   2.300   2.185   6.063 -1.7449 -0.6637  0.9228
  123OSM   H14B12998   2.446   2.246   6.135  0.1536  1.8817 -0.3862
  123OSM   H14C12999   2.318   2.354   6.088  1.6457  1.8031  2.7052
  123OSM    C1313000   2.350   2.093   6.314 -0.6327 -0.2547  0.2062
  123OSM   H13A13001   2.456   2.107   6.331  0.0419  0.1090 -3.7608
  123OSM   H13B13002   2.342   2.017   6.238 -0.4900 -0.4911  0.4270
  123OSM   H13C13003   2.301   2.058   6.404 -2.3990 -0.1376 -0.6820
  123OSM    C1213004   2.145   2.227   6.267  0.1682 -0.1441 -0.0703
  123OSM   H12A13005   2.107   2.157   6.194  1.0891 -0.6976 -0.0365
  123OSM   H12B13006   2.114   2.325   6.235  0.7729 -0.4773 -1.7320
  123OSM    C1113007   2.077   2.202   6.404 -0.0032  0.4299  0.4115
  123OSM   H11A13008   1.968   2.221   6.389 -0.8881 -3.8880  0.6898
  123OSM   H11B13009   2.104   2.283   6.475 -2.9788 -0.0072  2.1176
  123OSM      P13010   1.993   1.959   6.458  0.2540 -0.2399  0.4482
  123OSM    O1313011   1.901   1.977   6.343  0.4359  0.2087 -0.3044
  123OSM    O1413012   2.052   1.825   6.473  0.2932 -0.4618 -0.3454
  123OSM    O1113013   1.906   1.995   6.576 -0.3851  0.2941 -0.0091
  123OSM    O1213014   2.103   2.068   6.454  0.7650  0.0800 -0.2376
  123OSM    C1S13015   1.964   2.055   6.694 -0.4175 -0.4188  0.6066
  123OSM    H1S13016   1.990   2.163   6.683 -1.3157 -0.2820 -0.2563
  123OSM    H1T13017   2.050   1.994   6.728 -0.8160 -0.8708  0.7968
  123OSM     NF13018   1.942   2.114   6.940  0.1979 -0.0678  0.0357
  123OSM    HNF13019   2.006   2.058   6.992  1.5793  0.0711 -1.4689
  123OSM    C2S13020   1.877   2.053   6.825  0.2719  0.7079 -0.5925
  123OSM    H2S13021   1.781   2.108   6.816  0.8252  1.7942  0.0609
  123OSM    C3S13022   1.832   1.903   6.844  0.0911 -1.2804 -0.1507
  123OSM    H3S13023   1.922   1.839   6.834  1.3320  0.6122 -1.4982
  123OSM     O313024   1.749   1.858   6.739 -0.5262  0.0448  0.5450
  123OSM    HO313025   1.765   1.913   6.662 -1.8953 -2.9834 -2.0412
  123OSM    C4S13026   1.759   1.884   6.978 -0.0333 -0.4332 -0.3306
  123OSM    H4S13027   1.665   1.941   6.982  0.3202  0.1766 -0.7075
  123OSM    C5S13028   1.778   1.778   7.063  0.5750 -0.4741 -0.9761
  123OSM    H5S13029   1.863   1.710   7.047  1.4297 -0.1577  1.9657
  123OSM    C6S13030   1.681   1.746   7.174  0.7839 -0.4027 -0.3789
  123OSM    H6S13031   1.725   1.670   7.242 -0.1422 -0.7097 -0.1180
  123OSM    H6T13032   1.586   1.693   7.148  1.2541 -1.4118 -0.0713
  123OSM    C7S13033   1.639   1.869   7.263 -0.4427  0.1233  0.0823
  123OSM    H7S13034   1.616   1.964   7.209 -0.9876  1.2751  2.2611
  123OSM    H7T13035   1.731   1.897   7.319 -0.3900 -1.1508  0.6516
  123OSM    C8S13036   1.526   1.846   7.354  0.1509  0.0539 -0.1697
  123OSM    H8S13037   1.441   1.808   7.293  1.3305 -0.9474 -1.2234
  123OSM    H8T13038   1.486   1.938   7.402 -1.0469  0.2711 -1.5581
  123OSM    C9S13039   1.550   1.743   7.472 -0.6221  0.6528 -0.3356
  123OSM    H9S13040   1.591   1.648   7.434 -0.2447  0.2445  1.0603
  123OSM    H9T13041   1.455   1.717   7.524  0.3791  0.4834  1.4744
  123OSM   C10S13042   1.642   1.798   7.585  0.4532  0.4763  0.0340
  123OSM   H10S13043   1.735   1.841   7.543  0.9742  1.3415  2.0288
  123OSM   H10T13044   1.664   1.708   7.647  0.6296  0.7952  0.4318
  123OSM   C11S13045   1.568   1.900   7.671  1.5664  0.5789 -0.2930
  123OSM   H11S13046   1.480   1.855   7.723  2.8163 -0.9252  0.5461
  123OSM   H11T13047   1.515   1.982   7.617  1.0308  1.9258  2.2224
  123OSM   C12S13048   1.660   1.954   7.778  0.1170 -0.1713 -0.0034
  123OSM   H12S13049   1.621   2.046   7.828  1.0982 -1.0429  2.4714
  123OSM   H12T13050   1.752   1.986   7.724  0.5148 -2.4500 -0.7376
  123OSM   C13S13051   1.700   1.858   7.888 -0.2221 -0.2260 -0.6910
  123OSM   H13S13052   1.790   1.895   7.940 -0.4117 -1.2941  0.4309
  123OSM   H13T13053   1.710   1.752   7.854 -2.8618 -1.5354  2.3570
  123OSM   C14S13054   1.590   1.839   7.998  0.0427 -0.1817  0.7513
  123OSM   H14S13055   1.495   1.792   7.965  0.5986 -0.3879 -0.5958
  123OSM   H14T13056   1.569   1.939   8.043 -0.3637 -0.1421  0.4743
  123OSM   C15S13057   1.638   1.727   8.096 -0.5656 -0.1271  0.2847
  123OSM   H15S13058   1.734   1.774   8.127 -1.0282 -0.1319  1.7317
  123OSM   H15T13059   1.661   1.642   8.028 -0.4409 -0.3889  0.6560
  123OSM   C16S13060   1.536   1.703   8.199  0.1626 -0.0969 -1.0715
  123OSM   H16S13061   1.547   1.599   8.237  1.7776  0.1754 -0.7685
  123OSM   H16T13062   1.437   1.704   8.147 -0.6333  0.5403  0.4267
  123OSM   C17S13063   1.554   1.799   8.317  0.3893 -0.1578  0.2927
  123OSM   H17S13064   1.467   1.795   8.385  0.7270  0.1461  0.7529
  123OSM   H17T13065   1.560   1.899   8.268  0.3454 -1.1353 -1.7301
  123OSM   C18S13066   1.685   1.783   8.398  0.1576 -0.3206  0.4093
  123OSM   H18S13067   1.692   1.873   8.463 -1.8592  2.8572 -3.5234
  123OSM   H18T13068   1.773   1.798   8.331 -0.1250 -1.0295 -0.1262
  123OSM   H18U13069   1.698   1.692   8.460  0.1476  0.2758  1.2873
  123OSM    C1F13070   1.956   2.251   6.944 -0.6517 -0.6663  0.1145
  123OSM     OF13071   1.880   2.322   6.872  0.1866 -0.2523  0.4176
  123OSM    C2F13072   2.058   2.304   7.034  0.1512  0.0746  0.5170
  123OSM    H2F13073   2.136   2.346   6.967 -0.0568 -0.2221  0.0868
  123OSM    H2G13074   2.090   2.226   7.106  1.0028 -0.5928 -0.5647
  123OSM    C3F13075   1.999   2.424   7.115  0.1488  0.7726  0.1672
  123OSM    H3F13076   1.954   2.514   7.067 -2.2173  0.1358  1.1561
  123OSM    H3G13077   2.081   2.467   7.176 -1.0511  0.8457  1.7588
  123OSM    C4F13078   1.884   2.379   7.216 -0.9845  0.8913  0.5283
  123OSM    H4F13079   1.797   2.352   7.153 -0.3231 -0.9382  0.3879
  123OSM    H4G13080   1.852   2.471   7.270 -0.9709 -0.1478  2.3580
  123OSM    C5F13081   1.912   2.276   7.322 -0.1725 -0.0938 -0.3441
  123OSM    H5F13082   2.000   2.310   7.381  1.2789 -2.4967 -1.0238
  123OSM    H5G13083   1.931   2.180   7.269 -1.1901 -0.4890 -0.0078
  123OSM    C6F13084   1.793   2.250   7.412 -0.0130 -0.6331  0.3522
  123OSM    H6F13085   1.708   2.217   7.348  1.4534 -3.0688 -0.4104
  123OSM    H6G13086   1.767   2.347   7.460  1.2831 -0.6446  1.0840
  123OSM    C7F13087   1.814   2.135   7.511  0.0270  0.1940 -0.0184
  123OSM    H7F13088   1.854   2.061   7.438  1.4032  0.4148  0.5071
  123OSM    H7G13089   1.720   2.092   7.550  0.9448  0.2489  2.3196
  123OSM    C8F13090   1.903   2.176   7.620  0.1324  0.1763 -0.0027
  123OSM    H8F13091   1.987   2.232   7.574 -1.3596  1.6261 -1.0264
  123OSM    H8G13092   1.953   2.082   7.652 -2.2781 -1.5291 -1.1199
  123OSM    C9F13093   1.824   2.261   7.718  0.3912  0.4046 -0.2882
  123OSM    H9F13094   1.718   2.283   7.698  0.5612  0.1577 -1.5109
  123OSM   C10F13095   1.884   2.324   7.823  0.2391 -0.6312  0.1439
  123OSM   H10F13096   1.822   2.398   7.878 -0.4937 -1.0701 -0.0796
  123OSM   C11F13097   2.036   2.336   7.855  0.0853 -0.6499  0.0195
  123OSM   H11F13098   2.054   2.406   7.939  1.6230 -0.4939 -0.4292
  123OSM   H11G13099   2.084   2.366   7.759 -1.3262 -0.1266 -0.5399
  123OSM   C12F13100   2.097   2.197   7.892 -0.4749 -0.4392 -0.2376
  123OSM   H12F13101   2.207   2.205   7.902 -0.3730 -2.0301  0.0479
  123OSM   H12G13102   2.098   2.144   7.794 -1.6636 -1.5346  0.3366
  123OSM   C13F13103   2.040   2.120   8.008  0.5293 -0.0005  0.3867
  123OSM   H13F13104   2.110   2.035   8.021  1.3652  0.6371  0.0746
  123OSM   H13G13105   1.939   2.080   7.986 -0.0088 -0.5997  3.6355
  123OSM   C14F13106   2.010   2.193   8.134 -0.3040  0.0360 -0.1334
  123OSM   H14F13107   1.961   2.291   8.116 -2.6884 -1.4099 -1.9865
  123OSM   H14G13108   2.111   2.222   8.168 -0.0586 -1.3561  0.3530
  123OSM   C15F13109   1.949   2.114   8.244  0.4332  0.0748 -0.2116
  123OSM   H15F13110   2.002   2.021   8.274  0.0102  0.4513  1.7548
  123OSM   H15G13111   1.852   2.080   8.200  0.0631  0.2297  0.4829
  123OSM   C16F13112   1.904   2.209   8.356  0.2297 -0.3908 -0.3504
  123OSM   H16F13113   1.840   2.284   8.306 -1.8080 -1.6120  0.3673
  123OSM   H16G13114   1.990   2.269   8.393 -1.3757  1.4552  0.4273
  123OSM   C17F13115   1.823   2.151   8.464 -0.1616 -0.0913 -0.0794
  123OSM   H17F13116   1.875   2.056   8.492 -1.5785 -1.1356 -0.9018
  123OSM   H17G13117   1.725   2.115   8.427 -0.0005 -3.9336  2.8790
  123OSM   C18F13118   1.801   2.247   8.584 -0.2324  0.4263  0.1629
  123OSM   H18F13119   1.752   2.344   8.563 -0.1177  0.5873  0.6272
  123OSM   H18G13120   1.895   2.260   8.643 -0.0919  1.6027 -0.3207
  123OSM   H18H13121   1.722   2.200   8.646  0.0624 -0.6242 -0.2331
  124OSM      N13122   3.134   4.726   5.829  0.1557 -0.5580 -0.5279
  124OSM    C1513123   3.096   4.593   5.782  0.0236 -0.2890 -0.2568
  124OSM   H15A13124   3.028   4.552   5.855  1.5883  0.1592  1.5133
  124OSM   H15B13125   3.175   4.523   5.759  0.9896  0.6619  0.1350
  124OSM   H15C13126   3.036   4.622   5.697  0.9927  1.0098 -0.5074
  124OSM    C1413127   3.220   4.801   5.728  0.0847  0.3524 -0.5646
  124OSM   H14A13128   3.314   4.747   5.719  1.0114  1.6831  0.8464
  124OSM   H14B13129   3.235   4.900   5.767  3.1052  0.5216 -2.0066
  124OSM   H14C13130   3.166   4.801   5.635 -0.7998  0.8742 -0.0551
  124OSM    C1313131   3.015   4.807   5.851 -0.6385  0.0330  0.1800
  124OSM   H13A13132   2.968   4.829   5.756 -1.2332  1.0285  0.7009
  124OSM   H13B13133   3.041   4.901   5.897 -0.0475  0.0599 -0.2018
  124OSM   H13C13134   2.944   4.757   5.915  0.2111 -0.4823  0.7385
  124OSM    C1213135   3.224   4.706   5.953 -0.5167 -0.5589  0.2795
  124OSM   H12A13136   3.306   4.655   5.905 -0.3204  0.7866 -0.8406
  124OSM   H12B13137   3.180   4.638   6.025  0.7690  0.2476  1.8409
  124OSM    C1113138   3.262   4.834   6.038 -0.3575 -0.1059  0.6914
  124OSM   H11A13139   3.285   4.915   5.965  0.6010  0.8616  2.0435
  124OSM   H11B13140   3.344   4.804   6.108  0.1472 -0.5999 -0.0971
  124OSM      P13141   3.125   4.778   6.248  0.7325 -0.1458 -0.0060
  124OSM    O1313142   3.003   4.823   6.318  0.1346  0.0111  0.1284
  124OSM    O1413143   3.137   4.632   6.217 -0.4656  0.3604 -0.3557
  124OSM    O1113144   3.248   4.814   6.345 -0.3999 -0.6933 -0.3347
  124OSM    O1213145   3.151   4.869   6.118  0.4436 -0.0369 -0.2182
  124OSM    C1S13146   3.252   4.955   6.381  0.1294 -0.2117 -0.0006
  124OSM    H1S13147   3.154   4.988   6.422 -0.4774 -0.0235 -1.5930
  124OSM    H1T13148   3.270   5.018   6.292  1.5792 -0.7324 -0.0850
  124OSM     NF13149   3.356   5.128   6.521  0.5191  0.0536  0.1039
  124OSM    HNF13150   3.385   5.205   6.465 -2.1156  1.5703  0.7632
  124OSM    C2S13151   3.370   4.990   6.476 -0.1548  0.1539 -0.2038
  124OSM    H2S13152   3.360   4.918   6.560 -2.0617  0.5623 -0.0721
  124OSM    C3S13153   3.505   4.976   6.404 -0.5638 -0.4487  0.2126
  124OSM    H3S13154   3.515   5.054   6.326 -0.1277 -0.3731  0.3449
  124OSM     O313155   3.518   4.852   6.320  0.2670 -0.8914 -0.7176
  124OSM    HO313156   3.426   4.826   6.314 -0.1736  0.2923  0.6952
  124OSM    C4S13157   3.617   4.979   6.509  1.1139 -0.6938 -0.4378
  124OSM    H4S13158   3.652   5.083   6.518  0.1834 -0.3789 -0.3793
  124OSM    C5S13159   3.649   4.885   6.606 -0.2712 -0.3142  0.3632
  124OSM    H5S13160   3.575   4.806   6.622 -0.1994 -0.5223 -0.3307
  124OSM    C6S13161   3.754   4.909   6.711 -0.3000  0.1152 -0.5113
  124OSM    H6S13162   3.772   5.014   6.743  2.9215 -0.0798 -1.5043
  124OSM    H6T13163   3.854   4.878   6.676  0.7508  2.5742  0.1720
  124OSM    C7S13164   3.729   4.827   6.843  0.4559  0.3309 -0.0274
  124OSM    H7S13165   3.707   4.722   6.814  0.0936  0.0445  1.2296
  124OSM    H7T13166   3.646   4.852   6.912  0.0938 -1.1312  0.0837
  124OSM    C8S13167   3.846   4.824   6.942 -0.7206  0.4605  0.9741
  124OSM    H8S13168   3.904   4.919   6.949 -0.4681  0.5340 -1.6837
  124OSM    H8T13169   3.922   4.755   6.901 -0.9645  0.1808  0.9935
  124OSM    C9S13170   3.816   4.791   7.093  0.1155  0.1830  0.4263
  124OSM    H9S13171   3.912   4.752   7.133 -0.9126 -2.1583  0.6594
  124OSM    H9T13172   3.742   4.708   7.099  0.0066  0.3369  1.3453
  124OSM   C10S13173   3.767   4.910   7.174 -0.3388 -0.1928  0.2299
  124OSM   H10S13174   3.658   4.927   7.161 -0.8783 -3.5214 -0.1594
  124OSM   H10T13175   3.817   5.006   7.150 -0.1298 -0.4256 -0.2820
  124OSM   C11S13176   3.791   4.877   7.321 -0.2160 -0.5773  0.6465
  124OSM   H11S13177   3.897   4.856   7.346 -0.6199 -1.9454  1.2716
  124OSM   H11T13178   3.736   4.787   7.356 -0.5685  0.5077  3.0038
  124OSM   C12S13179   3.762   4.994   7.416  0.0850  0.5836  1.0142
  124OSM   H12S13180   3.655   5.020   7.430 -0.7522 -1.4265 -1.1962
  124OSM   H12T13181   3.808   5.092   7.389  2.1811 -1.2397 -2.4964
  124OSM   C13S13182   3.812   4.959   7.555  0.8920 -0.5310 -0.0683
  124OSM   H13S13183   3.923   4.955   7.549  0.8488 -0.6133 -0.8626
  124OSM   H13T13184   3.790   4.853   7.579 -0.6876  0.5478  3.6541
  124OSM   C14S13185   3.751   5.042   7.680  0.0633  0.3678  0.0401
  124OSM   H14S13186   3.640   5.035   7.674 -0.0448  0.8558  1.3565
  124OSM   H14T13187   3.786   5.147   7.686  0.7913  0.4099 -3.4131
  124OSM   C15S13188   3.791   4.979   7.815  0.6460  0.5516  0.1568
  124OSM   H15S13189   3.902   4.987   7.817  0.6100  1.4493 -1.0128
  124OSM   H15T13190   3.766   4.871   7.808  1.2959  0.4067  0.0246
  124OSM   C16S13191   3.724   5.060   7.929  0.0722 -0.3035 -0.3562
  124OSM   H16S13192   3.618   5.081   7.903  0.0432  0.8207  0.6566
  124OSM   H16T13193   3.777   5.157   7.938  0.6911 -0.9370  3.5963
  124OSM   C17S13194   3.741   4.989   8.060  0.4272  0.1449  0.2459
  124OSM   H17S13195   3.707   5.060   8.138 -0.9390  2.0692 -2.0190
  124OSM   H17T13196   3.850   4.973   8.078  0.9749  0.5424 -2.4716
  124OSM   C18S13197   3.674   4.857   8.077  1.1107 -0.1009 -0.0058
  124OSM   H18S13198   3.698   4.815   8.177 -0.7246 -0.5307  0.2679
  124OSM   H18T13199   3.698   4.785   7.996  0.4507  1.5426 -1.7114
  124OSM   H18U13200   3.565   4.880   8.074  1.3556  1.0437 -0.3444
  124OSM    C1F13201   3.266   5.168   6.604  0.7144 -0.1480 -0.3895
  124OSM     OF13202   3.213   5.080   6.677  0.6214  0.9508  0.5865
  124OSM    C2F13203   3.198   5.299   6.570 -0.0864  0.1128 -0.0386
  124OSM    H2F13204   3.100   5.281   6.521  0.1108 -2.3566  0.3954
  124OSM    H2G13205   3.256   5.364   6.502 -1.1512  0.9618 -0.1299
  124OSM    C3F13206   3.165   5.392   6.686 -0.6813 -0.2359 -0.2099
  124OSM    H3F13207   3.124   5.487   6.645 -0.8092  0.9175  2.4818
  124OSM    H3G13208   3.252   5.419   6.749 -0.6368  0.7543 -0.6929
  124OSM    C4F13209   3.067   5.332   6.787 -0.0022 -0.0723  0.1655
  124OSM    H4F13210   3.119   5.246   6.835  0.5137 -0.2776 -0.7372
  124OSM    H4G13211   2.980   5.286   6.735  0.2899 -0.5291  0.0676
  124OSM    C5F13212   3.016   5.429   6.895 -0.0500 -0.1546 -0.4248
  124OSM    H5F13213   2.940   5.369   6.950 -0.3274  0.1978 -0.4221
  124OSM    H5G13214   2.960   5.514   6.851  0.3507 -0.2368 -1.0898
  124OSM    C6F13215   3.114   5.502   6.990 -0.7839  0.0316 -0.1954
  124OSM    H6F13216   3.055   5.570   7.055  0.8828  0.7747  0.5757
  124OSM    H6G13217   3.179   5.567   6.928 -0.9302  0.3414 -0.0219
  124OSM    C7F13218   3.200   5.405   7.085 -0.5018  0.2932 -0.5194
  124OSM    H7F13219   3.301   5.451   7.080  1.2096 -3.0564  1.2241
  124OSM    H7G13220   3.216   5.312   7.026 -1.3858  0.9956 -1.8862
  124OSM    C8F13221   3.145   5.391   7.235 -0.2612  0.1432 -0.0413
  124OSM    H8F13222   3.133   5.494   7.276  1.3199 -0.2061  1.4065
  124OSM    H8G13223   3.230   5.340   7.286 -1.2830 -0.4551  1.0681
  124OSM    C9F13224   3.021   5.308   7.237 -0.1863 -0.0255 -0.4856
  124OSM    H9F13225   2.985   5.262   7.144 -0.4700  0.5540 -0.6642
  124OSM   C10F13226   2.952   5.299   7.347 -0.2547  0.1598 -0.3824
  124OSM   H10F13227   2.858   5.244   7.335 -0.9929  1.5659 -1.2144
  124OSM   C11F13228   2.979   5.359   7.484 -0.5881  0.3842 -0.5071
  124OSM   H11F13229   2.923   5.456   7.484 -0.1218  0.6579 -0.9035
  124OSM   H11G13230   3.089   5.375   7.493 -0.6952  1.0410 -0.2907
  124OSM   C12F13231   2.922   5.278   7.596  0.2168  0.0659 -0.2528
  124OSM   H12F13232   2.970   5.178   7.593  1.0167  0.4523 -0.4764
  124OSM   H12G13233   2.814   5.253   7.581  0.0824  1.1141 -1.1053
  124OSM   C13F13234   2.960   5.332   7.732  0.3190  0.3580  0.1939
  124OSM   H13F13235   2.975   5.442   7.724  1.0175  0.2763  0.4036
  124OSM   H13G13236   3.057   5.279   7.744 -0.1404 -0.7017 -0.6834
  124OSM   C14F13237   2.865   5.290   7.840  0.1560 -0.4657  0.6164
  124OSM   H14F13238   2.844   5.182   7.820 -1.0749 -0.0205 -0.5357
  124OSM   H14G13239   2.767   5.343   7.838  0.4434  0.1544  2.3502
  124OSM   C15F13240   2.921   5.298   7.986  0.5898  0.1839 -0.4361
  124OSM   H15F13241   2.920   5.407   8.006 -0.6024 -0.3141  2.4929
  124OSM   H15G13242   3.028   5.268   7.995  1.2936  2.9252  0.6986
  124OSM   C16F13243   2.836   5.226   8.092 -0.2277  0.4854 -0.6101
  124OSM   H16F13244   2.733   5.266   8.083 -1.4065 -1.9580  1.1823
  124OSM   H16G13245   2.875   5.258   8.191 -1.8377  1.1096 -0.1624
  124OSM   C17F13246   2.846   5.076   8.088 -0.1616  0.0310 -0.0780
  124OSM   H17F13247   2.956   5.062   8.082  0.0112  1.2325  0.2062
  124OSM   H17G13248   2.804   5.028   7.997  0.7294  0.6974 -0.8438
  124OSM   C18F13249   2.792   5.014   8.209 -0.5635 -0.2458 -0.5047
  124OSM   H18F13250   2.786   4.903   8.206 -2.8743 -0.1626 -0.2244
  124OSM   H18G13251   2.688   5.049   8.230 -0.4044  0.3993 -0.7779
  124OSM   H18H13252   2.852   5.035   8.301 -1.0558 -0.6169 -0.0966
  125OSM      N13253   5.996   4.598   6.136  0.6810  0.4377 -0.2856
  125OSM    C1513254   5.880   4.511   6.123  0.1788 -0.1209  0.1014
  125OSM   H15A13255   5.819   4.508   6.212 -0.1947  2.7638 -0.0088
  125OSM   H15B13256   5.909   4.410   6.097 -1.1433 -0.1549 -1.3315
  125OSM   H15C13257   5.813   4.549   6.048  1.0307  1.2200 -0.0020
  125OSM    C1413258   6.044   4.641   5.999 -0.5833  0.2319 -0.4894
  125OSM   H14A13259   6.110   4.726   6.002 -1.4620  0.9139 -0.1452
  125OSM   H14B13260   5.958   4.665   5.939 -0.9601 -2.1568 -0.9830
  125OSM   H14C13261   6.087   4.562   5.940 -0.5409  0.8613 -1.3061
  125OSM    C1313262   5.948   4.713   6.222  0.7688  0.2235  0.7820
  125OSM   H13A13263   6.016   4.795   6.206  1.5648 -0.5662  0.0999
  125OSM   H13B13264   5.953   4.685   6.327  3.2677  0.0262  0.6502
  125OSM   H13C13265   5.848   4.743   6.194  1.1071  0.1887 -0.4776
  125OSM    C1213266   6.110   4.533   6.214 -0.1545 -0.5338 -0.4393
  125OSM   H12A13267   6.063   4.489   6.301 -1.1783 -0.8854 -1.1644
  125OSM   H12B13268   6.179   4.610   6.246 -1.3196  0.2459  0.1914
  125OSM    C1113269   6.206   4.429   6.149  0.4851  1.2212 -0.5226
  125OSM   H11A13270   6.268   4.391   6.233  2.0420 -0.0996 -2.2413
  125OSM   H11B13271   6.287   4.477   6.091 -0.6829 -1.0253 -4.1468
  125OSM      P13272   6.132   4.181   6.133  0.2572 -0.1470  0.2501
  125OSM    O1313273   6.104   4.089   6.025  0.2880 -0.6812  0.6009
  125OSM    O1413274   6.255   4.154   6.211 -0.0076  0.3687 -0.0865
  125OSM    O1113275   6.000   4.192   6.223  0.2881  0.1699  0.0741
  125OSM    O1213276   6.143   4.327   6.069  0.0952  0.2339  0.5324
  125OSM    C1S13277   5.963   4.096   6.316 -0.2533  0.4261 -0.0968
  125OSM    H1S13278   6.013   4.000   6.289  1.8238  1.1738  0.9643
  125OSM    H1T13279   5.857   4.070   6.301 -0.4683  0.0190  2.0169
  125OSM     NF13280   5.948   4.010   6.545  0.3718  0.1309 -0.2886
  125OSM    HNF13281   5.854   4.008   6.579  0.8523 -2.6198  0.9763
  125OSM    C2S13282   5.979   4.132   6.467  0.0823 -0.0944  0.9600
  125OSM    H2S13283   6.089   4.140   6.475  0.3085 -0.7946 -1.1574
  125OSM    C3S13284   5.907   4.261   6.506 -0.0586 -1.0209 -0.3651
  125OSM    H3S13285   5.798   4.244   6.522 -0.0037  0.3654  1.6829
  125OSM     O313286   5.926   4.368   6.410 -0.0956 -0.7191 -0.4862
  125OSM    HO313287   5.960   4.324   6.333  0.4755  0.5869 -0.9965
  125OSM    C4S13288   5.954   4.311   6.642  0.0236  1.0083  0.2457
  125OSM    H4S13289   6.064   4.313   6.639  0.1484 -1.0559  2.0376
  125OSM    C5S13290   5.891   4.362   6.743  0.2164 -0.5042 -0.0608
  125OSM    H5S13291   5.781   4.367   6.741  0.2659  1.5390  0.7319
  125OSM    C6S13292   5.948   4.414   6.874  0.7509  0.2280  0.2919
  125OSM    H6S13293   5.882   4.379   6.956  0.5286  1.0093  0.4510
  125OSM    H6T13294   5.932   4.523   6.885 -1.4031 -0.2024  1.5702
  125OSM    C7S13295   6.083   4.377   6.921  0.1323  0.2047 -0.5486
  125OSM    H7S13296   6.162   4.424   6.858  0.6623 -0.7869 -0.6290
  125OSM    H7T13297   6.103   4.269   6.930  0.0412  0.3067  1.0622
  125OSM    C8S13298   6.110   4.431   7.065  0.6899  0.1262 -0.6440
  125OSM    H8S13299   6.086   4.540   7.068 -0.3069 -0.0539 -1.6459
  125OSM    H8T13300   6.217   4.416   7.088  0.6142  1.2581  0.5298
  125OSM    C9S13301   6.037   4.348   7.179  0.3981  0.0195  0.0304
  125OSM    H9S13302   6.104   4.262   7.201 -0.5240 -0.6331  0.3249
  125OSM    H9T13303   5.931   4.320   7.160  0.2926  0.3559  0.1292
  125OSM   C10S13304   6.028   4.435   7.304  0.3471 -1.3076  0.4869
  125OSM   H10S13305   5.957   4.520   7.299  1.0152 -0.8330 -0.9603
  125OSM   H10T13306   6.119   4.497   7.317 -0.5003 -0.2200  1.3427
  125OSM   C11S13307   5.987   4.348   7.427  0.2405  0.1278 -0.3252
  125OSM   H11S13308   6.058   4.263   7.431 -1.7238 -1.5692 -1.0389
  125OSM   H11T13309   5.886   4.303   7.420  0.8717 -1.1764 -1.3306
  125OSM   C12S13310   6.006   4.424   7.557  0.1025  0.3222 -0.3748
  125OSM   H12S13311   5.927   4.502   7.560 -2.1139 -1.8742 -0.0962
  125OSM   H12T13312   6.110   4.465   7.560 -0.3395  1.5740 -1.9283
  125OSM   C13S13313   5.969   4.330   7.673 -0.0027 -0.6384  0.0707
  125OSM   H13S13314   6.054   4.260   7.683  0.1842 -0.8426 -2.6038
  125OSM   H13T13315   5.889   4.255   7.653 -1.0900 -0.1201  2.2971
  125OSM   C14S13316   5.928   4.397   7.806  0.1505  0.8813 -0.3423
  125OSM   H14S13317   5.828   4.442   7.788 -1.0211 -1.3411  0.4183
  125OSM   H14T13318   5.998   4.474   7.843 -0.4019  2.5267 -2.6300
  125OSM   C15S13319   5.881   4.295   7.909  0.6033  0.3820  0.0084
  125OSM   H15S13320   5.961   4.225   7.942  0.8911  1.2005  1.0538
  125OSM   H15T13321   5.805   4.233   7.855 -0.0262  2.4525 -1.5460
  125OSM   C16S13322   5.832   4.369   8.038  0.4277 -0.2334 -0.3956
  125OSM   H16S13323   5.737   4.425   8.021 -0.1133 -1.2525 -0.7720
  125OSM   H16T13324   5.908   4.446   8.065  0.5480 -1.3905  2.8459
  125OSM   C17S13325   5.802   4.274   8.154 -0.8208 -0.1490  0.2856
  125OSM   H17S13326   5.895   4.243   8.205 -0.4098 -0.5623 -0.7168
  125OSM   H17T13327   5.743   4.192   8.108  0.3101 -1.0971  0.5059
  125OSM   C18S13328   5.722   4.331   8.269  0.2413 -0.3288 -0.0335
  125OSM   H18S13329   5.638   4.386   8.222  2.1068  0.7519 -2.1984
  125OSM   H18T13330   5.787   4.389   8.339 -0.2184 -2.9874  2.6913
  125OSM   H18U13331   5.678   4.248   8.327  0.3425 -0.7345 -0.5363
  125OSM    C1F13332   6.016   3.896   6.539  0.0648 -0.2817 -0.0197
  125OSM     OF13333   6.114   3.879   6.465  0.2494 -0.1270  0.1257
  125OSM    C2F13334   5.966   3.786   6.627 -0.1803  0.7250  0.8453
  125OSM    H2F13335   5.951   3.698   6.561  0.6600  1.1648  0.0738
  125OSM    H2G13336   5.872   3.819   6.678 -0.4653  2.4456 -0.7492
  125OSM    C3F13337   6.083   3.744   6.719  0.0397 -0.0653 -0.3204
  125OSM    H3F13338   6.129   3.824   6.780  0.1234 -0.3220 -0.0492
  125OSM    H3G13339   6.171   3.723   6.654  1.5498 -1.1552  2.0147
  125OSM    C4F13340   6.048   3.620   6.798 -0.7395  0.3808  0.4657
  125OSM    H4F13341   6.144   3.571   6.826 -0.2764  1.2539  0.4193
  125OSM    H4G13342   5.993   3.548   6.735 -0.6137 -0.9589  1.8567
  125OSM    C5F13343   5.951   3.647   6.914 -0.3241 -0.4999 -0.2928
  125OSM    H5F13344   5.849   3.667   6.875 -1.6594 -3.2858  1.6120
  125OSM    H5G13345   5.989   3.736   6.968 -1.7788  0.4248 -0.7680
  125OSM    C6F13346   5.935   3.522   7.003 -0.2856 -0.1013 -0.0294
  125OSM    H6F13347   6.033   3.494   7.046 -0.3752  1.8269  1.4973
  125OSM    H6G13348   5.887   3.435   6.954  0.6901  0.2616 -1.6622
  125OSM    C7F13349   5.853   3.564   7.129 -0.1257  0.9454  0.2581
  125OSM    H7F13350   5.752   3.600   7.099  0.0729  3.6093  2.6214
  125OSM    H7G13351   5.890   3.642   7.199  0.7326 -2.1449  3.3290
  125OSM    C8F13352   5.842   3.444   7.224 -0.3689  0.1395 -0.0042
  125OSM    H8F13353   5.947   3.434   7.258 -1.0213 -2.2150  1.4650
  125OSM    H8G13354   5.801   3.361   7.162  2.2236 -0.1460 -1.4003
  125OSM    C9F13355   5.743   3.471   7.337  0.2617 -0.0784  0.0152
  125OSM    H9F13356   5.640   3.502   7.310 -0.5818 -0.9841  2.1336
  125OSM   C10F13357   5.771   3.462   7.471  0.0417 -0.1664  0.1016
  125OSM   H10F13358   5.692   3.478   7.545  0.7656  0.6296  0.7106
  125OSM   C11F13359   5.908   3.416   7.532 -0.3112 -0.3483 -0.2582
  125OSM   H11F13360   5.979   3.492   7.493 -0.7463  0.8653  1.2454
  125OSM   H11G13361   5.933   3.313   7.498 -0.6434 -0.5460  0.0891
  125OSM   C12F13362   5.918   3.416   7.685 -0.4751  0.0338 -0.4419
  125OSM   H12F13363   5.860   3.328   7.722  1.1971 -1.2394 -0.7915
  125OSM   H12G13364   5.866   3.504   7.727  1.6641  1.7857 -1.3451
  125OSM   C13F13365   6.057   3.411   7.746 -0.2929  0.0272 -0.0033
  125OSM   H13F13366   6.109   3.481   7.677  1.3543 -1.2579 -0.0956
  125OSM   H13G13367   6.110   3.317   7.719  0.5355  0.7470 -0.9672
  125OSM   C14F13368   6.061   3.450   7.887  0.1454  0.0311  0.1934
  125OSM   H14F13369   6.008   3.546   7.903 -1.2116 -1.0810  2.6796
  125OSM   H14G13370   6.167   3.450   7.918  0.2758 -0.7414 -0.2296
  125OSM   C15F13371   6.000   3.337   7.975  0.4265  0.3140 -0.1493
  125OSM   H15F13372   6.049   3.238   7.965  0.3000  0.4484 -2.3687
  125OSM   H15G13373   5.893   3.323   7.947  0.0029  2.0263  0.5842
  125OSM   C16F13374   5.996   3.364   8.125 -0.8996 -0.0063  0.5747
  125OSM   H16F13375   6.091   3.404   8.168  0.0114  0.2735 -1.6375
  125OSM   H16G13376   5.978   3.265   8.170  1.5762 -0.0042  1.6419
  125OSM   C17F13377   5.875   3.452   8.182  0.9314 -0.2045  0.0140
  125OSM   H17F13378   5.876   3.549   8.129  2.1129  0.3997  1.1236
  125OSM   H17G13379   5.895   3.475   8.288 -0.2935  0.5747  0.0786
  125OSM   C18F13380   5.737   3.390   8.187 -0.5560  0.0708 -0.1888
  125OSM   H18F13381   5.699   3.374   8.084  0.1503  2.5938 -0.8713
  125OSM   H18G13382   5.671   3.460   8.242  1.6108  0.9656  1.3643
  125OSM   H18H13383   5.731   3.295   8.244 -2.4779 -2.5208 -4.4321
  126OSM      N13384   3.296   1.390   6.152 -0.1446  0.4011  0.8514
  126OSM    C1513385   3.267   1.330   6.023 -0.4231 -0.0667  0.0826
  126OSM   H15A13386   3.354   1.311   5.962 -0.8127  0.0919 -0.5304
  126OSM   H15B13387   3.204   1.392   5.960 -2.4098 -0.5457  1.5378
  126OSM   H15C13388   3.226   1.229   6.029 -1.0053  0.0850 -1.1262
  126OSM    C1413389   3.392   1.299   6.223 -0.1503 -0.1306 -0.9682
  126OSM   H14A13390   3.491   1.304   6.179 -0.0801  0.7595 -0.7260
  126OSM   H14B13391   3.362   1.196   6.228  1.3456 -0.4722  2.3187
  126OSM   H14C13392   3.399   1.335   6.325 -2.0297 -2.4720  0.0138
  126OSM    C1313393   3.365   1.522   6.127 -0.3308 -0.3021  0.3072
  126OSM   H13A13394   3.461   1.493   6.085 -1.0311 -1.4642 -0.5483
  126OSM   H13B13395   3.389   1.570   6.220  1.0895 -1.4098  0.5252
  126OSM   H13C13396   3.325   1.592   6.055  1.1702 -1.4906 -1.7421
  126OSM    C1213397   3.177   1.424   6.239 -0.2290 -0.8723  0.1364
  126OSM   H12A13398   3.126   1.333   6.267  0.4626 -1.1302  0.5869
  126OSM   H12B13399   3.111   1.485   6.180  1.1901  1.5786  1.0081
  126OSM    C1113400   3.204   1.518   6.363 -0.0790 -0.4271  0.0216
  126OSM   H11A13401   3.107   1.531   6.416  1.6918  1.9927  2.7902
  126OSM   H11B13402   3.238   1.613   6.318 -0.6977 -0.6287 -0.8904
  126OSM      P13403   3.263   1.371   6.566  0.1241 -0.1326  0.0652
  126OSM    O1313404   3.157   1.280   6.521 -0.1237 -0.8816 -0.0165
  126OSM    O1413405   3.389   1.305   6.609  0.1314 -0.0446  0.0646
  126OSM    O1113406   3.203   1.453   6.682 -0.9283  0.5831  0.4934
  126OSM    O1213407   3.306   1.474   6.455 -0.1610 -0.3608 -0.3003
  126OSM    C1S13408   3.120   1.391   6.784  0.3203  0.0969 -0.0233
  126OSM    H1S13409   3.177   1.301   6.818  3.4531  0.6222 -3.5357
  126OSM    H1T13410   3.023   1.350   6.746  0.4289 -0.8808  0.7082
  126OSM     NF13411   3.032   1.405   7.003 -0.8291 -0.0895  0.3301
  126OSM    HNF13412   2.934   1.398   6.988 -0.8252 -1.0173  0.6822
  126OSM    C2S13413   3.097   1.487   6.898  0.2156  0.0445 -0.0260
  126OSM    H2S13414   3.199   1.515   6.931  0.3835  1.4803 -1.6611
  126OSM    C3S13415   3.012   1.611   6.850 -0.4914  0.8699  0.6918
  126OSM    H3S13416   2.913   1.568   6.823  0.7300 -1.1240 -0.7482
  126OSM     O313417   3.071   1.673   6.738 -0.2640  0.3827 -0.6228
  126OSM    HO313418   3.122   1.604   6.696  0.4230  1.1175 -0.9955
  126OSM    C4S13419   3.005   1.711   6.952 -0.7255 -0.5623 -0.6051
  126OSM    H4S13420   2.910   1.766   6.945 -0.0444  0.3462 -3.5448
  126OSM    C5S13421   3.106   1.773   7.021 -0.1232 -0.4134 -0.3612
  126OSM    H5S13422   3.208   1.736   7.007  0.9682  1.9012  1.0607
  126OSM    C6S13423   3.076   1.888   7.119 -0.0270 -0.0884 -0.3237
  126OSM    H6S13424   2.973   1.931   7.109 -0.0741  0.0853  0.7501
  126OSM    H6T13425   3.151   1.968   7.101  1.3716 -1.4465 -0.6463
  126OSM    C7S13426   3.105   1.842   7.257 -0.8355  0.0887 -0.4909
  126OSM    H7S13427   3.210   1.807   7.266 -0.6480  0.5349 -0.9113
  126OSM    H7T13428   3.042   1.755   7.286  0.1684 -0.9195 -1.2973
  126OSM    C8S13429   3.077   1.957   7.360 -0.0970 -0.2488 -0.4550
  126OSM    H8S13430   2.982   2.010   7.337  0.2241  0.4665 -0.1366
  126OSM    H8T13431   3.155   2.032   7.337  2.3564 -3.0519 -1.5675
  126OSM    C9S13432   3.077   1.929   7.510  0.2494 -0.5632 -0.5266
  126OSM    H9S13433   3.019   1.835   7.523 -1.3062  0.3085 -0.9918
  126OSM    H9T13434   3.013   2.006   7.559  0.8320 -0.0120 -0.6185
  126OSM   C10S13435   3.215   1.951   7.573 -0.2013  0.5027 -0.6094
  126OSM   H10S13436   3.282   2.032   7.536  1.8416 -0.7715  0.2103
  126OSM   H10T13437   3.275   1.863   7.541 -1.9508 -0.4322 -1.4074
  126OSM   C11S13438   3.198   1.965   7.721  0.0047 -0.5687 -0.4622
  126OSM   H11S13439   3.095   1.988   7.756  1.4804  2.4382  2.1438
  126OSM   H11T13440   3.263   2.049   7.753 -0.4827 -1.1306  2.1856
  126OSM   C12S13441   3.243   1.837   7.791  0.0731  0.4134 -0.1106
  126OSM   H12S13442   3.344   1.808   7.755  0.1184  0.7343 -0.2436
  126OSM   H12T13443   3.177   1.751   7.763 -1.1860  1.3929 -0.1965
  126OSM   C13S13444   3.210   1.839   7.940  0.3420  0.0440 -0.9884
  126OSM   H13S13445   3.102   1.860   7.957  0.1855 -0.5905 -1.1923
  126OSM   H13T13446   3.266   1.915   7.998  0.2623 -0.2074 -0.5800
  126OSM   C14S13447   3.229   1.701   8.010 -0.6052 -0.2839 -0.1891
  126OSM   H14S13448   3.329   1.661   7.983 -0.5570 -0.7125  0.6170
  126OSM   H14T13449   3.161   1.629   7.961  1.6167 -2.2781 -0.4301
  126OSM   C15S13450   3.219   1.716   8.162  0.3793  0.7107 -0.8753
  126OSM   H15S13451   3.127   1.772   8.187  0.2180  1.0793 -2.2334
  126OSM   H15T13452   3.310   1.769   8.199  0.3362  0.1787 -0.0109
  126OSM   C16S13453   3.201   1.572   8.218  0.2989 -0.4648 -0.3878
  126OSM   H16S13454   3.274   1.505   8.167 -1.7875 -2.9657 -0.1847
  126OSM   H16T13455   3.100   1.532   8.196  0.4355  0.0815 -2.1006
  126OSM   C17S13456   3.227   1.565   8.368 -0.4127  0.0507  0.0580
  126OSM   H17S13457   3.170   1.644   8.422 -0.1205 -0.2338  0.7878
  126OSM   H17T13458   3.335   1.583   8.388 -0.5307  1.3992 -0.4283
  126OSM   C18S13459   3.193   1.428   8.435  0.1261 -0.2361 -0.0529
  126OSM   H18S13460   3.267   1.351   8.405  0.5139 -1.1992  3.1905
  126OSM   H18T13461   3.091   1.395   8.407 -0.4628  1.8436 -0.4412
  126OSM   H18U13462   3.193   1.444   8.545 -0.7288  1.9907 -0.3348
  126OSM    C1F13463   3.101   1.317   7.073  0.0066 -0.2919  0.1192
  126OSM     OF13464   3.228   1.312   7.078 -0.0309 -0.1876  0.2649
  126OSM    C2F13465   3.016   1.237   7.171 -0.2466 -0.1266  0.1669
  126OSM    H2F13466   2.909   1.268   7.169 -0.0455  0.7205  1.6419
  126OSM    H2G13467   3.065   1.246   7.270 -0.1195 -0.7022  0.1602
  126OSM    C3F13468   3.028   1.088   7.137 -1.0697  0.2538  0.0480
  126OSM    H3F13469   3.137   1.064   7.140 -0.6611  2.0402 -0.4161
  126OSM    H3G13470   2.989   1.078   7.034 -1.2635 -2.1263  0.3225
  126OSM    C4F13471   2.931   1.007   7.224 -0.8054  0.2531 -0.0225
  126OSM    H4F13472   2.931   0.905   7.179 -2.8269  0.2480 -0.0556
  126OSM    H4G13473   2.829   1.045   7.202 -0.4440  1.8792  1.0675
  126OSM    C5F13474   2.956   1.026   7.374 -0.2767  0.2272 -0.5658
  126OSM    H5F13475   2.913   1.124   7.406 -0.5186 -0.0300 -0.0933
  126OSM    H5G13476   3.061   1.008   7.403 -0.9127 -1.7274  0.6271
  126OSM    C6F13477   2.880   0.922   7.454  0.4188  0.6335  0.0181
  126OSM    H6F13478   2.924   0.826   7.419 -1.2972  0.2669 -1.1606
  126OSM    H6G13479   2.772   0.932   7.434  0.4558  1.6097  0.3050
  126OSM    C7F13480   2.906   0.930   7.608  0.1085  0.0786  0.4637
  126OSM    H7F13481   2.866   1.032   7.627 -0.1823 -0.1409  1.0453
  126OSM    H7G13482   3.016   0.928   7.619  0.2959  0.3876 -1.1953
  126OSM    C8F13483   2.849   0.808   7.686 -0.2430  0.7926 -0.3796
  126OSM    H8F13484   2.883   0.826   7.791 -0.0872 -0.3736 -0.2265
  126OSM    H8G13485   2.886   0.710   7.649 -1.5914  0.0701  0.1407
  126OSM    C9F13486   2.701   0.781   7.689 -0.1476 -0.0796  0.2935
  126OSM    H9F13487   2.670   0.729   7.597 -1.2337 -0.2682  0.7579
  126OSM   C10F13488   2.618   0.805   7.793 -0.4266 -0.5206  0.1324
  126OSM   H10F13489   2.511   0.777   7.785 -0.8065  0.8335  0.4064
  126OSM   C11F13490   2.661   0.861   7.928 -0.3945  0.6076 -0.1094
  126OSM   H11F13491   2.588   0.932   7.974 -0.1398  1.5813 -1.1793
  126OSM   H11G13492   2.754   0.920   7.916 -0.5231  0.5425 -1.5261
  126OSM   C12F13493   2.698   0.750   8.026  0.3214 -0.2800 -0.0545
  126OSM   H12F13494   2.770   0.676   7.985 -0.4367 -1.8551  1.4008
  126OSM   H12G13495   2.603   0.697   8.048  0.9543 -1.3415  0.1832
  126OSM   C13F13496   2.767   0.789   8.155 -0.3691  0.2391 -0.0422
  126OSM   H13F13497   2.870   0.825   8.134  0.7342 -0.4865  3.7660
  126OSM   H13G13498   2.774   0.699   8.221 -0.2411  1.1563  1.2120
  126OSM   C14F13499   2.688   0.883   8.240  0.4391 -0.1199  0.0117
  126OSM   H14F13500   2.672   0.981   8.190  4.9103  1.0687  0.7721
  126OSM   H14G13501   2.744   0.909   8.332 -2.2089  2.1069  1.0959
  126OSM   C15F13502   2.554   0.825   8.287 -0.0144 -0.5200  0.1232
  126OSM   H15F13503   2.570   0.723   8.328  0.4441 -0.8191 -0.7817
  126OSM   H15G13504   2.481   0.801   8.207  0.7312 -1.9164 -0.1481
  126OSM   C16F13505   2.487   0.928   8.387  0.0807  0.4071 -0.1533
  126OSM   H16F13506   2.563   0.987   8.444  1.7364 -1.8610  0.0544
  126OSM   H16G13507   2.419   0.879   8.460  0.4420  0.6457  0.3534
  126OSM   C17F13508   2.402   1.032   8.310 -0.0188  0.1894 -0.3111
  126OSM   H17F13509   2.317   0.981   8.261  0.1370  0.6501 -1.0633
  126OSM   H17G13510   2.453   1.088   8.228  0.0206  2.5016  1.2497
  126OSM   C18F13511   2.331   1.130   8.410 -0.4538 -0.1341 -0.4564
  126OSM   H18F13512   2.287   1.211   8.348  0.5010  1.1786  0.5498
  126OSM   H18G13513   2.415   1.179   8.463  1.4381 -3.5706 -0.0983
  126OSM   H18H13514   2.260   1.070   8.471 -1.0809  0.7247 -0.3278
  127OSM      N13515   1.295   2.891   6.243  0.3279 -0.1810  0.3454
  127OSM    C1513516   1.282   3.033   6.193  0.9077  0.1673  0.6372
  127OSM   H15A13517   1.184   3.055   6.152  0.9058 -3.2666 -1.4244
  127OSM   H15B13518   1.350   3.060   6.114 -0.2626 -1.1592 -0.8593
  127OSM   H15C13519   1.300   3.102   6.273 -2.3290  0.8232  0.8769
  127OSM    C1413520   1.192   2.863   6.352  0.6062  0.2806 -0.4262
  127OSM   H14A13521   1.085   2.858   6.334  0.4359 -1.1004  0.8584
  127OSM   H14B13522   1.196   2.921   6.443 -4.7241 -0.1927  0.2920
  127OSM   H14C13523   1.222   2.767   6.392  0.2505  0.6351  0.7317
  127OSM    C1313524   1.270   2.793   6.136  0.4594  1.0044  0.2047
  127OSM   H13A13525   1.326   2.821   6.048 -1.4833 -1.4898 -1.9069
  127OSM   H13B13526   1.164   2.794   6.115  0.2601  1.3163  1.2026
  127OSM   H13C13527   1.299   2.692   6.160 -2.2998  0.5408  1.8291
  127OSM    C1213528   1.432   2.878   6.303  0.1611  0.2436 -0.3539
  127OSM   H12A13529   1.442   2.952   6.381 -1.7161 -0.6222  0.7430
  127OSM   H12B13530   1.502   2.896   6.223 -1.2288  0.9683 -1.4262
  127OSM    C1113531   1.476   2.743   6.368  0.1264 -0.5487 -0.2423
  127OSM   H11A13532   1.405   2.735   6.453 -0.3698  2.2826 -0.3326
  127OSM   H11B13533   1.579   2.749   6.407 -0.1847  1.0766  0.3574
  127OSM      P13534   1.392   2.495   6.321  0.3198  0.0001  0.4069
  127OSM    O1313535   1.271   2.485   6.231 -0.2782 -1.0103  0.4257
  127OSM    O1413536   1.490   2.392   6.306  0.3893 -0.4176 -0.0247
  127OSM    O1113537   1.347   2.511   6.474  0.1306 -1.0549  0.2689
  127OSM    O1213538   1.463   2.630   6.282 -0.3702 -0.2649 -0.5382
  127OSM    C1S13539   1.339   2.392   6.554 -0.5050 -0.7374  0.0064
  127OSM    H1S13540   1.436   2.339   6.544  0.3712  0.7947  0.1950
  127OSM    H1T13541   1.254   2.330   6.519 -0.0502 -2.2468  1.5051
  127OSM     NF13542   1.312   2.282   6.771 -0.0408 -0.3020  0.1466
  127OSM    HNF13543   1.223   2.251   6.805  0.7422 -2.6001  0.1259
  127OSM    C2S13544   1.313   2.413   6.708 -0.4412 -0.8264  0.1169
  127OSM    H2S13545   1.400   2.469   6.749  0.7134 -1.0902 -1.8849
  127OSM    C3S13546   1.181   2.497   6.727 -1.1318 -0.1793  0.0758
  127OSM    H3S13547   1.100   2.429   6.693 -1.0454 -1.7700  2.9454
  127OSM     O313548   1.176   2.625   6.667  0.1548  0.5975  0.2763
  127OSM    HO313549   1.255   2.634   6.613  0.5937 -1.0188  0.6322
  127OSM    C4S13550   1.159   2.529   6.874  0.5972 -0.2703  0.5400
  127OSM    H4S13551   1.231   2.594   6.925 -0.0169  0.7554  0.1160
  127OSM    C5S13552   1.054   2.485   6.940  0.3773 -0.1248 -0.1509
  127OSM    H5S13553   0.976   2.426   6.890  1.0230  0.1467 -1.5111
  127OSM    C6S13554   1.029   2.525   7.078  0.4278  0.1497 -0.1791
  127OSM    H6S13555   1.091   2.609   7.116 -2.1209  2.1623 -0.3800
  127OSM    H6T13556   1.051   2.432   7.136  2.2205 -0.7840 -2.2784
  127OSM    C7S13557   0.881   2.572   7.112  0.3430  0.1852 -0.6429
  127OSM    H7S13558   0.820   2.496   7.060  1.6742 -0.5860 -1.1115
  127OSM    H7T13559   0.862   2.676   7.078 -0.0471 -0.2075 -1.6416
  127OSM    C8S13560   0.843   2.569   7.260 -0.3022 -0.1086  0.1804
  127OSM    H8S13561   0.823   2.464   7.293 -1.4415  0.1277  0.2936
  127OSM    H8T13562   0.748   2.627   7.261 -0.1865  0.0719  1.4981
  127OSM    C9S13563   0.954   2.637   7.353  0.2820  0.0996  1.1477
  127OSM    H9S13564   0.954   2.743   7.322 -1.9232 -0.8932 -2.6336
  127OSM    H9T13565   1.056   2.596   7.336 -0.5573 -2.0869  1.1852
  127OSM   C10S13566   0.929   2.628   7.497  0.6995  0.3021  0.7167
  127OSM   H10S13567   0.821   2.653   7.508  0.4731  0.5654 -1.8905
  127OSM   H10T13568   0.987   2.707   7.551  0.0895  0.3065  1.3735
  127OSM   C11S13569   0.953   2.483   7.553 -0.6549 -0.0378  0.6553
  127OSM   H11S13570   1.061   2.459   7.546 -0.6994 -0.3554  1.0906
  127OSM   H11T13571   0.897   2.408   7.492 -0.6192  0.7049 -0.3137
  127OSM   C12S13572   0.915   2.460   7.704 -0.0673 -0.2085 -0.3912
  127OSM   H12S13573   0.936   2.356   7.737 -0.7215  0.4036  2.0318
  127OSM   H12T13574   0.804   2.466   7.710  0.0481 -0.3226  2.9741
  127OSM   C13S13575   0.983   2.562   7.798  1.1033  0.2838  0.2895
  127OSM   H13S13576   0.937   2.660   7.772  1.6744 -0.2523 -3.0659
  127OSM   H13T13577   1.091   2.568   7.773  0.6561 -2.0339 -2.5404
  127OSM   C14S13578   0.969   2.521   7.950 -0.2280 -0.3782 -0.3246
  127OSM   H14S13579   1.029   2.430   7.969  2.0505  1.2165  0.2942
  127OSM   H14T13580   0.862   2.504   7.975 -0.2559 -0.6143 -0.6030
  127OSM   C15S13581   1.009   2.640   8.038  0.1389 -0.0849  0.2713
  127OSM   H15S13582   0.920   2.705   8.026 -1.0815 -1.4645  1.6047
  127OSM   H15T13583   1.096   2.692   7.993  0.4954  1.0590  2.2427
  127OSM   C16S13584   1.031   2.612   8.183 -0.1249 -0.2386 -0.6432
  127OSM   H16S13585   1.083   2.697   8.232  0.6993 -0.0005 -1.9012
  127OSM   H16T13586   1.106   2.531   8.194 -1.5584 -1.4655  0.3034
  127OSM   C17S13587   0.902   2.584   8.257  0.2640 -0.3396 -0.0825
  127OSM   H17S13588   0.865   2.486   8.221 -0.6685 -0.4091  1.0408
  127OSM   H17T13589   0.819   2.656   8.239  1.9895  1.4281 -1.1339
  127OSM   C18S13590   0.933   2.584   8.412  0.5382 -0.2464 -0.0516
  127OSM   H18S13591   0.947   2.685   8.454 -1.1927 -0.2558  0.5728
  127OSM   H18T13592   1.025   2.522   8.424  0.0090 -1.0060  0.1369
  127OSM   H18U13593   0.850   2.552   8.478 -0.1681  2.1351  0.2442
  127OSM    C1F13594   1.422   2.211   6.794  0.9375  0.0683  0.6136
  127OSM     OF13595   1.532   2.259   6.768 -0.0209 -0.2016 -0.1361
  127OSM    C2F13596   1.408   2.068   6.829  0.6804 -0.3255 -0.4473
  127OSM    H2F13597   1.491   2.004   6.791  1.6400 -0.7174  2.1769
  127OSM    H2G13598   1.320   2.022   6.780  0.6168 -1.2899  0.5550
  127OSM    C3F13599   1.415   2.051   6.984  0.2324  0.5282 -0.1609
  127OSM    H3F13600   1.510   2.089   7.027  0.3049 -1.3192  1.3882
  127OSM    H3G13601   1.404   1.946   7.020 -1.4871  0.9920  0.7062
  127OSM    C4F13602   1.301   2.117   7.057  0.6660  0.0291  0.5774
  127OSM    H4F13603   1.201   2.083   7.021  0.5066  1.4719 -0.3696
  127OSM    H4G13604   1.315   2.227   7.047 -0.2076  0.0511 -0.5737
  127OSM    C5F13605   1.285   2.097   7.204 -0.2223  0.3655  0.0111
  127OSM    H5F13606   1.368   2.143   7.263 -0.9177  0.8380  0.6276
  127OSM    H5G13607   1.277   1.990   7.236  0.1337  0.5099  0.5859
  127OSM    C6F13608   1.152   2.157   7.254 -0.0011  0.2582  0.6018
  127OSM    H6F13609   1.072   2.120   7.187  1.0487 -0.5564 -0.2185
  127OSM    H6G13610   1.159   2.267   7.236  1.6923  0.3090  1.4503
  127OSM    C7F13611   1.124   2.141   7.406  0.3444 -0.0296 -0.0037
  127OSM    H7F13612   1.100   2.036   7.429  1.7410 -0.3672 -0.0182
  127OSM    H7G13613   1.028   2.194   7.422 -0.1873 -1.4592  1.6555
  127OSM    C8F13614   1.234   2.178   7.505 -0.3466 -0.0817 -0.2277
  127OSM    H8F13615   1.273   2.281   7.489 -0.7345  0.2344  0.8147
  127OSM    H8G13616   1.313   2.106   7.475 -1.5539 -0.4505 -2.6047
  127OSM    C9F13617   1.188   2.147   7.647 -0.5162 -0.0965 -0.2943
  127OSM    H9F13618   1.132   2.052   7.654  0.7706 -0.8418 -0.0220
  127OSM   C10F13619   1.217   2.219   7.756 -0.2601 -0.7550 -0.4225
  127OSM   H10F13620   1.197   2.183   7.858 -2.9212 -1.5858 -1.1905
  127OSM   C11F13621   1.298   2.351   7.756 -0.0160 -0.1582 -0.1216
  127OSM   H11F13622   1.255   2.428   7.823  1.5537  1.2961 -0.7683
  127OSM   H11G13623   1.302   2.401   7.658 -1.2773  0.8500  0.3206
  127OSM   C12F13624   1.444   2.327   7.794  0.0680 -0.5653 -1.2881
  127OSM   H12F13625   1.495   2.426   7.793 -0.2232 -0.4166 -2.6576
  127OSM   H12G13626   1.492   2.262   7.718  2.6708 -1.1549  0.7728
  127OSM   C13F13627   1.464   2.265   7.938 -0.1898 -0.1424  0.5450
  127OSM   H13F13628   1.573   2.265   7.961  0.0976  0.7610 -0.7483
  127OSM   H13G13629   1.440   2.157   7.943 -1.2294 -0.1300 -2.9633
  127OSM   C14F13630   1.393   2.347   8.052  0.1526  0.6926  0.2948
  127OSM   H14F13631   1.437   2.311   8.147 -0.2826  2.8671  1.3349
  127OSM   H14G13632   1.285   2.321   8.055  0.3559 -0.5002 -1.5810
  127OSM   C15F13633   1.417   2.496   8.056  0.2296 -0.1605 -0.1289
  127OSM   H15F13634   1.375   2.542   8.149 -3.8294 -0.8518 -1.5327
  127OSM   H15G13635   1.359   2.529   7.967  1.3305  2.8298  0.1982
  127OSM   C16F13636   1.562   2.545   8.048 -0.3095 -0.2603 -0.4855
  127OSM   H16F13637   1.575   2.655   8.058  2.5003 -0.4378 -1.6619
  127OSM   H16G13638   1.598   2.517   7.947 -0.3028 -0.1670 -0.5090
  127OSM   C17F13639   1.659   2.493   8.158 -0.3298 -0.1234  0.0794
  127OSM   H17F13640   1.665   2.382   8.165  2.0839  0.0990  2.8061
  127OSM   H17G13641   1.629   2.514   8.263  1.3529 -0.3127  0.6170
  127OSM   C18F13642   1.799   2.556   8.144 -0.1000 -0.0548  0.3652
  127OSM   H18F13643   1.793   2.653   8.197 -0.5626  0.1539 -0.0704
  127OSM   H18G13644   1.828   2.561   8.037 -2.4635  0.5474 -0.2561
  127OSM   H18H13645   1.877   2.494   8.195 -0.8578 -1.0373  0.3534
  128OSM      N13646   2.020   5.826   5.732 -0.3833 -0.1496 -0.6706
  128OSM    C1513647   1.978   5.853   5.590  0.1402  0.3692  0.1222
  128OSM   H15A13648   1.963   5.960   5.586  0.0023  0.3381 -0.2143
  128OSM   H15B13649   1.898   5.789   5.555  1.4619  0.4885 -3.2623
  128OSM   H15C13650   2.055   5.821   5.522  1.1285 -0.2878  1.5216
  128OSM    C1413651   2.037   5.679   5.749 -0.0592  0.3120  0.4409
  128OSM   H14A13652   2.121   5.644   5.690 -3.2573 -1.5637 -3.2194
  128OSM   H14B13653   1.945   5.635   5.716 -0.3301  1.6133 -0.5597
  128OSM   H14C13654   2.049   5.659   5.855 -0.5170  1.1717  0.6565
  128OSM    C1313655   2.145   5.900   5.767  0.6175 -0.1624 -0.3225
  128OSM   H13A13656   2.159   5.893   5.874  0.0764  0.2737 -0.2214
  128OSM   H13B13657   2.140   6.007   5.749  1.2252 -0.0376  0.1950
  128OSM   H13C13658   2.226   5.876   5.700  0.4585  0.3037 -0.6831
  128OSM    C1213659   1.902   5.872   5.820 -0.2733 -0.4281 -0.3072
  128OSM   H12A13660   1.813   5.843   5.766 -1.2147 -0.1866  1.1075
  128OSM   H12B13661   1.899   5.980   5.822 -3.6186 -0.4979  0.0102
  128OSM    C1113662   1.891   5.820   5.965 -0.2830  0.1117 -0.5077
  128OSM   H11A13663   1.869   5.711   5.964  3.0437 -0.6156  0.3522
  128OSM   H11B13664   1.802   5.850   6.024  0.0798  1.4525 -0.6197
  128OSM      P13665   2.021   5.981   6.110 -0.1324 -0.0500  0.0830
  128OSM    O1313666   2.146   5.981   6.181 -0.0810 -0.2534 -0.2938
  128OSM    O1413667   1.996   6.101   6.025  0.0449 -0.3833  0.0429
  128OSM    O1113668   1.904   5.972   6.217 -0.0887 -0.5346  0.1008
  128OSM    O1213669   2.012   5.840   6.028  0.4528 -0.1929 -0.3252
  128OSM    C1S13670   1.884   5.848   6.292 -0.0329  0.4215  0.0456
  128OSM    H1S13671   1.977   5.806   6.336  0.6895 -1.1764 -2.9014
  128OSM    H1T13672   1.839   5.768   6.229 -0.8751  0.6762  0.3140
  128OSM     NF13673   1.795   5.761   6.518  0.1953  0.5821 -0.0987
  128OSM    HNF13674   1.730   5.686   6.524  0.8366 -0.0854 -1.1823
  128OSM    C2S13675   1.793   5.868   6.419 -0.2900  0.0962 -0.7075
  128OSM    H2S13676   1.836   5.957   6.471  0.3431 -1.1493  0.9272
  128OSM    C3S13677   1.652   5.901   6.382 -0.2426  0.2151 -0.0781
  128OSM    H3S13678   1.612   5.808   6.336 -1.4877  0.6200  0.1661
  128OSM     O313679   1.636   6.011   6.291 -0.1581 -0.0563  0.2384
  128OSM    HO313680   1.728   6.020   6.265  0.2638 -3.7999  0.1938
  128OSM    C4S13681   1.560   5.923   6.503  0.7312 -0.6331  1.0018
  128OSM    H4S13682   1.506   5.830   6.525  0.0290  0.2117  2.9174
  128OSM    C5S13683   1.534   6.035   6.574  0.1462  0.4521 -0.2085
  128OSM    H5S13684   1.577   6.130   6.538 -1.8921  1.7726  0.7619
  128OSM    C6S13685   1.432   6.043   6.684 -0.0937  1.0260  0.2166
  128OSM    H6S13686   1.406   6.147   6.712  1.7239  2.1804 -2.1890
  128OSM    H6T13687   1.479   5.997   6.774  0.1239  2.2865  0.7499
  128OSM    C7S13688   1.300   5.988   6.658  0.0433 -0.0826  0.4355
  128OSM    H7S13689   1.298   5.886   6.614 -0.9729 -1.0325  2.5934
  128OSM    H7T13690   1.253   6.050   6.578  0.6168 -2.8393 -2.1215
  128OSM    C8S13691   1.209   5.987   6.778  0.3486  0.0617 -0.7899
  128OSM    H8S13692   1.100   5.972   6.758  0.0046 -0.2442  1.2426
  128OSM    H8T13693   1.201   6.091   6.815 -1.1409  0.1306 -1.2670
  128OSM    C9S13694   1.246   5.892   6.891 -0.0031  0.3412 -0.0382
  128OSM    H9S13695   1.337   5.922   6.946  0.5016  0.4454 -0.9242
  128OSM    H9T13696   1.284   5.795   6.851  2.5661  1.0002  0.7150
  128OSM   C10S13697   1.124   5.863   6.979 -0.6716 -0.6654  0.2626
  128OSM   H10S13698   1.099   5.755   6.976 -0.9166 -0.5697 -1.8355
  128OSM   H10T13699   1.034   5.924   6.955 -0.0413  0.5573  0.9809
  128OSM   C11S13700   1.147   5.886   7.128 -0.9869  0.2809  0.1679
  128OSM   H11S13701   1.117   5.990   7.151 -0.0697  0.1638  1.9013
  128OSM   H11T13702   1.253   5.866   7.152 -1.2515  1.2828  2.2269
  128OSM   C12S13703   1.058   5.795   7.217  0.1855 -0.3482 -0.8904
  128OSM   H12S13704   1.109   5.696   7.221  1.6121  0.2324 -3.5293
  128OSM   H12T13705   0.971   5.777   7.150  0.0402  0.9782 -1.0586
  128OSM   C13S13706   1.027   5.855   7.356 -0.2751  0.0457 -0.0062
  128OSM   H13S13707   0.964   5.786   7.417 -2.1817  1.5522 -0.2070
  128OSM   H13T13708   0.973   5.949   7.330 -1.6633 -1.2712 -1.9683
  128OSM   C14S13709   1.146   5.899   7.445  0.6751  0.0855 -0.0621
  128OSM   H14S13710   1.175   6.003   7.417 -1.4713 -0.1193 -3.3276
  128OSM   H14T13711   1.240   5.841   7.434  1.5768  1.2578  1.3754
  128OSM   C15S13712   1.114   5.898   7.601 -0.0862  0.0400  0.2806
  128OSM   H15S13713   1.107   5.792   7.631  2.8924 -0.3252 -0.0870
  128OSM   H15T13714   1.015   5.946   7.616 -0.7308 -0.5223 -1.9776
  128OSM   C16S13715   1.224   5.969   7.681 -0.4240  0.5192 -0.2237
  128OSM   H16S13716   1.226   6.069   7.632 -2.4706 -0.4279 -2.3132
  128OSM   H16T13717   1.317   5.912   7.660 -1.2178 -0.5623 -0.8548
  128OSM   C17S13718   1.201   5.984   7.840  0.2418 -0.6716  0.2433
  128OSM   H17S13719   1.191   5.878   7.871  0.5804 -1.4807 -2.2928
  128OSM   H17T13720   1.101   6.031   7.850  0.8420  0.2938  1.8313
  128OSM   C18S13721   1.314   6.063   7.911 -0.1160 -0.6132  0.0637
  128OSM   H18S13722   1.327   6.168   7.877  0.4699 -0.8429 -0.4353
  128OSM   H18T13723   1.415   6.018   7.904  0.7084  0.7127  2.7991
  128OSM   H18U13724   1.296   6.069   8.020 -0.5561 -2.6809  0.1176
  128OSM    C1F13725   1.903   5.757   6.601  0.1884  0.4514 -0.6439
  128OSM     OF13726   2.006   5.820   6.571 -0.3040 -0.0518 -0.3543
  128OSM    C2F13727   1.893   5.677   6.735  0.1999 -0.1355 -0.2000
  128OSM    H2F13728   1.976   5.686   6.808  1.0967 -0.3889 -1.1778
  128OSM    H2G13729   1.888   5.571   6.702  0.8469  0.0255 -0.8437
  128OSM    C3F13730   1.755   5.712   6.810  0.6081  0.7884 -0.1677
  128OSM    H3F13731   1.675   5.666   6.747 -1.2861  0.8386  2.1382
  128OSM    H3G13732   1.735   5.821   6.816 -0.3314  0.7416 -1.9408
  128OSM    C4F13733   1.747   5.656   6.954  0.0830  0.1813  0.4804
  128OSM    H4F13734   1.834   5.687   7.015  1.0364  2.5113 -1.9915
  128OSM    H4G13735   1.734   5.545   6.952 -1.1896  0.2472  2.9391
  128OSM    C5F13736   1.632   5.715   7.036  0.2871 -0.5444  1.0798
  128OSM    H5F13737   1.545   5.732   6.970 -0.2061 -2.5679  1.1785
  128OSM    H5G13738   1.661   5.818   7.064  3.8176 -1.5719  1.5196
  128OSM    C6F13739   1.601   5.630   7.157  0.3671 -0.6499  0.7380
  128OSM    H6F13740   1.681   5.601   7.228  2.6411  0.9206 -1.1260
  128OSM    H6G13741   1.580   5.528   7.117 -1.6059  0.7250 -1.8977
  128OSM    C7F13742   1.487   5.688   7.245 -0.3559  0.0722  0.3366
  128OSM    H7F13743   1.473   5.622   7.333  3.0979  0.9350  1.5914
  128OSM    H7G13744   1.396   5.689   7.181 -0.5234 -1.0270  0.5470
  128OSM    C8F13745   1.522   5.822   7.309 -0.1171  0.1594  0.5475
  128OSM    H8F13746   1.436   5.864   7.366  0.4192 -1.4328  2.5914
  128OSM    H8G13747   1.516   5.902   7.231 -0.7237 -0.4468 -0.0339
  128OSM    C9F13748   1.655   5.822   7.377  0.4614  0.5086  0.5108
  128OSM    H9F13749   1.733   5.869   7.314 -0.9645  2.0371 -0.1731
  128OSM   C10F13750   1.688   5.816   7.508  0.0052  0.3303 -0.2283
  128OSM   H10F13751   1.795   5.831   7.527 -0.2703 -2.1350  4.1146
  128OSM   C11F13752   1.595   5.799   7.624  0.0731  0.9103  0.6643
  128OSM   H11F13753   1.501   5.746   7.600 -0.5562  2.2298  0.1179
  128OSM   H11G13754   1.569   5.902   7.657 -0.4257  1.3654 -1.0998
  128OSM   C12F13755   1.663   5.714   7.740 -0.7574 -0.6985 -0.3137
  128OSM   H12F13756   1.762   5.756   7.764 -0.5162 -1.1887 -0.4415
  128OSM   H12G13757   1.679   5.608   7.709 -3.1197 -0.9068 -0.9416
  128OSM   C13F13758   1.573   5.728   7.864 -0.0173 -0.4889 -0.1411
  128OSM   H13F13759   1.479   5.674   7.842 -1.3642  1.9428 -0.5089
  128OSM   H13G13760   1.551   5.832   7.895  1.2943 -0.4502  0.7007
  128OSM   C14F13761   1.655   5.658   7.976  0.7883  0.0898  0.5341
  128OSM   H14F13762   1.746   5.721   7.989  0.4522  0.5179  0.8426
  128OSM   H14G13763   1.682   5.557   7.939  0.7346  0.5336 -0.7314
  128OSM   C15F13764   1.577   5.641   8.113 -0.4745 -0.6138 -0.5502
  128OSM   H15F13765   1.483   5.590   8.083  0.8789 -2.4603 -1.7343
  128OSM   H15G13766   1.563   5.748   8.140  2.9275  0.1948 -1.7167
  128OSM   C16F13767   1.650   5.565   8.233 -0.0087 -0.4793 -1.0626
  128OSM   H16F13768   1.741   5.620   8.265  0.1603 -1.4403  0.1564
  128OSM   H16G13769   1.677   5.462   8.199 -0.6866 -0.4741 -1.6300
  128OSM   C17F13770   1.557   5.553   8.350 -0.0226 -0.2553 -1.3464
  128OSM   H17F13771   1.470   5.487   8.333 -2.3031  1.6419  2.1357
  128OSM   H17G13772   1.519   5.657   8.367  0.9255 -0.1740  0.4334
  128OSM   C18F13773   1.634   5.512   8.470 -0.1198  0.6563 -0.3135
  128OSM   H18F13774   1.715   5.587   8.487  0.9540 -0.5317 -0.1241
  128OSM   H18G13775   1.678   5.410   8.472 -2.2918 -0.2970  2.0306
  128OSM   H18H13776   1.586   5.513   8.570 -0.9325  3.3743 -0.6719
  129OSM      N13777   5.994   2.102   6.180  0.3838  0.0554 -0.1338
  129OSM    C1513778   5.940   2.009   6.068  0.4457  0.4380 -0.6927
  129OSM   H15A13779   5.897   2.064   5.986  1.1394  1.2637 -0.5183
  129OSM   H15B13780   5.855   1.951   6.099  1.1594 -0.3079 -0.1267
  129OSM   H15C13781   6.011   1.934   6.039 -0.3614 -0.3294 -0.6981
  129OSM    C1413782   6.094   2.185   6.114 -0.1046  0.6792 -0.4624
  129OSM   H14A13783   6.061   2.223   6.018 -1.6425  1.2402  0.2684
  129OSM   H14B13784   6.179   2.128   6.080  1.0059  1.3199  1.1959
  129OSM   H14C13785   6.127   2.270   6.173  0.4394  0.1317  0.0225
  129OSM    C1313786   5.879   2.189   6.233  0.1293 -0.0856 -0.2462
  129OSM   H13A13787   5.802   2.120   6.266 -0.1199 -0.3802 -1.3992
  129OSM   H13B13788   5.849   2.257   6.155  4.0274  2.0207 -0.0202
  129OSM   H13C13789   5.914   2.245   6.318 -1.5276  0.1879  0.2707
  129OSM    C1213790   6.051   2.025   6.295  0.6686 -0.2037  0.9053
  129OSM   H12A13791   6.098   2.091   6.367  1.0356 -1.9923  2.3401
  129OSM   H12B13792   6.145   1.982   6.263 -1.1338 -1.7208 -2.4918
  129OSM    C1113793   5.978   1.931   6.380  0.4179  0.2283 -0.2285
  129OSM   H11A13794   5.883   1.975   6.416  0.2092 -0.3226 -0.1044
  129OSM   H11B13795   6.025   1.912   6.479  0.4450 -0.3847 -0.3555
  129OSM      P13796   6.008   1.695   6.293 -0.2545 -0.3105  0.1175
  129OSM    O1313797   5.926   1.585   6.245 -0.1937  0.3471 -0.3610
  129OSM    O1413798   6.130   1.721   6.213  1.2027 -0.1255 -0.2462
  129OSM    O1113799   6.048   1.672   6.444 -0.2151 -0.1046  0.9995
  129OSM    O1213800   5.921   1.821   6.315  0.6156  0.7750 -0.8836
  129OSM    C1S13801   6.090   1.529   6.468 -0.1721  0.4941  0.3612
  129OSM    H1S13802   6.191   1.505   6.426 -2.0833 -2.8965 -2.5677
  129OSM    H1T13803   6.029   1.449   6.421  2.5481  0.2369 -2.9354
  129OSM     NF13804   6.112   1.331   6.620  0.0069 -1.1184  0.7934
  129OSM    HNF13805   6.032   1.279   6.650  0.5219 -2.5921 -0.3781
  129OSM    C2S13806   6.109   1.478   6.613  0.0171 -0.8737  0.0614
  129OSM    H2S13807   6.205   1.521   6.650  1.2083 -3.3247 -0.0995
  129OSM    C3S13808   5.991   1.542   6.703 -0.2567  0.2622 -0.5146
  129OSM    H3S13809   5.895   1.500   6.665 -1.1550  1.1007  0.7375
  129OSM     O313810   5.963   1.685   6.685  0.6100 -0.1774  0.5006
  129OSM    HO313811   6.001   1.692   6.597 -0.1233 -1.3128  0.0873
  129OSM    C4S13812   6.008   1.503   6.849  0.3042  0.6730  0.2914
  129OSM    H4S13813   5.961   1.406   6.870  0.8137  0.4445  0.3616
  129OSM    C5S13814   6.075   1.570   6.939 -0.1887  0.4330 -0.7730
  129OSM    H5S13815   6.126   1.661   6.906 -2.5872  2.0797 -0.0816
  129OSM    C6S13816   6.086   1.525   7.083 -0.3459 -0.4232 -0.2913
  129OSM    H6S13817   6.005   1.571   7.143  2.3149  3.0136  0.8154
  129OSM    H6T13818   6.183   1.562   7.124  0.2951 -0.1878 -1.9821
  129OSM    C7S13819   6.072   1.374   7.112 -0.3406  0.4552 -0.1900
  129OSM    H7S13820   6.171   1.337   7.079  0.1086 -1.0901  2.7466
  129OSM    H7T13821   5.992   1.325   7.052  0.5154 -1.5663  0.2929
  129OSM    C8S13822   6.045   1.320   7.254  0.1866 -0.3760  0.5999
  129OSM    H8S13823   6.025   1.211   7.244 -1.6951  0.0961 -1.1754
  129OSM    H8T13824   5.956   1.378   7.284  0.2393 -0.5821  1.1505
  129OSM    C9S13825   6.158   1.350   7.352  0.4014 -0.0072  0.4905
  129OSM    H9S13826   6.180   1.459   7.357  1.4611 -0.2430  1.0711
  129OSM    H9T13827   6.245   1.297   7.307 -0.9001 -0.6405 -1.3403
  129OSM   C10S13828   6.127   1.318   7.501 -0.7604  0.1064 -0.1689
  129OSM   H10S13829   6.110   1.210   7.516  0.0211  0.0457  0.3588
  129OSM   H10T13830   6.039   1.370   7.545 -0.2591 -1.0526  2.3119
  129OSM   C11S13831   6.248   1.352   7.587  0.0196  0.8409  0.2843
  129OSM   H11S13832   6.282   1.456   7.569  3.0963 -0.1379  0.1863
  129OSM   H11T13833   6.336   1.293   7.554  0.0140 -0.1142  1.9074
  129OSM   C12S13834   6.234   1.324   7.741 -0.4778 -0.0245 -0.7902
  129OSM   H12S13835   6.154   1.247   7.749  0.3044 -1.0559 -2.5127
  129OSM   H12T13836   6.200   1.414   7.797  0.3243  0.6505 -1.3748
  129OSM   C13S13837   6.364   1.275   7.804  0.6547 -0.0568 -0.2175
  129OSM   H13S13838   6.441   1.355   7.805  2.1742 -1.5068  1.2288
  129OSM   H13T13839   6.400   1.195   7.735  2.9387 -0.5697  1.5012
  129OSM   C14S13840   6.350   1.217   7.947 -0.8748 -0.3765 -0.0804
  129OSM   H14S13841   6.308   1.115   7.952 -1.4899 -0.2244 -1.7942
  129OSM   H14T13842   6.295   1.290   8.011 -1.4491 -0.8039 -0.0801
  129OSM   C15S13843   6.494   1.214   8.012 -0.3213 -0.3114 -0.4357
  129OSM   H15S13844   6.483   1.209   8.123  1.8194 -1.9912 -0.2653
  129OSM   H15T13845   6.543   1.306   7.976 -0.3831 -0.6621 -1.4305
  129OSM   C16S13846   6.562   1.082   7.986  0.4858 -0.6499 -0.5319
  129OSM   H16S13847   6.557   1.047   7.881 -1.5691 -0.7659 -0.4195
  129OSM   H16T13848   6.506   1.001   8.038  2.7640 -1.7713  0.2189
  129OSM   C17S13849   6.705   1.073   8.034 -0.0109 -0.1656  0.4118
  129OSM   H17S13850   6.754   1.164   7.994  0.0687 -0.5067 -0.2771
  129OSM   H17T13851   6.751   0.988   7.979  1.5159  1.4591 -0.8923
  129OSM   C18S13852   6.733   1.059   8.180  0.5134  0.4180 -0.0185
  129OSM   H18S13853   6.840   1.065   8.207  0.8298 -0.0315 -1.1680
  129OSM   H18T13854   6.695   0.957   8.201  0.2651  0.0642 -2.0748
  129OSM   H18U13855   6.676   1.136   8.238  0.0528 -0.3011  0.4892
  129OSM    C1F13856   6.216   1.273   6.576 -0.7297 -0.8326  0.0887
  129OSM     OF13857   6.320   1.334   6.555  0.1653 -0.6076  0.4318
  129OSM    C2F13858   6.205   1.129   6.537 -0.0177  0.0322 -0.3096
  129OSM    H2F13859   6.223   1.114   6.428  2.5197 -0.0631  0.0956
  129OSM    H2G13860   6.105   1.088   6.563  0.7155 -3.1894 -2.3080
  129OSM    C3F13861   6.313   1.036   6.600 -0.5086 -0.1568  0.2910
  129OSM    H3F13862   6.414   1.075   6.576 -1.3933  0.3820 -2.7345
  129OSM    H3G13863   6.294   0.940   6.547 -0.0734 -0.1740  0.1653
  129OSM    C4F13864   6.316   1.005   6.750  0.4705 -0.1512  0.4661
  129OSM    H4F13865   6.364   1.082   6.814  0.6475  1.2667 -1.3050
  129OSM    H4G13866   6.380   0.915   6.759 -0.2047 -0.6458  0.3909
  129OSM    C5F13867   6.179   0.961   6.799  0.6701  0.4022 -0.0968
  129OSM    H5F13868   6.163   0.859   6.758 -0.2408 -0.1920  1.6924
  129OSM    H5G13869   6.095   1.021   6.760  2.1054  1.2815 -1.9544
  129OSM    C6F13870   6.182   0.949   6.949 -0.1961  0.0860  0.9345
  129OSM    H6F13871   6.099   0.886   6.989  0.4973 -0.5270  1.4066
  129OSM    H6G13872   6.164   1.050   6.992 -1.2160 -0.1036  0.9708
  129OSM    C7F13873   6.309   0.881   7.007 -0.2533 -0.1194 -0.4763
  129OSM    H7F13874   6.395   0.943   6.975  0.6081 -2.6806 -3.3218
  129OSM    H7G13875   6.322   0.792   6.943 -0.9519 -0.1660 -0.5590
  129OSM    C8F13876   6.301   0.842   7.152 -0.8908  0.3253  0.0764
  129OSM    H8F13877   6.390   0.795   7.200 -3.3423 -1.2370  3.2843
  129OSM    H8G13878   6.230   0.759   7.171 -0.7266  0.2316  0.2900
  129OSM    C9F13879   6.254   0.961   7.242  0.3550 -0.0793  0.2498
  129OSM    H9F13880   6.176   1.021   7.192  1.9716  0.3827 -1.7934
  129OSM   C10F13881   6.302   1.002   7.364 -0.3554 -0.0164  0.3064
  129OSM   H10F13882   6.252   1.077   7.427 -0.8344  0.7877 -1.0046
  129OSM   C11F13883   6.416   0.939   7.445  0.5077 -0.6602 -0.0729
  129OSM   H11F13884   6.484   1.021   7.475  0.5471 -0.2031 -1.3730
  129OSM   H11G13885   6.472   0.860   7.391  0.9227 -1.4195  1.4574
  129OSM   C12F13886   6.374   0.878   7.578  0.3006  1.0577  0.1709
  129OSM   H12F13887   6.325   0.783   7.548  1.9380  0.8544 -2.0105
  129OSM   H12G13888   6.305   0.948   7.630 -1.9382 -1.2074  0.3075
  129OSM   C13F13889   6.490   0.833   7.666 -0.3942 -0.1192 -0.5475
  129OSM   H13F13890   6.554   0.923   7.677  0.1228 -0.3409 -1.6612
  129OSM   H13G13891   6.543   0.758   7.604 -0.6382 -0.1037 -0.7775
  129OSM   C14F13892   6.469   0.782   7.804 -0.3834  0.2703 -0.2001
  129OSM   H14F13893   6.417   0.684   7.818  2.7986 -1.4750 -0.1105
  129OSM   H14G13894   6.428   0.862   7.869 -0.6022 -1.0390  1.3106
  129OSM   C15F13895   6.607   0.747   7.863  0.1448  0.2545 -0.1325
  129OSM   H15F13896   6.664   0.843   7.857 -0.8530  0.9195  0.7544
  129OSM   H15G13897   6.647   0.668   7.796 -1.9658 -1.0447  0.0954
  129OSM   C16F13898   6.612   0.705   8.013  0.1232  0.2442  0.2500
  129OSM   H16F13899   6.520   0.643   8.025 -1.0064  1.9326  0.5547
  129OSM   H16G13900   6.601   0.787   8.087 -1.6480 -0.3274  0.6593
  129OSM   C17F13901   6.736   0.615   8.049 -0.0448  0.2757  0.2965
  129OSM   H17F13902   6.831   0.672   8.043  0.9316 -1.0144  2.9221
  129OSM   H17G13903   6.749   0.528   7.981 -0.0273 -1.5585  2.5800
  129OSM   C18F13904   6.721   0.547   8.186 -0.5243 -0.3153  0.4271
  129OSM   H18F13905   6.787   0.583   8.268  0.5288  0.5407 -0.7710
  129OSM   H18G13906   6.768   0.447   8.180  1.6983  0.8197 -2.8490
  129OSM   H18H13907   6.615   0.543   8.218 -0.3006  0.1944  1.2283
  130OSM      N13908   6.667   5.393   6.002  0.1979 -0.7524  0.5094
  130OSM    C1513909   6.613   5.384   6.145 -0.4824 -0.2225  0.0801
  130OSM   H15A13910   6.681   5.333   6.212 -1.2786 -0.7841  0.4682
  130OSM   H15B13911   6.531   5.315   6.134 -0.6462 -0.0592  0.2727
  130OSM   H15C13912   6.580   5.481   6.179  0.5019 -0.9339  3.1903
  130OSM    C1413913   6.701   5.259   5.965  0.4850  0.2767  0.2450
  130OSM   H14A13914   6.750   5.252   5.870  0.4267  0.3225  0.2112
  130OSM   H14B13915   6.618   5.190   5.956  2.0333 -1.7805  1.2013
  130OSM   H14C13916   6.766   5.220   6.042  0.3487  2.0919  1.3035
  130OSM    C1313917   6.566   5.453   5.912  0.0738 -0.0381  0.1408
  130OSM   H13A13918   6.554   5.553   5.950 -2.2073 -0.1887 -0.1173
  130OSM   H13B13919   6.472   5.399   5.922  0.7392 -1.2783 -0.2253
  130OSM   H13C13920   6.598   5.457   5.810  1.4504  1.0735  0.6161
  130OSM    C1213921   6.787   5.482   6.000  0.3385 -0.3125  0.2382
  130OSM   H12A13922   6.829   5.489   5.900 -0.9846  0.2589 -0.2899
  130OSM   H12B13923   6.857   5.433   6.066 -0.7935 -1.6875  0.4421
  130OSM    C1113924   6.777   5.625   6.057 -0.1638 -0.6548 -0.6392
  130OSM   H11A13925   6.680   5.673   6.036  0.7659  2.0027  0.9466
  130OSM   H11B13926   6.840   5.704   6.012  0.3398 -0.1419  0.9226
  130OSM      P13927   6.931   5.650   6.259 -0.0379 -0.5714  0.2574
  130OSM    O1313928   7.031   5.580   6.173  0.3346  0.1916 -0.1490
  130OSM    O1413929   6.934   5.799   6.275 -0.1040 -0.0912  0.0575
  130OSM    O1113930   6.932   5.582   6.403  0.2327  0.3867 -0.1496
  130OSM    O1213931   6.787   5.618   6.195  0.1007  0.4116  0.2258
  130OSM    C1S13932   6.813   5.590   6.479  0.5301  0.1825 -0.2976
  130OSM    H1S13933   6.757   5.499   6.452  1.8495  0.0006 -2.5845
  130OSM    H1T13934   6.744   5.674   6.455 -0.2498 -0.2854  0.3262
  130OSM     NF13935   6.704   5.571   6.697 -1.2270  0.1426  0.1793
  130OSM    HNF13936   6.664   5.658   6.726 -0.9738 -0.4235  2.2936
  130OSM    C2S13937   6.834   5.590   6.631  0.0912  0.3690 -0.2059
  130OSM    H2S13938   6.901   5.505   6.656  1.4214  1.2654 -0.6950
  130OSM    C3S13939   6.916   5.711   6.676  0.2268 -0.0875 -0.3206
  130OSM    H3S13940   6.850   5.800   6.662 -0.7949 -0.4885  1.7077
  130OSM     O313941   7.040   5.745   6.601  0.1544 -0.1238  0.2784
  130OSM    HO313942   7.021   5.699   6.518 -1.5817  0.9759  0.0526
  130OSM    C4S13943   6.948   5.702   6.819 -0.1776 -0.5883 -0.3501
  130OSM    H4S13944   7.010   5.621   6.860  1.7215  0.5987 -0.7984
  130OSM    C5S13945   6.902   5.791   6.911  0.0794  0.0381  0.3455
  130OSM    H5S13946   6.840   5.876   6.879 -1.3112 -0.8102  0.7490
  130OSM    C6S13947   6.942   5.788   7.056  0.4505 -0.1282 -0.8891
  130OSM    H6S13948   6.882   5.861   7.113  0.6224 -0.6182 -0.0658
  130OSM    H6T13949   7.050   5.812   7.069  0.1613 -0.0042  1.5738
  130OSM    C7S13950   6.899   5.654   7.132 -0.1684  0.0275 -0.3528
  130OSM    H7S13951   6.939   5.571   7.069  0.6477 -0.8470  1.2880
  130OSM    H7T13952   6.788   5.652   7.130 -0.1664 -1.5854  0.3464
  130OSM    C8S13953   6.944   5.647   7.272  0.6875 -0.6815  0.5728
  130OSM    H8S13954   6.999   5.739   7.299  1.5847 -1.4577  1.4539
  130OSM    H8T13955   7.021   5.568   7.289  0.7690 -0.6522  0.3498
  130OSM    C9S13956   6.833   5.629   7.374  0.0996  0.3225  0.7963
  130OSM    H9S13957   6.761   5.552   7.339 -0.1740  0.9983 -0.1387
  130OSM    H9T13958   6.769   5.719   7.362  0.3818  0.5868  1.3098
  130OSM   C10S13959   6.875   5.584   7.514 -0.3482  0.5678  0.2307
  130OSM   H10S13960   6.938   5.663   7.560 -0.9145 -0.4385  2.8659
  130OSM   H10T13961   6.947   5.500   7.505 -0.7876  0.2763 -0.6627
  130OSM   C11S13962   6.757   5.551   7.612 -0.3041  0.0344 -0.3474
  130OSM   H11S13963   6.697   5.460   7.592  3.3215 -2.9037  1.5445
  130OSM   H11T13964   6.683   5.634   7.609 -1.9910 -1.3159  2.0902
  130OSM   C12S13965   6.796   5.526   7.760  0.4399  0.0623 -0.2181
  130OSM   H12S13966   6.894   5.576   7.771  0.3264  0.3686 -0.5891
  130OSM   H12T13967   6.822   5.418   7.769  0.6146  0.2644  1.8955
  130OSM   C13S13968   6.689   5.560   7.865  0.2272  0.0161  0.1145
  130OSM   H13S13969   6.702   5.488   7.949 -2.9224 -1.0371 -0.2345
  130OSM   H13T13970   6.587   5.556   7.822 -0.9142  2.0872  2.4943
  130OSM   C14S13971   6.693   5.707   7.915  0.6394 -0.0571 -0.5141
  130OSM   H14S13972   6.691   5.778   7.830 -2.8044  1.1826  0.5135
  130OSM   H14T13973   6.789   5.726   7.967  0.7496 -0.2675 -0.6421
  130OSM   C15S13974   6.571   5.746   8.003  0.4120  0.1078 -0.4875
  130OSM   H15S13975   6.472   5.715   7.964  0.2809 -0.5215  0.3056
  130OSM   H15T13976   6.572   5.856   8.020  0.7680  0.0822 -0.3444
  130OSM   C16S13977   6.568   5.669   8.141  0.3341 -0.2755  0.4673
  130OSM   H16S13978   6.670   5.677   8.182  0.8798 -4.4121  0.1072
  130OSM   H16T13979   6.547   5.561   8.127  0.4950 -0.1146 -1.0568
  130OSM   C17S13980   6.463   5.726   8.241  0.6272 -0.5593  0.1415
  130OSM   H17S13981   6.365   5.728   8.190 -0.1764  2.2781  1.7010
  130OSM   H17T13982   6.493   5.831   8.262  2.5821 -1.1136  0.2077
  130OSM   C18S13983   6.459   5.664   8.375  0.8849  0.4317 -1.0683
  130OSM   H18S13984   6.451   5.553   8.368 -1.8569  0.3774  1.6625
  130OSM   H18T13985   6.367   5.705   8.422  1.4014  1.6327 -1.1013
  130OSM   H18U13986   6.550   5.695   8.430  0.0067 -0.4627  0.9539
  130OSM    C1F13987   6.628   5.464   6.691 -0.1216  0.3296 -0.3437
  130OSM     OF13988   6.682   5.362   6.640 -0.4775  0.6863  0.0368
  130OSM    C2F13989   6.494   5.468   6.752 -0.5308 -0.2403  0.1219
  130OSM    H2F13990   6.434   5.539   6.690 -2.2517 -1.9711 -0.2464
  130OSM    H2G13991   6.503   5.495   6.859 -1.6196  0.2047  0.1122
  130OSM    C3F13992   6.406   5.346   6.743  0.2694 -0.2406 -0.2704
  130OSM    H3F13993   6.465   5.252   6.744  0.2499 -0.2466  0.3112
  130OSM    H3G13994   6.359   5.347   6.642  0.7303 -0.3570 -0.4884
  130OSM    C4F13995   6.296   5.351   6.850 -0.2706 -0.2624 -0.0654
  130OSM    H4F13996   6.203   5.296   6.821  0.2485 -0.8990 -0.5400
  130OSM    H4G13997   6.263   5.456   6.862 -0.3721 -0.3569  0.5010
  130OSM    C5F13998   6.358   5.317   6.986  0.4099 -0.3315 -0.3427
  130OSM    H5F13999   6.448   5.378   7.009  0.4441 -1.2232  1.9972
  130OSM    H5G14000   6.394   5.212   6.987  1.0922 -0.0985 -0.2546
  130OSM    C6F14001   6.253   5.323   7.100  1.1602 -0.4668 -0.1141
  130OSM    H6F14002   6.159   5.279   7.060 -0.0352 -0.4062  2.4990
  130OSM    H6G14003   6.233   5.431   7.119 -0.9182 -1.0005  0.8568
  130OSM    C7F14004   6.299   5.269   7.233 -0.2506  0.5529  0.0726
  130OSM    H7F14005   6.392   5.325   7.255 -0.1899  0.7282 -0.6391
  130OSM    H7G14006   6.321   5.162   7.214  3.1646  1.6146 -2.3702
  130OSM    C8F14007   6.182   5.279   7.329  0.5037  0.0597  0.0971
  130OSM    H8F14008   6.197   5.209   7.414  0.7284 -1.6506 -1.2984
  130OSM    H8G14009   6.100   5.238   7.265  0.2054 -0.9573  1.1215
  130OSM    C9F14010   6.158   5.413   7.395 -0.7744 -0.1226 -0.0009
  130OSM    H9F14011   6.251   5.454   7.436 -0.6777  1.7107 -1.9117
  130OSM   C10F14012   6.045   5.475   7.412 -0.3494 -0.4318  0.3542
  130OSM   H10F14013   6.041   5.572   7.463  2.1728  0.0522 -0.3136
  130OSM   C11F14014   5.911   5.416   7.364  0.6434  0.2710 -0.4459
  130OSM   H11F14015   5.930   5.367   7.266  3.4481 -0.6889  0.5145
  130OSM   H11G14016   5.834   5.496   7.356 -1.3701 -1.5511  0.0438
  130OSM   C12F14017   5.863   5.312   7.464  0.5849 -0.5884  0.3106
  130OSM   H12F14018   5.938   5.232   7.483 -0.9053 -1.6861  1.7302
  130OSM   H12G14019   5.780   5.248   7.427 -0.5542  0.5983  0.7859
  130OSM   C13F14020   5.830   5.377   7.599  0.2198  0.7126 -0.3375
  130OSM   H13F14021   5.772   5.467   7.573 -2.7599 -0.6661  1.2461
  130OSM   H13G14022   5.923   5.407   7.652 -1.3406 -0.5672  3.2673
  130OSM   C14F14023   5.757   5.281   7.701  0.9743 -0.2719 -0.0383
  130OSM   H14F14024   5.819   5.189   7.691  0.9851 -0.4275  1.3791
  130OSM   H14G14025   5.649   5.268   7.679  1.0688 -0.7430 -0.2117
  130OSM   C15F14026   5.761   5.341   7.843  0.5572 -0.2076  0.0292
  130OSM   H15F14027   5.700   5.434   7.836  0.9695 -0.0031 -0.9800
  130OSM   H15G14028   5.865   5.368   7.871  0.4315  1.6678 -1.2009
  130OSM   C16F14029   5.706   5.258   7.958 -0.7277  0.1101  0.0743
  130OSM   H16F14030   5.721   5.313   8.054  1.3593 -0.2157 -0.0547
  130OSM   H16G14031   5.778   5.175   7.970  0.0721  0.9865  1.5453
  130OSM   C17F14032   5.560   5.214   7.941 -0.1716 -1.0050  0.2596
  130OSM   H17F14033   5.565   5.146   7.854 -1.3776  2.2541 -2.4637
  130OSM   H17G14034   5.505   5.310   7.930  2.2944  0.3662 -0.3096
  130OSM   C18F14035   5.511   5.137   8.060  0.9260  0.2723  0.2656
  130OSM   H18F14036   5.408   5.096   8.048  0.3525  2.2768 -2.0999
  130OSM   H18G14037   5.512   5.194   8.155 -0.0763 -1.8748  1.6059
  130OSM   H18H14038   5.586   5.055   8.062 -1.8255 -2.3826 -0.5764
  131OSM      N14039   0.462   1.899   6.225 -0.1829 -0.2364 -0.3518
  131OSM    C1514040   0.443   2.008   6.132 -0.5099 -0.0205 -0.4131
  131OSM   H15A14041   0.347   1.973   6.096 -1.3264  1.1488  0.5789
  131OSM   H15B14042   0.519   2.013   6.056  0.7100 -1.1492  0.6990
  131OSM   H15C14043   0.431   2.105   6.177  0.4901 -0.1476  0.1469
  131OSM    C1414044   0.454   1.775   6.146 -0.5773 -1.4824 -0.0862
  131OSM   H14A14045   0.367   1.770   6.081 -1.8883  0.0203  1.5102
  131OSM   H14B14046   0.456   1.684   6.204  0.1129  0.2391  2.6781
  131OSM   H14C14047   0.536   1.777   6.076  0.9736  0.5138  1.7037
  131OSM    C1314048   0.600   1.904   6.286  0.1923  0.0913  0.3239
  131OSM   H13A14049   0.611   1.834   6.368 -1.3039  0.3149  0.7291
  131OSM   H13B14050   0.602   2.005   6.325  2.9311 -0.2598  1.2360
  131OSM   H13C14051   0.678   1.883   6.214 -1.1176  0.7472 -1.3162
  131OSM    C1214052   0.352   1.894   6.323  0.1708 -0.4167  0.3507
  131OSM   H12A14053   0.364   1.812   6.391 -1.8904 -1.6566 -0.7271
  131OSM   H12B14054   0.255   1.886   6.276 -0.5256 -0.2999  1.7502
  131OSM    C1114055   0.336   2.020   6.420  0.0334 -0.1208  0.2865
  131OSM   H11A14056   0.437   2.034   6.464  0.2013  0.5544 -0.3012
  131OSM   H11B14057   0.271   1.985   6.503 -0.2550 -0.1938  0.0313
  131OSM      P14058   0.166   2.191   6.309  0.1442 -0.3396  0.1179
  131OSM    O1314059   0.174   2.223   6.169  0.2410  0.0048 -0.0930
  131OSM    O1414060   0.069   2.084   6.347 -0.5148  0.3792  0.4350
  131OSM    O1114061   0.133   2.320   6.390  0.1265 -0.2446  0.5238
  131OSM    O1214062   0.308   2.136   6.352 -0.3109 -0.2081 -0.2968
  131OSM    C1S14063   0.183   2.345   6.522 -0.6439 -0.2236 -0.5691
  131OSM    H1S14064   0.294   2.351   6.530 -0.4537 -0.1454 -2.9875
  131OSM    H1T14065   0.147   2.269   6.594 -0.5533 -1.9400 -2.3175
  131OSM     NF14066   0.189   2.501   6.707 -0.6651 -0.6650  0.0161
  131OSM    HNF14067   0.130   2.470   6.781  2.0338  0.5167  2.7789
  131OSM    C2S14068   0.133   2.487   6.575 -0.4464 -0.1988  0.4353
  131OSM    H2S14069   0.172   2.566   6.507 -0.8232 -0.6043 -0.2605
  131OSM    C3S14070  -0.023   2.489   6.560 -0.1997  1.0668 -0.3578
  131OSM    H3S14071  -0.069   2.409   6.621  0.2708  1.2733  0.2736
  131OSM     O314072  -0.066   2.483   6.425  0.5401 -0.4324 -0.6070
  131OSM    HO314073  -0.016   2.413   6.382 -0.6046 -1.7047  0.0916
  131OSM    C4S14074  -0.065   2.623   6.609  0.4032  0.1622 -0.3216
  131OSM    H4S14075  -0.027   2.710   6.553  0.5780  0.8085  0.7931
  131OSM    C5S14076  -0.129   2.648   6.725  0.4888  0.1786 -0.4259
  131OSM    H5S14077  -0.161   2.554   6.773  2.6307 -1.2681 -1.7369
  131OSM    C6S14078  -0.164   2.779   6.777  0.1705  0.7298  0.0274
  131OSM    H6S14079  -0.274   2.790   6.787 -0.1654 -0.9207 -1.5241
  131OSM    H6T14080  -0.122   2.863   6.718  1.8387  1.2757  1.9423
  131OSM    C7S14081  -0.105   2.799   6.918  0.9271 -0.7802  0.2252
  131OSM    H7S14082  -0.125   2.899   6.962 -1.3994 -1.4494  0.7368
  131OSM    H7T14083   0.005   2.792   6.904  0.9713  1.2383 -0.5980
  131OSM    C8S14084  -0.143   2.697   7.028  0.0958  0.1218  0.4702
  131OSM    H8S14085  -0.100   2.599   7.002  2.3175  0.9396  0.9602
  131OSM    H8T14086  -0.253   2.684   7.032  0.1421 -0.3998  0.0809
  131OSM    C9S14087  -0.091   2.730   7.165 -0.4339 -0.9328  0.3913
  131OSM    H9S14088  -0.144   2.821   7.199 -2.3394 -1.6015 -0.7259
  131OSM    H9T14089   0.019   2.744   7.159 -0.5742  0.2512  0.4407
  131OSM   C10S14090  -0.109   2.616   7.266 -0.1050 -0.6706  0.2249
  131OSM   H10S14091  -0.072   2.643   7.368  1.2138 -0.6795 -0.2349
  131OSM   H10T14092  -0.035   2.539   7.236 -0.3177 -0.7782 -0.0219
  131OSM   C11S14093  -0.251   2.554   7.260 -0.6752 -0.0863 -0.6123
  131OSM   H11S14094  -0.259   2.479   7.341 -1.3173  0.0636 -0.5299
  131OSM   H11T14095  -0.273   2.506   7.162 -0.2555  0.4244 -0.9583
  131OSM   C12S14096  -0.357   2.657   7.306  0.2459 -0.3806 -0.0962
  131OSM   H12S14097  -0.457   2.608   7.300 -0.8786  1.8195 -0.0161
  131OSM   H12T14098  -0.361   2.737   7.229  1.5170 -0.2739 -0.0625
  131OSM   C13S14099  -0.355   2.704   7.450 -0.6119  1.2083  0.5357
  131OSM   H13S14100  -0.440   2.773   7.471 -2.3360 -0.9458  0.9238
  131OSM   H13T14101  -0.264   2.760   7.477 -1.0045  1.6586  0.9384
  131OSM   C14S14102  -0.373   2.584   7.552  0.5748 -0.8142  0.1510
  131OSM   H14S14103  -0.277   2.529   7.546  1.7650  1.2086  0.4615
  131OSM   H14T14104  -0.457   2.514   7.531 -0.3006  0.2564  0.0466
  131OSM   C15S14105  -0.394   2.634   7.690  0.0523  0.0583 -0.3001
  131OSM   H15S14106  -0.494   2.681   7.701  0.5697  1.1756 -0.3236
  131OSM   H15T14107  -0.322   2.712   7.721 -0.9138  0.7592  0.1807
  131OSM   C16S14108  -0.389   2.515   7.796 -0.6421  0.0492 -0.2219
  131OSM   H16S14109  -0.288   2.469   7.810 -1.6394 -0.9848  4.2740
  131OSM   H16T14110  -0.472   2.443   7.778  0.2651 -0.7159 -1.4504
  131OSM   C17S14111  -0.419   2.581   7.932 -0.3365 -0.5300 -0.5398
  131OSM   H17S14112  -0.522   2.620   7.946  0.0843 -0.3026  2.2026
  131OSM   H17T14113  -0.343   2.663   7.933 -0.0112 -0.8216  0.9603
  131OSM   C18S14114  -0.382   2.481   8.044  0.0956  0.6926  0.1878
  131OSM   H18S14115  -0.361   2.523   8.145  1.2944  1.8450 -0.5241
  131OSM   H18T14116  -0.281   2.441   8.020 -2.0083 -2.6179 -3.6937
  131OSM   H18U14117  -0.448   2.393   8.055  1.9679 -0.5551  1.8503
  131OSM    C1F14118   0.315   2.540   6.726  0.7878  0.0601  0.5425
  131OSM     OF14119   0.395   2.557   6.637 -0.2319 -0.3639  0.2482
  131OSM    C2F14120   0.367   2.551   6.871 -1.0337  0.3462  0.7411
  131OSM    H2F14121   0.477   2.563   6.863 -1.0962  1.0442  0.8668
  131OSM    H2G14122   0.340   2.454   6.918  1.3492 -0.6026  0.2038
  131OSM    C3F14123   0.293   2.668   6.951 -0.1998 -0.7660 -0.6923
  131OSM    H3F14124   0.189   2.638   6.979 -0.5059 -1.9991 -3.0663
  131OSM    H3G14125   0.288   2.755   6.882  0.0523 -0.4574 -0.3214
  131OSM    C4F14126   0.345   2.671   7.095  0.4315  0.7965  0.0253
  131OSM    H4F14127   0.303   2.752   7.158  0.5629  1.9993 -1.3991
  131OSM    H4G14128   0.453   2.697   7.089  0.4798  0.2629 -1.4481
  131OSM    C5F14129   0.337   2.538   7.174  0.3332  0.2413  0.4664
  131OSM    H5F14130   0.414   2.470   7.132 -1.6228 -1.3196 -0.6870
  131OSM    H5G14131   0.235   2.495   7.169  0.2561  0.2971  1.3717
  131OSM    C6F14132   0.368   2.553   7.322 -0.2609 -0.4107  0.6441
  131OSM    H6F14133   0.300   2.631   7.362  0.2934  0.3555  0.1096
  131OSM    H6G14134   0.472   2.592   7.326 -0.4173  0.0072  0.6469
  131OSM    C7F14135   0.351   2.425   7.401  0.3400 -0.6654  0.4589
  131OSM    H7F14136   0.409   2.344   7.351 -1.3693 -2.6441  1.6047
  131OSM    H7G14137   0.244   2.401   7.418  0.0952 -0.5556 -0.8910
  131OSM    C8F14138   0.405   2.440   7.545  0.3346 -0.2322 -0.0604
  131OSM    H8F14139   0.514   2.462   7.543  0.8143 -2.5983 -0.8301
  131OSM    H8G14140   0.382   2.351   7.607  0.8496 -0.1257  0.2879
  131OSM    C9F14141   0.339   2.562   7.606  0.1798 -0.0351  0.2051
  131OSM    H9F14142   0.400   2.649   7.578 -1.6162  1.1705 -0.1059
  131OSM   C10F14143   0.230   2.583   7.681 -0.2646  0.5097  0.3275
  131OSM   H10F14144   0.214   2.682   7.725  0.6807  1.1248 -0.6707
  131OSM   C11F14145   0.128   2.475   7.718  0.4087 -0.5735 -0.6268
  131OSM   H11F14146   0.173   2.378   7.689  2.3270 -0.1961  0.9652
  131OSM   H11G14147   0.036   2.493   7.659  0.7359  0.2245 -0.9013
  131OSM   C12F14148   0.090   2.453   7.862 -0.4691  0.1453  0.3005
  131OSM   H12F14149   0.005   2.381   7.863 -1.2623  1.0802  0.4471
  131OSM   H12G14150   0.042   2.542   7.908 -0.3961 -0.1120  0.8887
  131OSM   C13F14151   0.212   2.416   7.951 -0.3375  0.4535  0.5281
  131OSM   H13F14152   0.291   2.494   7.957 -0.8145  0.8359  2.0559
  131OSM   H13G14153   0.248   2.323   7.903  1.1393  1.2765  0.0338
  131OSM   C14F14154   0.174   2.370   8.095  0.3137 -0.8888 -0.4795
  131OSM   H14F14155   0.265   2.315   8.127  1.5113  0.3451 -1.6592
  131OSM   H14G14156   0.079   2.314   8.101  0.3831 -1.0160 -0.5666
  131OSM   C15F14157   0.146   2.480   8.205  0.1050  0.0241  0.2406
  131OSM   H15F14158   0.044   2.517   8.181  0.2618  0.0548 -0.4000
  131OSM   H15G14159   0.231   2.551   8.191  0.5368 -0.2327  1.4835
  131OSM   C16F14160   0.139   2.422   8.351  0.2744 -0.2808 -0.9704
  131OSM   H16F14161   0.141   2.312   8.335  0.9274 -0.2655 -0.9877
  131OSM   H16G14162   0.046   2.461   8.397 -0.8248 -1.1891 -2.3609
  131OSM   C17F14163   0.257   2.461   8.439  0.2578  0.0588  0.6198
  131OSM   H17F14164   0.244   2.569   8.464  1.1916  0.0390  1.2200
  131OSM   H17G14165   0.352   2.437   8.387  0.6362 -0.8856  1.7067
  131OSM   C18F14166   0.270   2.387   8.576  0.1827 -0.1325 -0.7983
  131OSM   H18F14167   0.210   2.452   8.644 -0.7159 -2.0533  0.3040
  131OSM   H18G14168   0.375   2.380   8.610  0.3747 -1.5832 -1.6715
  131OSM   H18H14169   0.221   2.289   8.557 -3.5327  1.5496 -0.4339
  132OSM      N14170   2.526   0.430   6.266  0.7040 -0.2956  0.6116
  132OSM    C1514171   2.546   0.306   6.196  0.2966 -0.3188 -0.6490
  132OSM   H15A14172   2.485   0.299   6.107 -2.6389 -0.0873  1.2756
  132OSM   H15B14173   2.523   0.222   6.259  0.5241  1.2771  1.6187
  132OSM   H15C14174   2.646   0.307   6.155  1.0000  0.4656  1.0478
  132OSM    C1414175   2.586   0.422   6.405 -0.2898  0.2050 -0.2761
  132OSM   H14A14176   2.569   0.516   6.454 -2.4041  0.8049 -2.0918
  132OSM   H14B14177   2.691   0.423   6.380 -0.2416 -2.6593 -0.3654
  132OSM   H14C14178   2.558   0.332   6.458 -2.2102 -1.2809 -3.6374
  132OSM    C1314179   2.587   0.543   6.200  0.3179 -0.3534  0.1782
  132OSM   H13A14180   2.687   0.574   6.227  0.2518  1.2386 -1.3699
  132OSM   H13B14181   2.528   0.631   6.220  0.9010  0.2969 -0.9276
  132OSM   H13C14182   2.584   0.534   6.093  0.9305  2.3998 -0.1218
  132OSM    C1214183   2.376   0.451   6.285  1.0084 -0.1781  0.6700
  132OSM   H12A14184   2.355   0.538   6.345 -1.6874 -0.5951  0.3954
  132OSM   H12B14185   2.334   0.364   6.334  1.4506 -0.1019  1.2028
  132OSM    C1114186   2.287   0.478   6.160 -0.5369  0.3083 -0.6384
  132OSM   H11A14187   2.302   0.399   6.083  0.9382 -0.8173  0.7440
  132OSM   H11B14188   2.315   0.574   6.113 -0.5932 -0.5654 -2.4818
  132OSM      P14189   2.070   0.360   6.240  0.3993  0.0215  0.3553
  132OSM    O1314190   1.933   0.411   6.266 -0.6295 -0.7936 -0.0236
  132OSM    O1414191   2.090   0.254   6.141  0.2704 -0.4170 -0.3410
  132OSM    O1114192   2.125   0.310   6.375 -0.2250 -0.7773 -0.5788
  132OSM    O1214193   2.152   0.495   6.209  0.1687 -0.4484  0.3391
  132OSM    C1S14194   2.080   0.189   6.434 -0.2962 -0.1420 -0.4854
  132OSM    H1S14195   2.138   0.105   6.390  1.0567  1.1195 -1.1551
  132OSM    H1T14196   1.972   0.167   6.420 -0.1271 -1.0952 -0.3126
  132OSM     NF14197   2.085   0.054   6.638 -0.1834  0.0963 -0.2744
  132OSM    HNF14198   1.990   0.040   6.664 -0.2169 -0.2748 -0.5894
  132OSM    C2S14199   2.114   0.191   6.587  0.0493 -0.3066  0.0552
  132OSM    H2S14200   2.219   0.223   6.604 -0.1093 -0.3061  1.0824
  132OSM    C3S14201   2.027   0.300   6.645  0.4642 -0.1388 -0.2239
  132OSM    H3S14202   1.919   0.291   6.621  0.7435 -0.2461 -1.4737
  132OSM     O314203   2.055   0.430   6.608 -0.2273  0.4795  0.0161
  132OSM    HO314204   2.113   0.418   6.533  1.5710 -0.0946  1.4668
  132OSM    C4S14205   2.025   0.280   6.792  0.7505 -0.6622 -0.1614
  132OSM    H4S14206   1.957   0.203   6.832  1.2410 -1.1520 -0.2678
  132OSM    C5S14207   2.105   0.332   6.885 -1.1588  0.0895 -0.7828
  132OSM    H5S14208   2.185   0.396   6.846 -2.0686  1.0637 -1.0979
  132OSM    C6S14209   2.108   0.309   7.034  0.3622  0.4634 -0.6798
  132OSM    H6S14210   2.061   0.399   7.078  1.7193 -0.6127  3.0944
  132OSM    H6T14211   2.212   0.318   7.072 -0.1356  0.4195  0.7261
  132OSM    C7S14212   2.052   0.176   7.081 -0.4176 -0.2437  0.0433
  132OSM    H7S14213   2.089   0.089   7.023 -0.8165 -0.2256 -0.2420
  132OSM    H7T14214   1.941   0.172   7.070 -0.1219 -0.8094 -3.3161
  132OSM    C8S14215   2.085   0.157   7.231 -0.2676  0.1644 -0.1898
  132OSM    H8S14216   2.194   0.156   7.250 -0.3110  0.8676  0.0884
  132OSM    H8T14217   2.044   0.056   7.256  2.5346 -0.9284  0.1690
  132OSM    C9S14218   2.033   0.274   7.323 -0.1258  0.7506  0.8644
  132OSM    H9S14219   2.071   0.373   7.290  1.7217  0.5013  2.1609
  132OSM    H9T14220   2.080   0.253   7.422 -0.5014 -3.4590  0.2326
  132OSM   C10S14221   1.883   0.294   7.321  0.5636 -0.4581 -0.0838
  132OSM   H10S14222   1.838   0.194   7.337 -0.7366  0.1913  0.3637
  132OSM   H10T14223   1.847   0.329   7.222 -1.7467 -1.2401  0.4572
  132OSM   C11S14224   1.826   0.401   7.420  0.0297  0.3720 -0.0144
  132OSM   H11S14225   1.842   0.370   7.526  1.9771 -1.1437 -0.7257
  132OSM   H11T14226   1.715   0.403   7.415 -0.0094  0.5690  0.9127
  132OSM   C12S14227   1.866   0.548   7.400  0.0956 -0.0158 -0.2480
  132OSM   H12S14228   1.830   0.575   7.298  1.7687  1.7600 -0.3971
  132OSM   H12T14229   1.976   0.557   7.406  0.0930 -1.6171  2.6992
  132OSM   C13S14230   1.796   0.629   7.509 -0.4845 -0.2041  0.0508
  132OSM   H13S14231   1.703   0.579   7.542 -0.7348  0.6001  0.5890
  132OSM   H13T14232   1.769   0.724   7.456  1.4433  0.7983  0.8075
  132OSM   C14S14233   1.883   0.672   7.636  0.2737 -0.9413 -0.2271
  132OSM   H14S14234   1.950   0.758   7.611  0.0291 -0.8617 -0.6130
  132OSM   H14T14235   1.946   0.589   7.673 -1.7448 -1.8933  1.1817
  132OSM   C15S14236   1.799   0.707   7.759 -0.8340 -0.2572  0.2679
  132OSM   H15S14237   1.724   0.785   7.732  1.1808  1.2333 -1.2548
  132OSM   H15T14238   1.868   0.754   7.832  0.8907  1.2447 -2.2197
  132OSM   C16S14239   1.724   0.581   7.816  0.0325 -0.1948  0.4778
  132OSM   H16S14240   1.800   0.501   7.828  1.6191  1.1365 -0.5250
  132OSM   H16T14241   1.639   0.558   7.749 -0.0932  0.4187  0.4195
  132OSM   C17S14242   1.676   0.611   7.961  0.1657 -0.6098  0.1104
  132OSM   H17S14243   1.603   0.695   7.962 -1.4233 -1.9623 -0.4806
  132OSM   H17T14244   1.766   0.632   8.023  1.8566  0.4741 -2.6449
  132OSM   C18S14245   1.597   0.490   8.017 -0.1579 -0.5126  0.6670
  132OSM   H18S14246   1.679   0.425   8.055  1.2316  0.1054 -1.2411
  132OSM   H18T14247   1.545   0.435   7.936 -1.6251  2.3176 -0.3792
  132OSM   H18U14248   1.539   0.516   8.109 -0.1226  0.1480  0.5057
  132OSM    C1F14249   2.162  -0.057   6.613  0.2613 -0.8775  0.3162
  132OSM     OF14250   2.272  -0.044   6.565 -0.5251 -0.6381  0.1627
  132OSM    C2F14251   2.095  -0.190   6.645 -0.0696  0.5925 -0.1312
  132OSM    H2F14252   2.149  -0.264   6.583  1.0228  1.1636  0.1380
  132OSM    H2G14253   1.985  -0.185   6.627 -0.3488  0.0804  1.3290
  132OSM    C3F14254   2.113  -0.224   6.799 -0.0358  0.1655  1.0548
  132OSM    H3F14255   2.031  -0.165   6.845  0.5311  0.6148  1.4991
  132OSM    H3G14256   2.211  -0.188   6.837 -1.6718  1.8364  3.8248
  132OSM    C4F14257   2.081  -0.369   6.824  0.0674  0.0792  0.3445
  132OSM    H4F14258   2.137  -0.445   6.766 -0.5740  0.5783 -0.9772
  132OSM    H4G14259   1.982  -0.380   6.774  2.1189  1.0539 -4.2414
  132OSM    C5F14260   2.097  -0.414   6.970  0.2779  0.1642 -0.2790
  132OSM    H5F14261   2.067  -0.521   6.974  1.0126 -0.0251  0.2371
  132OSM    H5G14262   2.042  -0.347   7.039  0.6723  0.1046  0.0961
  132OSM    C6F14263   2.241  -0.407   7.016  0.0610 -0.0169  0.8295
  132OSM    H6F14264   2.273  -0.301   7.000  1.2790 -0.1021  2.5968
  132OSM    H6G14265   2.301  -0.472   6.948  0.1284 -0.5251  1.3736
  132OSM    C7F14266   2.246  -0.443   7.163 -0.6140  0.0467 -0.6574
  132OSM    H7F14267   2.193  -0.540   7.179 -1.9204  0.7352 -0.7634
  132OSM    H7G14268   2.193  -0.368   7.225  3.2791 -0.4474  3.4666
  132OSM    C8F14269   2.386  -0.461   7.214 -0.5505  0.1698 -0.0786
  132OSM    H8F14270   2.450  -0.371   7.196  1.7096 -1.4829 -0.5733
  132OSM    H8G14271   2.431  -0.549   7.163  0.0383 -0.3540  1.2961
  132OSM    C9F14272   2.378  -0.494   7.365  0.4516  0.0073 -0.3180
  132OSM    H9F14273   2.322  -0.431   7.436  2.4952  1.6666 -0.1042
  132OSM   C10F14274   2.428  -0.603   7.428 -0.6075 -0.1657  0.3414
  132OSM   H10F14275   2.417  -0.606   7.538  1.3464  1.2349  0.5811
  132OSM   C11F14276   2.495  -0.721   7.368  0.4802 -0.7498  0.6904
  132OSM   H11F14277   2.600  -0.691   7.349  0.5484 -1.2957  0.1685
  132OSM   H11G14278   2.444  -0.742   7.271  1.9948 -0.5583 -0.1689
  132OSM   C12F14279   2.479  -0.847   7.452 -0.9975  0.4386  0.4197
  132OSM   H12F14280   2.523  -0.930   7.393 -0.4196 -1.2500  3.1316
  132OSM   H12G14281   2.369  -0.859   7.467 -0.7760 -1.2301  0.9093
  132OSM   C13F14282   2.562  -0.853   7.579 -0.4200  0.0733 -0.5655
  132OSM   H13F14283   2.548  -0.753   7.626  2.7813 -0.0244  0.7258
  132OSM   H13G14284   2.672  -0.865   7.575 -0.5006 -0.9709  0.1709
  132OSM   C14F14285   2.513  -0.962   7.678  0.4196 -0.6956 -0.4517
  132OSM   H14F14286   2.508  -1.056   7.619 -1.3914 -1.2131  0.4902
  132OSM   H14G14287   2.409  -0.927   7.696  0.9893 -0.4256  2.5155
  132OSM   C15F14288   2.582  -0.968   7.808  0.8415  0.4129  0.3419
  132OSM   H15F14289   2.552  -0.876   7.864 -0.3672 -0.1347  0.6059
  132OSM   H15G14290   2.690  -0.957   7.782  0.9208 -0.2716  0.3751
  132OSM   C16F14291   2.569  -1.100   7.887  0.6646 -0.6890  0.1405
  132OSM   H16F14292   2.625  -1.185   7.842  0.7421  0.7000 -2.4695
  132OSM   H16G14293   2.460  -1.118   7.895  0.2757  2.1354  1.5117
  132OSM   C17F14294   2.617  -1.080   8.028 -0.0201  0.2889 -0.2416
  132OSM   H17F14295   2.566  -0.986   8.060 -0.6794 -0.1790  0.0666
  132OSM   H17G14296   2.728  -1.068   8.018 -0.1756  0.8747 -1.3862
  132OSM   C18F14297   2.584  -1.181   8.137 -0.5678  0.1439 -0.5462
  132OSM   H18F14298   2.631  -1.278   8.112 -0.1354  0.0543  0.5787
  132OSM   H18G14299   2.474  -1.195   8.129 -0.4955  0.4303 -2.2575
  132OSM   H18H14300   2.610  -1.143   8.238  0.2913  0.3077 -0.8168
  133SAPE     N14301   4.047   4.615  10.956  0.5021 -0.2131 -0.2623
  133SAPE   HN114302   4.055   4.569  10.863  1.4177 -1.8693  0.6271
  133SAPE   HN214303   4.005   4.710  10.953 -0.7175 -0.5829  2.9907
  133SAPE   HN314304   4.137   4.601  11.006  1.5936  1.6036 -1.6445
  133SAPE   C1214305   3.948   4.519  11.026 -0.3422 -0.3455 -0.0657
  133SAPE  H12A14306   3.845   4.530  10.985  0.0855  0.4592 -0.9382
  133SAPE  H12B14307   3.952   4.532  11.136  1.9890 -1.3456 -0.0053
  133SAPE   C1114308   3.979   4.370  10.992 -0.3104  0.3761 -0.1585
  133SAPE  H11A14309   3.899   4.312  11.042  0.9140  0.0149  1.4495
  133SAPE  H11B14310   4.076   4.343  11.039 -0.9073 -0.0162  0.8553
  133SAPE     P14311   3.887   4.255  10.774  0.1216  0.0969 -0.1171
  133SAPE   O1314312   3.745   4.298  10.782  0.4618  0.0765  0.8885
  133SAPE   O1414313   3.942   4.242  10.641 -0.2113  0.2970 -0.2303
  133SAPE   O1214314   3.978   4.359  10.849  0.0905  0.7605  0.2201
  133SAPE   O1114315   3.912   4.115  10.855  0.1462  0.1822 -0.2470
  133SAPE    C114316   3.829   4.005  10.818  0.7452 -0.1431 -0.0195
  133SAPE    HA14317   3.808   3.953  10.914  2.6021 -0.7444  0.0828
  133SAPE    HB14318   3.733   4.035  10.771  0.3509 -0.9841  0.2438
  133SAPE    C214319   3.906   3.915  10.721  0.2627  0.5981 -0.6004
  133SAPE    HS14320   4.011   3.934  10.755 -0.3077  1.5598  0.6945
  133SAPE   O2114321   3.886   3.967  10.587  0.4752  0.0597 -0.4647
  133SAPE   C2114322   3.983   3.962  10.500 -0.3886  0.1050 -0.1724
  133SAPE   O2214323   4.092   3.920  10.530 -0.2166  0.1215 -0.0010
  133SAPE   C2214324   3.941   4.018  10.359 -0.5201  0.8067  0.7086
  133SAPE   H2R14325   3.832   4.000  10.346 -0.0038 -1.0982 -1.3369
  133SAPE   H2S14326   3.950   4.128  10.355  0.1188  0.6990 -1.4124
  133SAPE    C314327   3.864   3.767  10.736 -0.3073  0.0396  0.1790
  133SAPE    HX14328   3.760   3.767  10.699  0.2499 -1.7941 -1.4549
  133SAPE    HY14329   3.840   3.743  10.842  0.1692  0.0776  0.3001
  133SAPE   O3114330   3.950   3.669  10.672 -0.0468 -0.3259  0.6272
  133SAPE   C3114331   4.068   3.660  10.733 -0.8117  0.3644 -0.2791
  133SAPE   O3214332   4.100   3.713  10.836  0.4480 -0.1206 -0.1819
  133SAPE   C3214333   4.160   3.570  10.652 -0.5677 -0.2732  0.0485
  133SAPE   H2X14334   4.107   3.484  10.605 -1.3319  1.1210 -1.6685
  133SAPE   H2Y14335   4.243   3.547  10.722  0.5765  1.5530 -0.6846
  133SAPE   C2314336   4.036   3.959  10.254  0.4219  0.0325 -0.0669
  133SAPE   H3R14337   4.050   3.848  10.258 -3.0657 -0.4028  2.3451
  133SAPE   H3S14338   4.138   4.003  10.264 -0.6923  2.9881 -1.3092
  133SAPE   C2414339   3.994   3.984  10.107 -0.1463 -0.3372 -0.3323
  133SAPE   H4R14340   3.978   4.094  10.100  1.6635 -0.0624 -0.3123
  133SAPE   H4S14341   3.895   3.936  10.088 -0.4330  0.6584 -1.4239
  133SAPE   C2514342   4.103   3.924  10.017 -0.3969  0.3789  0.3393
  133SAPE   H5R14343   4.109   3.814  10.016  2.3157  0.4814  1.3636
  133SAPE   C2614344   4.204   3.977   9.952  0.2655 -0.2229 -0.2994
  133SAPE   H6R14345   4.278   3.909   9.907 -1.5301 -3.2926  1.2206
  133SAPE   C2714346   4.223   4.124   9.930 -0.2933 -0.0127  0.2179
  133SAPE   H7R14347   4.294   4.118   9.844  0.8625 -0.5032  1.1814
  133SAPE   H7S14348   4.279   4.172  10.013 -0.3171 -0.3005  0.4035
  133SAPE   C2814349   4.102   4.198   9.880 -0.5693  0.1517 -0.3088
  133SAPE   H8R14350   4.053   4.263   9.954 -0.5781  0.2123 -0.3682
  133SAPE   C2914351   4.056   4.195   9.753 -0.2305  0.6487 -0.1983
  133SAPE   H9R14352   3.973   4.261   9.725 -0.7896  0.1302  0.2318
  133SAPE  C21014353   4.110   4.106   9.640 -0.1916  0.3973 -0.1174
  133SAPE  H10R14354   4.172   4.027   9.687 -1.4394 -0.9984 -0.8027
  133SAPE  H10S14355   4.190   4.171   9.596 -0.8177  1.1665 -0.1303
  133SAPE  C21114356   4.022   4.065   9.531 -0.3996  1.1222  0.2837
  133SAPE  H11R14357   3.951   4.140   9.491  2.5895  4.0359  0.2153
  133SAPE  C21214358   4.009   3.943   9.481 -0.4925  0.1963 -0.1431
  133SAPE  H12R14359   3.944   3.929   9.394 -2.7737 -3.1050  1.9366
  133SAPE  C21314360   4.087   3.821   9.523  0.2965  0.4326 -0.2811
  133SAPE  H13R14361   4.134   3.842   9.621 -0.7660  4.0655 -0.4473
  133SAPE  H13S14362   4.172   3.807   9.452 -0.3578 -0.6579 -0.8520
  133SAPE  C21414363   4.011   3.692   9.524 -0.0349  0.2363  0.6086
  133SAPE  H14R14364   3.978   3.653   9.622  0.8401 -0.4823  0.6164
  133SAPE  C21514365   3.982   3.618   9.414  0.6191  0.4469 -0.7118
  133SAPE  H15R14366   3.930   3.522   9.429 -0.7664  1.0867 -1.3897
  133SAPE  C21614367   4.018   3.647   9.270 -0.6382 -0.0061  0.2970
  133SAPE  H16R14368   4.105   3.587   9.237 -0.4753 -0.3760  1.3768
  133SAPE  H16S14369   4.055   3.752   9.262  0.5084 -0.3483  0.9900
  133SAPE  C21714370   3.912   3.628   9.160 -0.1961  0.1965 -0.4160
  133SAPE  H17R14371   3.951   3.664   9.063 -0.2286 -1.3604 -1.0237
  133SAPE  H17S14372   3.824   3.691   9.186 -1.1762 -0.6852 -1.5446
  133SAPE  C21814373   3.864   3.486   9.139 -0.8861  0.5390  0.5965
  133SAPE  H18R14374   3.816   3.438   9.228  0.5113 -0.4894  0.8142
  133SAPE  H18S14375   3.949   3.420   9.113 -1.3337 -0.4438  1.5898
  133SAPE  C21914376   3.781   3.466   9.011  0.2507 -0.6338  0.3579
  133SAPE  H19R14377   3.842   3.431   8.924  1.2591  0.9167  0.4207
  133SAPE  H19S14378   3.748   3.558   8.958  0.1184 -1.1186 -0.4252
  133SAPE  C22014379   3.670   3.359   9.027 -0.0137  0.1914  0.2965
  133SAPE  H20R14380   3.720   3.260   9.034 -0.6795 -0.4047 -2.6472
  133SAPE  H20S14381   3.600   3.371   8.942  2.5000  2.1072 -1.5898
  133SAPE  H20T14382   3.614   3.366   9.122 -1.1863 -0.9204 -0.3043
  133SAPE   C3314383   4.235   3.645  10.532  0.0632 -0.9621 -1.2264
  133SAPE   H3X14384   4.270   3.746  10.563  0.1327 -1.5450  0.6740
  133SAPE   H3Y14385   4.159   3.661  10.453 -0.3401 -1.3609 -0.9196
  133SAPE   C3414386   4.355   3.576  10.485  0.2111 -0.4581  0.2852
  133SAPE   H4X14387   4.319   3.483  10.435 -0.3679  0.2090 -0.5468
  133SAPE   H4Y14388   4.418   3.544  10.571  2.2455  1.6762 -0.3613
  133SAPE   C3514389   4.456   3.655  10.401  0.2482 -1.0364  0.0092
  133SAPE   H5X14390   4.544   3.589  10.386 -0.0969 -0.7467 -3.8653
  133SAPE   H5Y14391   4.483   3.749  10.454  0.1971 -1.7194  1.2688
  133SAPE   C3614392   4.404   3.692  10.262 -0.3324  0.3899 -0.3095
  133SAPE   H6X14393   4.446   3.792  10.237 -1.0231  0.5026 -1.0325
  133SAPE   H6Y14394   4.295   3.712  10.259 -0.3963 -0.0577 -1.5358
  133SAPE   C3714395   4.425   3.595  10.146 -0.2573  0.1649  0.3443
  133SAPE   H7X14396   4.376   3.499  10.171 -2.4056  1.3126  0.6684
  133SAPE   H7Y14397   4.533   3.584  10.124 -0.3381  1.9423 -1.1442
  133SAPE   C3814398   4.356   3.639  10.017  1.0006 -0.6079 -0.0465
  133SAPE   H8X14399   4.359   3.747   9.991 -1.3876 -0.8156 -1.3321
  133SAPE   H8Y14400   4.248   3.613  10.021  1.2780 -2.1539 -1.6889
  133SAPE   C3914401   4.410   3.563   9.895 -0.1618  0.7028  0.7541
  133SAPE   H9X14402   4.401   3.453   9.901 -2.3562  0.8256  0.1284
  133SAPE   H9Y14403   4.515   3.585   9.867  0.4129 -1.2183  1.3409
  133SAPE  C31014404   4.308   3.593   9.775  0.0035 -0.2700  0.4201
  133SAPE  H10X14405   4.316   3.698   9.740  1.2741  0.3941  2.6341
  133SAPE  H10Y14406   4.202   3.574   9.799 -0.4032  1.3076 -0.1118
  133SAPE  C31114407   4.355   3.508   9.654 -0.6214 -0.2601  0.2392
  133SAPE  H11X14408   4.266   3.490   9.590  1.0771  0.2661 -2.3198
  133SAPE  H11Y14409   4.404   3.415   9.689 -0.3534  0.0074  0.5804
  133SAPE  C31214410   4.461   3.580   9.570 -0.4887 -0.1693  1.2074
  133SAPE  H12X14411   4.554   3.575   9.630 -0.1355  0.5636  0.7242
  133SAPE  H12Y14412   4.436   3.687   9.553 -1.3288 -0.8960 -2.6553
  133SAPE  C31314413   4.510   3.513   9.437 -0.0811 -0.2813  0.1681
  133SAPE  H13X14414   4.547   3.412   9.463  2.1672  0.6976  0.9398
  133SAPE  H13Y14415   4.594   3.573   9.396 -0.3516  0.9687  1.3979
  133SAPE  C31414416   4.404   3.513   9.322 -0.6313 -0.2725 -0.0807
  133SAPE  H14X14417   4.369   3.619   9.322  3.1881  1.1096  1.6432
  133SAPE  H14Y14418   4.319   3.447   9.348 -1.4292  0.7183 -0.1469
  133SAPE  C31514419   4.456   3.468   9.187  0.1781 -0.1359 -0.4525
  133SAPE  H15X14420   4.539   3.396   9.202 -0.0383 -0.2809  0.0560
  133SAPE  H15Y14421   4.495   3.558   9.135  0.9650 -0.1494  0.1051
  133SAPE  C31614422   4.343   3.407   9.101 -0.4459 -0.5000  0.0975
  133SAPE  H16X14423   4.256   3.475   9.098 -0.4396 -0.4339  1.1129
  133SAPE  H16Y14424   4.307   3.312   9.146 -2.3215  0.1898  0.0978
  133SAPE  C31714425   4.371   3.394   8.949 -0.0342 -0.4216 -0.7587
  133SAPE  H17X14426   4.274   3.371   8.901 -0.1572  0.8685 -1.1307
  133SAPE  H17Y14427   4.443   3.309   8.944  0.1047 -0.3894  0.4984
  133SAPE  C31814428   4.435   3.522   8.883 -1.0213  1.0084 -0.0126
  133SAPE  H18X14429   4.430   3.501   8.774  0.6416 -2.0691  0.4516
  133SAPE  H18Y14430   4.542   3.531   8.911 -0.2802  1.2268 -2.8048
  133SAPE  H18Z14431   4.374   3.613   8.903 -1.7476  0.6562 -0.5650
  134SAPE     N14432   0.948   4.831  10.415 -0.2573  0.1159 -0.5138
  134SAPE   HN114433   0.981   4.929  10.402  2.1505 -0.7677 -1.2293
  134SAPE   HN214434   1.026   4.787  10.467 -3.1426 -3.0469  1.3792
  134SAPE   HN314435   0.937   4.786  10.322 -2.5285 -1.5783  0.5278
  134SAPE   C1214436   0.829   4.834  10.510 -0.3963  0.2051  0.3222
  134SAPE  H12A14437   0.733   4.861  10.462 -0.7361  0.2940  1.0425
  134SAPE  H12B14438   0.849   4.914  10.584  0.5763 -1.2621  1.6900
  134SAPE   C1114439   0.796   4.695  10.578 -0.5859 -0.4497  0.2371
  134SAPE  H11A14440   0.745   4.623  10.510 -1.4520  0.1444  0.2475
  134SAPE  H11B14441   0.722   4.729  10.654 -1.6131  0.8134 -1.2866
  134SAPE     P14442   0.908   4.516  10.735  0.4770  0.3043 -0.5622
  134SAPE   O1314443   1.028   4.506  10.820 -0.7198  0.0021 -0.1104
  134SAPE   O1414444   0.776   4.527  10.806  0.1316  1.0576  0.2180
  134SAPE   O1214445   0.919   4.636  10.637  0.1007 -0.2165 -0.6597
  134SAPE   O1114446   0.897   4.397  10.628  0.0101 -0.4621 -0.0085
  134SAPE    C114447   0.995   4.373  10.538  0.1507  0.3390 -0.2826
  134SAPE    HA14448   1.076   4.450  10.533  0.6847 -0.3081 -2.1103
  134SAPE    HB14449   1.048   4.282  10.574 -0.0932 -0.2646 -1.4438
  134SAPE    C214450   0.942   4.356  10.391 -0.6700  0.1329 -1.6605
  134SAPE    HS14451   0.917   4.457  10.353  1.6602  1.1653 -0.5363
  134SAPE   O2114452   0.840   4.264  10.370 -0.1054 -0.8629  0.5873
  134SAPE   C2114453   0.723   4.305  10.398 -0.2202  0.4808  0.0189
  134SAPE   O2214454   0.683   4.413  10.436  0.0122 -0.0918  0.3740
  134SAPE   C2214455   0.635   4.173  10.392  0.2785 -0.4232  0.1767
  134SAPE   H2R14456   0.686   4.122  10.308 -0.2672 -0.8846  0.1214
  134SAPE   H2S14457   0.648   4.114  10.485  0.2966 -1.4453 -0.4694
  134SAPE    C314458   1.057   4.298  10.308 -0.3138 -0.0028  0.0100
  134SAPE    HX14459   1.102   4.206  10.350  2.8683  0.8621 -1.3347
  134SAPE    HY14460   1.145   4.366  10.305  0.9884 -1.6938 -0.8772
  134SAPE   O3114461   1.020   4.270  10.172  0.1962 -0.1177 -0.1471
  134SAPE   C3114462   0.954   4.153  10.140 -0.2660 -0.0192  0.0231
  134SAPE   O3214463   0.949   4.051  10.211  0.6195 -0.2501  0.4428
  134SAPE   C3214464   0.904   4.158   9.998  0.1866  0.7921  0.7903
  134SAPE   H2X14465   0.976   4.220   9.941 -0.1576  0.9478  0.5279
  134SAPE   H2Y14466   0.809   4.215   9.997  0.6568  1.5605 -0.1902
  134SAPE   C2314467   0.482   4.199  10.366  0.4308 -0.3377  0.8526
  134SAPE   H3R14468   0.436   4.263  10.445 -1.7054 -1.6011  0.6619
  134SAPE   H3S14469   0.426   4.104  10.361  2.1216 -1.2724 -0.6578
  134SAPE   C2414470   0.469   4.266  10.233 -0.0839  0.0868 -0.0294
  134SAPE   H4R14471   0.509   4.205  10.149  2.2654  2.5692 -0.7715
  134SAPE   H4S14472   0.545   4.346  10.245  0.7032 -0.5967 -0.4640
  134SAPE   C2514473   0.331   4.303  10.193  0.4525  0.3309 -0.1219
  134SAPE   H5R14474   0.256   4.247  10.250 -0.6788 -0.2918 -2.1820
  134SAPE   C2614475   0.290   4.384  10.089  0.1940 -0.0322 -0.1378
  134SAPE   H6R14476   0.185   4.399  10.062 -0.4133 -1.7528  1.1849
  134SAPE   C2714477   0.392   4.454  10.004  0.1302 -0.2839 -0.5930
  134SAPE   H7R14478   0.456   4.518  10.068  0.9319 -0.8786 -0.7925
  134SAPE   H7S14479   0.339   4.527   9.939 -1.3028 -0.7788  0.0054
  134SAPE   C2814480   0.482   4.370   9.921 -0.4199 -0.1408 -0.8851
  134SAPE   H8R14481   0.572   4.330   9.970 -1.4399 -1.3104  0.0843
  134SAPE   C2914482   0.462   4.326   9.800  0.1609 -0.3939  0.4464
  134SAPE   H9R14483   0.538   4.257   9.761  1.1796  0.6506  0.5604
  134SAPE  C21014484   0.357   4.350   9.697 -0.2600  0.0204 -0.2775
  134SAPE  H10R14485   0.253   4.348   9.736  0.0747  0.0389  0.6425
  134SAPE  H10S14486   0.368   4.273   9.618  0.1359  0.7668 -0.9511
  134SAPE  C21114487   0.363   4.477   9.620  0.5440 -0.2076  0.0659
  134SAPE  H11R14488   0.356   4.568   9.681  0.4800 -0.4622  0.4397
  134SAPE  C21214489   0.387   4.507   9.489  0.1294 -0.4104  0.1465
  134SAPE  H12R14490   0.389   4.616   9.472 -2.3054 -0.6693 -2.2898
  134SAPE  C21314491   0.410   4.406   9.377  0.8602  0.2179  0.2209
  134SAPE  H13R14492   0.459   4.315   9.417 -1.1113 -0.1701  1.8126
  134SAPE  H13S14493   0.485   4.458   9.313  0.0955 -0.6042 -1.3659
  134SAPE  C21414494   0.285   4.386   9.297 -0.3408  0.1811 -0.4036
  134SAPE  H14R14495   0.201   4.354   9.359  0.8446 -2.1880  0.0693
  134SAPE  C21514496   0.268   4.389   9.163 -0.0788 -0.0955  0.1671
  134SAPE  H15R14497   0.168   4.371   9.119 -0.9991  1.0705  1.7185
  134SAPE  C21614498   0.377   4.412   9.064 -0.6703  0.0665 -0.9343
  134SAPE  H16R14499   0.440   4.322   9.044 -0.1677  0.6127 -1.8153
  134SAPE  H16S14500   0.430   4.507   9.082 -1.9830  0.8144 -0.9758
  134SAPE  C21714501   0.325   4.435   8.917 -0.5994 -0.2873  0.6345
  134SAPE  H17R14502   0.409   4.473   8.856 -1.4545 -0.2322 -0.5346
  134SAPE  H17S14503   0.246   4.514   8.922  0.1167  0.4289  0.6434
  134SAPE  C21814504   0.283   4.308   8.846  0.0410  1.1052 -0.4516
  134SAPE  H18R14505   0.206   4.253   8.904 -0.3876 -0.2369 -2.2546
  134SAPE  H18S14506   0.376   4.247   8.838 -0.0364  1.0368 -0.8507
  134SAPE  C21914507   0.217   4.343   8.719  0.2618  0.2255  0.4138
  134SAPE  H19R14508   0.274   4.408   8.649 -0.5435  1.7745  1.1885
  134SAPE  H19S14509   0.129   4.405   8.745  0.4888  0.0710  1.5811
  134SAPE  C22014510   0.169   4.226   8.633 -0.1053 -1.2821 -0.8211
  134SAPE  H20R14511   0.103   4.160   8.693 -0.2275 -0.8049 -0.4248
  134SAPE  H20S14512   0.248   4.159   8.592  0.6883 -1.4530  0.9581
  134SAPE  H20T14513   0.106   4.269   8.552  2.0429  2.5421 -0.5864
  134SAPE   C3314514   0.881   4.025   9.926  0.1041  0.2166 -0.6368
  134SAPE   H3X14515   0.844   3.952  10.001  1.8787  0.8271  0.8847
  134SAPE   H3Y14516   0.978   3.985   9.889  1.3795 -1.1165  3.8290
  134SAPE   C3414517   0.783   4.024   9.813 -0.6057  0.4744 -0.5751
  134SAPE   H4X14518   0.676   4.020   9.843  0.0362 -3.8091  1.5474
  134SAPE   H4Y14519   0.805   3.926   9.765  0.8028 -0.8589  2.6288
  134SAPE   C3514520   0.820   4.124   9.703  0.2528 -0.1671  0.3606
  134SAPE   H5X14521   0.924   4.100   9.670  0.1860  2.2783 -1.9042
  134SAPE   H5Y14522   0.803   4.229   9.735  0.2750 -0.9659  3.0690
  134SAPE   C3614523   0.717   4.100   9.600  0.5288  0.2408 -0.4859
  134SAPE   H6X14524   0.619   4.131   9.642 -0.1870 -0.1961 -1.7946
  134SAPE   H6Y14525   0.714   3.991   9.579 -0.7407 -0.0605  1.2228
  134SAPE   C3714526   0.747   4.165   9.459 -0.1598  0.2228 -0.3060
  134SAPE   H7X14527   0.821   4.245   9.477  0.7462 -0.9562  1.3905
  134SAPE   H7Y14528   0.651   4.183   9.406 -0.0347 -1.9410 -1.3126
  134SAPE   C3814529   0.830   4.066   9.372 -0.0355  0.1354 -0.4865
  134SAPE   H8X14530   0.761   3.985   9.341 -0.7095 -1.2656  4.1891
  134SAPE   H8Y14531   0.916   4.026   9.431 -0.4244 -2.0017 -1.3375
  134SAPE   C3914532   0.875   4.132   9.242 -0.7167  0.2550  0.2770
  134SAPE   H9X14533   0.958   4.069   9.205 -0.0948  0.9070  0.5582
  134SAPE   H9Y14534   0.921   4.229   9.271  0.9354 -0.4749  0.1436
  134SAPE  C31014535   0.764   4.158   9.138 -0.4177 -0.4474  0.4362
  134SAPE  H10X14536   0.682   4.214   9.188 -2.1455 -2.5470  0.0131
  134SAPE  H10Y14537   0.717   4.061   9.111 -1.0115 -0.1234  0.3077
  134SAPE  C31114538   0.800   4.225   9.000  0.7888 -0.4020  0.8382
  134SAPE  H11X14539   0.887   4.165   8.967 -0.2713 -0.9985 -0.9475
  134SAPE  H11Y14540   0.844   4.326   9.017  2.5678 -1.2944  1.6292
  134SAPE  C31214541   0.687   4.235   8.894  0.0744  0.4663 -0.1358
  134SAPE  H12X14542   0.619   4.317   8.925  0.7183 -0.2721  3.5498
  134SAPE  H12Y14543   0.621   4.145   8.897  0.1818  0.3664 -0.6962
  134SAPE  C31314544   0.752   4.249   8.758  0.0203 -0.3442  0.0642
  134SAPE  H13X14545   0.819   4.162   8.748  0.2387 -0.4275  1.9895
  134SAPE  H13Y14546   0.819   4.338   8.766 -1.0822  0.5483 -0.3888
  134SAPE  C31414547   0.642   4.272   8.644  0.6559 -0.3481 -0.7554
  134SAPE  H14X14548   0.542   4.229   8.664  0.6797  0.2468  0.7087
  134SAPE  H14Y14549   0.681   4.204   8.565  1.6666 -0.8313  0.1564
  134SAPE  C31514550   0.625   4.418   8.595  0.4906  0.3966 -0.4894
  134SAPE  H15X14551   0.609   4.482   8.684 -2.4622 -1.7608  0.6104
  134SAPE  H15Y14552   0.538   4.425   8.526  1.6603 -2.2117 -2.2922
  134SAPE  C31614553   0.747   4.478   8.533 -0.4802  0.4345 -0.6722
  134SAPE  H16X14554   0.841   4.432   8.571  0.0581 -0.2366 -2.7143
  134SAPE  H16Y14555   0.752   4.587   8.553 -0.7971 -0.0297  2.0622
  134SAPE  C31714556   0.769   4.459   8.385  0.0344  0.1015 -0.7962
  134SAPE  H17X14557   0.723   4.546   8.334  1.8651  0.1931 -2.3156
  134SAPE  H17Y14558   0.725   4.361   8.356  0.4348 -0.5794  0.8040
  134SAPE  C31814559   0.911   4.459   8.338 -0.5041  0.2086 -0.1646
  134SAPE  H18X14560   0.918   4.451   8.227 -1.8166  0.5684 -0.2827
  134SAPE  H18Y14561   0.961   4.365   8.368 -2.2220 -0.0626  1.9951
  134SAPE  H18Z14562   0.965   4.553   8.363  2.2786 -1.1484 -0.9022
  135SAPE     N14563   0.522   3.153  10.552 -0.1736 -0.7067  0.0885
  135SAPE   HN114564   0.547   3.238  10.607  1.0824 -0.0430 -1.4720
  135SAPE   HN214565   0.553   3.071  10.607  0.5255 -0.1807  0.4902
  135SAPE   HN314566   0.574   3.142  10.463 -0.1418 -3.6623  0.4260
  135SAPE   C1214567   0.374   3.145  10.532  0.4954 -0.4384  0.1465
  135SAPE  H12A14568   0.338   3.248  10.509  1.9123 -0.0454 -0.3493
  135SAPE  H12B14569   0.333   3.112  10.630 -1.9873 -0.0389 -0.7189
  135SAPE   C1114570   0.335   3.048  10.412  1.0863  0.2338  0.1069
  135SAPE  H11A14571   0.392   3.076  10.321 -0.5838 -0.7658 -1.3011
  135SAPE  H11B14572   0.231   3.066  10.378  1.1947 -0.9758 -0.9281
  135SAPE     P14573   0.263   2.824  10.527  0.4705 -0.2044 -0.4147
  135SAPE   O1314574   0.312   2.685  10.541 -0.1206  0.1163  0.2123
  135SAPE   O1414575   0.211   2.894  10.644 -0.0455  0.0002  0.7194
  135SAPE   O1214576   0.371   2.909  10.442  0.2315  0.1652  0.6410
  135SAPE   O1114577   0.141   2.804  10.426  0.4338 -0.0163  0.0381
  135SAPE    C114578   0.147   2.789  10.287  0.1402  0.8093  0.4762
  135SAPE    HA14579   0.123   2.888  10.242 -2.6034 -0.5846 -1.2018
  135SAPE    HB14580   0.243   2.743  10.255 -0.3686  1.1184 -1.5061
  135SAPE    C214581   0.045   2.686  10.229 -0.3022  0.2883 -0.3103
  135SAPE    HS14582   0.077   2.583  10.258 -1.1721  0.0349 -0.2563
  135SAPE   O2114583   0.044   2.701  10.085  0.7221  0.4771 -0.2377
  135SAPE   C2114584   0.055   2.586  10.013 -0.0653  0.0039  0.0433
  135SAPE   O2214585   0.078   2.474  10.058 -0.2673 -0.5209 -0.2051
  135SAPE   C2214586   0.054   2.622   9.859 -0.4683  0.0895 -0.2631
  135SAPE   H2R14587  -0.052   2.638   9.830 -0.0029 -0.6208 -2.4517
  135SAPE   H2S14588   0.112   2.716   9.849  2.9107 -2.0814 -2.2251
  135SAPE    C314589  -0.095   2.717  10.274  0.5346 -0.8946  0.4601
  135SAPE    HX14590  -0.125   2.815  10.231  1.7014 -0.4026  0.7325
  135SAPE    HY14591  -0.101   2.747  10.381 -1.1145 -2.0340  0.7045
  135SAPE   O3114592  -0.185   2.610  10.240  0.0155  0.2146  0.0082
  135SAPE   C3114593  -0.254   2.622  10.124 -0.2302  0.0341 -0.1302
  135SAPE   O3214594  -0.257   2.725  10.057 -0.5434 -0.1768 -0.1443
  135SAPE   C3214595  -0.325   2.496  10.085  0.5366 -0.3132 -0.5606
  135SAPE   H2X14596  -0.431   2.492  10.120  1.5297 -3.4427  2.3625
  135SAPE   H2Y14597  -0.276   2.426  10.156 -2.8935 -1.4252  0.8008
  135SAPE   C2314598   0.103   2.509   9.765  0.4232 -0.0960  0.3408
  135SAPE   H3R14599   0.045   2.418   9.793  1.9328 -0.9793  0.6605
  135SAPE   H3S14600   0.206   2.486   9.800  0.8947  1.5303  0.0505
  135SAPE   C2414601   0.077   2.540   9.619  0.4522  0.0766 -0.1188
  135SAPE   H4R14602   0.128   2.635   9.591  1.3512 -1.1162 -2.6797
  135SAPE   H4S14603  -0.032   2.555   9.600  0.6909  1.7078 -0.2768
  135SAPE   C2514604   0.130   2.434   9.526  0.4434 -0.5176 -0.1978
  135SAPE   H5R14605   0.196   2.368   9.584  1.5738  0.1348 -0.7482
  135SAPE   C2614606   0.118   2.408   9.391  0.5210  0.3627  0.7759
  135SAPE   H6R14607   0.174   2.324   9.347  0.3844  0.1701  0.9696
  135SAPE   C2714608   0.040   2.493   9.294  0.1331  0.3712  0.3564
  135SAPE   H7R14609   0.096   2.587   9.274  1.9701 -0.8144 -0.1852
  135SAPE   H7S14610  -0.051   2.525   9.350 -0.6247 -0.0482 -0.6095
  135SAPE   C2814611  -0.017   2.427   9.169  0.7241 -0.7741 -0.3122
  135SAPE   H8R14612  -0.115   2.378   9.169  0.1956  0.2651  1.0464
  135SAPE   C2914613   0.052   2.418   9.052  1.1085 -0.1594  0.5256
  135SAPE   H9R14614   0.004   2.383   8.959  3.8651 -0.7610 -0.7056
  135SAPE  C21014615   0.195   2.465   9.027 -0.2953 -0.5268 -0.3330
  135SAPE  H10R14616   0.228   2.542   9.100  1.3081 -1.3016 -0.2355
  135SAPE  H10S14617   0.198   2.523   8.932  0.3558 -2.1551 -1.3277
  135SAPE  C21114618   0.297   2.360   9.036  0.1620 -0.1726 -0.3045
  135SAPE  H11R14619   0.264   2.278   9.102 -2.0762 -0.6089 -1.8953
  135SAPE  C21214620   0.419   2.341   8.978  0.3928  0.7525  0.5218
  135SAPE  H12R14621   0.484   2.255   8.998 -1.3643 -0.4350  1.2420
  135SAPE  C21314622   0.482   2.435   8.881  0.3915  0.1847  0.0573
  135SAPE  H13R14623   0.407   2.475   8.808 -1.3030  0.0845  1.7027
  135SAPE  H13S14624   0.560   2.394   8.814 -2.2204 -0.9878 -2.3816
  135SAPE  C21414625   0.547   2.542   8.962  0.1637 -0.3924  0.2132
  135SAPE  H14R14626   0.471   2.616   8.991  0.8489  0.7252 -0.7891
  135SAPE  C21514627   0.670   2.564   8.996  0.5460 -0.3330 -0.3512
  135SAPE  H15R14628   0.686   2.643   9.071  0.3948 -0.4860 -0.1543
  135SAPE  C21614629   0.789   2.486   8.949 -0.1724  0.1489  0.0000
  135SAPE  H16R14630   0.776   2.422   8.860  1.8817  0.5714 -0.6287
  135SAPE  H16S14631   0.817   2.417   9.032  0.0550  2.7067  2.1073
  135SAPE  C21714632   0.913   2.575   8.924  0.2855  0.6727 -0.0324
  135SAPE  H17R14633   0.945   2.607   9.026 -0.4134 -0.3896  0.5246
  135SAPE  H17S14634   0.895   2.668   8.865  3.5472  1.8227  0.6703
  135SAPE  C21814635   1.021   2.487   8.856 -0.1182 -0.5616  0.0446
  135SAPE  H18R14636   1.097   2.559   8.818  1.4187 -1.8835  0.5473
  135SAPE  H18S14637   0.965   2.441   8.772 -0.5965  1.4433 -0.7716
  135SAPE  C21914638   1.073   2.364   8.939 -0.1365  1.1488 -0.3667
  135SAPE  H19R14639   1.163   2.325   8.886 -0.0915 -0.2226  0.6835
  135SAPE  H19S14640   0.989   2.291   8.936  1.6466 -0.9840 -0.5218
  135SAPE  C22014641   1.114   2.394   9.076  0.2580  0.5026  0.2927
  135SAPE  H20R14642   1.163   2.302   9.115 -3.9134 -1.7058  0.6402
  135SAPE  H20S14643   1.031   2.410   9.148 -1.1481  0.0488 -1.1803
  135SAPE  H20T14644   1.187   2.477   9.067 -0.7380  1.3898  0.2847
  135SAPE   C3314645  -0.299   2.450   9.945 -0.1941 -1.1130 -0.0160
  135SAPE   H3X14646  -0.317   2.342   9.926 -1.8079 -0.7975 -0.2792
  135SAPE   H3Y14647  -0.189   2.459   9.929 -0.1512  0.7736  1.1758
  135SAPE   C3414648  -0.382   2.526   9.840  0.5602  0.5430 -0.1651
  135SAPE   H4X14649  -0.354   2.633   9.854  0.2290  0.4116  1.6030
  135SAPE   H4Y14650  -0.489   2.525   9.869  0.8134  0.6107  0.7774
  135SAPE   C3514651  -0.354   2.476   9.696  0.3863 -0.1161  0.1289
  135SAPE   H5X14652  -0.371   2.368   9.673  3.7551 -0.5826 -0.5086
  135SAPE   H5Y14653  -0.247   2.496   9.672  0.8011  0.3102  2.2752
  135SAPE   C3614654  -0.420   2.580   9.593  0.0654 -0.0929 -0.3251
  135SAPE   H6X14655  -0.377   2.682   9.609 -0.3052  0.2458 -1.4525
  135SAPE   H6Y14656  -0.528   2.586   9.617 -0.0004 -2.0280 -0.0802
  135SAPE   C3714657  -0.382   2.546   9.451  0.6066  0.3234  0.5597
  135SAPE   H7X14658  -0.410   2.440   9.431  0.4095  0.5249 -0.2710
  135SAPE   H7Y14659  -0.272   2.555   9.436  0.2001 -0.5137 -3.5753
  135SAPE   C3814660  -0.459   2.639   9.350 -0.9099 -0.1114  0.0464
  135SAPE   H8X14661  -0.444   2.744   9.381 -1.5492  0.4281 -1.4511
  135SAPE   H8Y14662  -0.565   2.607   9.351 -0.6863 -0.8647  1.2993
  135SAPE   C3914663  -0.403   2.609   9.207 -0.3326  0.3710  0.1721
  135SAPE   H9X14664  -0.293   2.626   9.208 -0.0395 -1.0517 -2.4556
  135SAPE   H9Y14665  -0.447   2.679   9.133  2.4402 -0.9878 -2.8806
  135SAPE  C31014666  -0.418   2.464   9.169 -0.6708 -0.3636 -0.3097
  135SAPE  H10X14667  -0.518   2.427   9.201 -0.6490 -1.0708 -1.0425
  135SAPE  H10Y14668  -0.339   2.400   9.213  0.7606  1.1070 -0.6803
  135SAPE  C31114669  -0.398   2.437   9.017 -0.3356 -0.2181  0.1207
  135SAPE  H11X14670  -0.291   2.462   9.007 -0.7778  1.3327 -0.8258
  135SAPE  H11Y14671  -0.456   2.495   8.942 -1.4861 -2.0433 -0.4398
  135SAPE  C31214672  -0.415   2.288   8.972 -0.0084 -0.1881 -0.1782
  135SAPE  H12X14673  -0.524   2.270   8.956  0.4817 -2.2448 -1.3515
  135SAPE  H12Y14674  -0.363   2.218   9.040 -0.1412  0.7892  0.9403
  135SAPE  C31314675  -0.354   2.281   8.833  0.3498  0.7543  0.4827
  135SAPE  H13X14676  -0.244   2.296   8.848  0.3500  2.0312 -0.6836
  135SAPE  H13Y14677  -0.377   2.364   8.764 -0.3229  0.7853  0.7473
  135SAPE  C31414678  -0.367   2.144   8.761 -0.1183 -0.3007 -0.4536
  135SAPE  H14X14679  -0.474   2.134   8.735  0.1921 -1.2855 -1.3972
  135SAPE  H14Y14680  -0.341   2.062   8.832  0.8507 -0.4672 -0.9855
  135SAPE  C31514681  -0.270   2.137   8.644  0.5268  0.0328  0.8232
  135SAPE  H15X14682  -0.227   2.036   8.656  1.7663  0.2447 -1.6120
  135SAPE  H15Y14683  -0.185   2.204   8.671  1.1939  0.1253 -1.3943
  135SAPE  C31614684  -0.333   2.186   8.515  0.1464 -0.1768 -0.3271
  135SAPE  H16X14685  -0.365   2.292   8.530 -1.2906 -0.5836 -0.5252
  135SAPE  H16Y14686  -0.423   2.133   8.478 -1.8608  3.6613 -1.2564
  135SAPE  C31714687  -0.226   2.196   8.402 -0.0291 -0.9433 -0.3802
  135SAPE  H17X14688  -0.178   2.096   8.393  0.1947 -0.7503 -1.4208
  135SAPE  H17Y14689  -0.149   2.268   8.436 -0.8692 -0.4179  0.4181
  135SAPE  C31814690  -0.281   2.234   8.267 -0.2870 -0.3205 -0.0607
  135SAPE  H18X14691  -0.309   2.341   8.259  2.7919  0.3794 -1.9829
  135SAPE  H18Y14692  -0.382   2.190   8.250 -0.6876 -0.0478  1.5134
  135SAPE  H18Z14693  -0.209   2.209   8.187 -1.6895 -1.9676 -0.8489
  136SAPE     N14694   1.823   2.867  10.628  0.0571  0.0941  0.4828
  136SAPE   HN114695   1.773   2.947  10.584 -1.0560 -1.8124 -1.8118
  136SAPE   HN214696   1.751   2.811  10.680 -2.5059  1.6149 -1.3226
  136SAPE   HN314697   1.888   2.901  10.702  0.2759 -1.3675  0.9800
  136SAPE   C1214698   1.889   2.780  10.523  0.5350 -0.5009 -0.0361
  136SAPE  H12A14699   1.975   2.836  10.480  0.7137 -0.2635  0.6377
  136SAPE  H12B14700   1.820   2.767  10.436  0.6676  0.7917 -0.3419
  136SAPE   C1114701   1.928   2.645  10.585 -0.3584  0.2777 -0.4042
  136SAPE  H11A14702   1.993   2.586  10.518 -0.7614 -0.3006 -0.2918
  136SAPE  H11B14703   1.838   2.586  10.613 -0.5280  0.9717  0.5539
  136SAPE     P14704   2.157   2.688  10.723 -0.2036  0.1330  0.2866
  136SAPE   O1314705   2.168   2.835  10.725  0.2172  0.4365  0.5021
  136SAPE   O1414706   2.206   2.613  10.844  0.6505  0.3477  0.1788
  136SAPE   O1214707   2.005   2.655  10.703 -0.4245 -0.1341  0.5644
  136SAPE   O1114708   2.224   2.640  10.593  0.1508  0.4593  0.4358
  136SAPE    C114709   2.283   2.512  10.571 -0.1929 -0.2394 -0.2664
  136SAPE    HA14710   2.233   2.435  10.634 -2.2029  1.7660  0.6460
  136SAPE    HB14711   2.265   2.472  10.469  2.0407  1.2481 -1.2803
  136SAPE    C214712   2.434   2.514  10.608  0.3037 -0.5864 -0.0295
  136SAPE    HS14713   2.450   2.571  10.702 -3.7210  1.1604 -0.3187
  136SAPE   O2114714   2.498   2.571  10.493 -0.2183  0.1904  0.7250
  136SAPE   C2114715   2.616   2.632  10.505 -0.3594  0.5056  0.5828
  136SAPE   O2214716   2.678   2.642  10.605 -0.2427 -0.1801  0.4446
  136SAPE   C2214717   2.651   2.688  10.372  0.5317 -0.0009 -0.1381
  136SAPE   H2R14718   2.657   2.608  10.294  2.2986 -0.6320  0.6356
  136SAPE   H2S14719   2.569   2.760  10.349 -0.2042 -1.2240 -1.4404
  136SAPE    C314720   2.499   2.376  10.631  0.3972  0.4665 -0.2914
  136SAPE    HX14721   2.465   2.327  10.725  0.7386  1.4358  0.3481
  136SAPE    HY14722   2.608   2.392  10.648  0.1012  3.0846 -0.5688
  136SAPE   O3114723   2.473   2.282  10.517 -0.0801 -0.6338 -0.0771
  136SAPE   C3114724   2.582   2.264  10.438  0.0954  0.7321  0.5539
  136SAPE   O3214725   2.689   2.324  10.438  0.4567 -0.1486  0.3567
  136SAPE   C3214726   2.556   2.155  10.336  0.7879  0.4368 -0.5127
  136SAPE   H2X14727   2.450   2.159  10.303  0.6730  1.7665 -0.0107
  136SAPE   H2Y14728   2.571   2.059  10.388  2.7047  0.8140 -0.3461
  136SAPE   C2314729   2.788   2.756  10.381  0.4849 -0.1708 -0.8216
  136SAPE   H3R14730   2.861   2.680  10.415 -1.2380 -1.1480  0.8162
  136SAPE   H3S14731   2.778   2.837  10.456  0.5622 -1.5401  0.7001
  136SAPE   C2414732   2.828   2.815  10.244 -0.3594 -0.9232 -0.3468
  136SAPE   H4R14733   2.864   2.728  10.185 -0.3192  2.8259 -6.2903
  136SAPE   H4S14734   2.919   2.876  10.261 -1.2125  0.0258  0.9292
  136SAPE   C2514735   2.722   2.888  10.162  0.0959 -0.2585 -0.5369
  136SAPE   H5R14736   2.662   2.965  10.214  0.2447 -0.6050  0.1539
  136SAPE   C2614737   2.692   2.866  10.034  0.0796  0.2168  0.5199
  136SAPE   H6R14738   2.614   2.923   9.981  0.2256  0.0169  0.0863
  136SAPE   C2714739   2.762   2.757   9.947  0.6732  1.0400  0.5996
  136SAPE   H7R14740   2.755   2.658   9.997  0.5473 -0.4356 -2.2421
  136SAPE   H7S14741   2.869   2.774   9.927  1.0037 -1.4435  0.0893
  136SAPE   C2814742   2.694   2.740   9.813 -1.0663  0.4111 -0.3276
  136SAPE   H8R14743   2.591   2.705   9.826 -0.9886  0.1913 -0.3133
  136SAPE   C2914744   2.738   2.779   9.694  0.1908  0.2355 -0.6349
  136SAPE   H9R14745   2.670   2.772   9.607 -0.2668 -0.3274 -0.2420
  136SAPE  C21014746   2.870   2.831   9.655 -0.1774 -0.1960  0.4173
  136SAPE  H10R14747   2.918   2.758   9.587  0.1696  0.7414 -0.3675
  136SAPE  H10S14748   2.942   2.824   9.740  0.9985  2.6241 -0.2612
  136SAPE  C21114749   2.873   2.974   9.619 -0.0328 -0.8941 -0.1952
  136SAPE  H11R14750   2.831   3.039   9.697  1.8793 -0.9128  0.8739
  136SAPE  C21214751   2.928   3.034   9.515  0.6009  0.1197  0.3663
  136SAPE  H12R14752   2.897   3.139   9.499  0.9919  0.0073 -1.1633
  136SAPE  C21314753   3.001   2.967   9.404  0.6270 -0.3927 -0.0532
  136SAPE  H13R14754   3.031   2.865   9.435  2.8273 -0.0461 -0.9688
  136SAPE  H13S14755   3.096   3.022   9.386 -0.6702  1.8988 -0.0073
  136SAPE  C21414756   2.909   2.968   9.284  0.3282  0.0560 -0.1479
  136SAPE  H14R14757   2.811   2.922   9.301  0.7210 -1.0264 -0.7507
  136SAPE  C21514758   2.943   2.997   9.158  0.6421  0.1173  0.2841
  136SAPE  H15R14759   2.863   3.002   9.083  1.3884 -0.8298 -0.5848
  136SAPE  C21614760   3.077   3.042   9.112 -0.0349 -0.6779 -0.1605
  136SAPE  H16R14761   3.149   2.965   9.076  0.7583 -1.4280  2.8602
  136SAPE  H16S14762   3.135   3.087   9.195 -0.2260  0.1643 -0.4807
  136SAPE  C21714763   3.071   3.152   9.007  0.2860  0.1151  0.0978
  136SAPE  H17R14764   3.008   3.239   9.037  0.0259 -0.1364  0.2805
  136SAPE  H17S14765   3.024   3.111   8.915 -1.1485 -0.9875  1.2982
  136SAPE  C21814766   3.203   3.209   8.961 -0.0433  0.5230 -0.4978
  136SAPE  H18R14767   3.275   3.133   8.923 -0.4049  0.8282 -1.8296
  136SAPE  H18S14768   3.252   3.255   9.049  1.4770  0.8776 -1.4934
  136SAPE  C21914769   3.193   3.317   8.856  0.2529 -0.0708 -0.6183
  136SAPE  H19R14770   3.122   3.398   8.883 -0.5519 -1.2540  0.8722
  136SAPE  H19S14771   3.152   3.269   8.765  0.2178  1.9372 -1.6953
  136SAPE  C22014772   3.327   3.377   8.821  0.1521  0.2943  0.2199
  136SAPE  H20R14773   3.323   3.459   8.747  1.7681 -0.7395 -1.0340
  136SAPE  H20S14774   3.393   3.308   8.764 -1.9436 -0.5438 -1.2901
  136SAPE  H20T14775   3.389   3.399   8.910  2.2969 -3.2141 -0.3237
  136SAPE   C3314776   2.655   2.151  10.217 -0.2361 -0.2039  0.0861
  136SAPE   H3X14777   2.642   2.053  10.166  0.1310  1.0099 -2.3744
  136SAPE   H3Y14778   2.759   2.154  10.254 -0.0471 -1.5963 -0.3098
  136SAPE   C3414779   2.618   2.253  10.108  0.4178 -0.1377 -0.0227
  136SAPE   H4X14780   2.656   2.352  10.139 -0.4540  0.2557 -0.2025
  136SAPE   H4Y14781   2.509   2.268  10.093  0.2465 -0.8579  0.4738
  136SAPE   C3514782   2.685   2.224   9.971 -0.3452  0.0067 -0.1621
  136SAPE   H5X14783   2.657   2.131   9.919  1.8961  1.1198 -3.5043
  136SAPE   H5Y14784   2.794   2.216   9.991 -0.4607 -0.1291  0.4420
  136SAPE   C3614785   2.652   2.333   9.869 -0.0143  0.4009 -0.4282
  136SAPE   H6X14786   2.683   2.433   9.907  0.6299 -0.0308  0.2247
  136SAPE   H6Y14787   2.544   2.339   9.849 -0.3586 -2.7660  0.2244
  136SAPE   C3714788   2.692   2.298   9.728 -0.2108  0.3603  0.7680
  136SAPE   H7X14789   2.637   2.209   9.689  0.0528 -0.7119  2.7618
  136SAPE   H7Y14790   2.800   2.272   9.730  0.2387  2.1960  1.1305
  136SAPE   C3814791   2.668   2.411   9.629  0.0169  0.4597 -0.2021
  136SAPE   H8X14792   2.708   2.508   9.664 -3.0458  0.9532  2.0320
  136SAPE   H8Y14793   2.558   2.425   9.632  0.1275  0.8414  2.4679
  136SAPE   C3914794   2.699   2.389   9.482 -0.3607  0.2469 -0.0936
  136SAPE   H9X14795   2.645   2.303   9.437  0.0230  1.6796 -3.4870
  136SAPE   H9Y14796   2.807   2.366   9.470 -0.4965 -0.4337 -0.0329
  136SAPE  C31014797   2.673   2.514   9.404  0.2900 -0.0055 -0.6629
  136SAPE  H10X14798   2.730   2.597   9.451 -1.0877  0.9006 -0.5823
  136SAPE  H10Y14799   2.565   2.538   9.396 -0.0673 -1.9644 -2.2469
  136SAPE  C31114800   2.725   2.473   9.263  0.1056  0.0661  0.2067
  136SAPE  H11X14801   2.646   2.403   9.227 -1.0303 -0.0309  2.7836
  136SAPE  H11Y14802   2.817   2.412   9.262  0.4027  0.5144 -0.8402
  136SAPE  C31214803   2.748   2.590   9.167 -0.3022  0.4944 -0.4547
  136SAPE  H12X14804   2.831   2.650   9.210 -1.7235  1.1692  1.4035
  136SAPE  H12Y14805   2.658   2.651   9.189  0.1289  1.7165 -1.9643
  136SAPE  C31314806   2.764   2.561   9.018 -0.3646  1.0551 -0.6681
  136SAPE  H13X14807   2.856   2.497   9.012 -1.0150  0.1498 -1.1541
  136SAPE  H13Y14808   2.767   2.659   8.966  0.7746  1.0581 -0.6114
  136SAPE  C31414809   2.641   2.494   8.961  0.0594  0.3558  0.7304
  136SAPE  H14X14810   2.555   2.557   8.992 -0.9684 -1.0812  0.8423
  136SAPE  H14Y14811   2.631   2.393   9.006 -0.8161 -0.0809 -0.4137
  136SAPE  C31514812   2.643   2.488   8.817  0.2376  0.2918 -0.0616
  136SAPE  H15X14813   2.698   2.577   8.780  1.7567 -1.3274 -1.8676
  136SAPE  H15Y14814   2.549   2.475   8.761 -0.7930 -0.6112  1.8056
  136SAPE  C31614815   2.748   2.381   8.759  0.3517 -0.7086  0.1576
  136SAPE  H16X14816   2.721   2.279   8.791  0.0045 -0.2234  1.4152
  136SAPE  H16Y14817   2.850   2.405   8.796  0.5234 -0.7691 -0.2654
  136SAPE  C31714818   2.749   2.392   8.601  0.6072 -0.1157 -0.5544
  136SAPE  H17X14819   2.758   2.501   8.581  1.9228 -0.4332 -1.7820
  136SAPE  H17Y14820   2.644   2.365   8.577  1.1757 -1.2492 -1.8491
  136SAPE  C31814821   2.845   2.314   8.520 -0.2165  0.0178 -0.4825
  136SAPE  H18X14822   2.941   2.289   8.570 -0.9010  0.9504  1.3421
  136SAPE  H18Y14823   2.857   2.359   8.419 -0.2021 -1.1654 -1.0141
  136SAPE  H18Z14824   2.801   2.214   8.496 -0.5877  0.4578 -1.6493
  137SAPE     N14825   6.654   6.255  10.742  0.2824  0.1444  0.8241
  137SAPE   HN114826   6.649   6.358  10.761 -0.1844  0.4419 -0.8085
  137SAPE   HN214827   6.557   6.220  10.741  0.4037 -0.1828  0.7170
  137SAPE   HN314828   6.701   6.221  10.828  0.2308 -0.9314  0.4246
  137SAPE   C1214829   6.732   6.209  10.622 -0.6603 -0.0197 -0.0551
  137SAPE  H12A14830   6.835   6.249  10.630 -1.4677  2.0649  0.2105
  137SAPE  H12B14831   6.691   6.252  10.528 -2.2430 -1.6136 -0.1179
  137SAPE   C1114832   6.743   6.054  10.630  0.5024 -0.4975  0.2982
  137SAPE  H11A14833   6.802   6.005  10.550  1.8278 -0.0027  0.9557
  137SAPE  H11B14834   6.645   6.024  10.589  0.9836 -3.5045  1.2768
  137SAPE     P14835   6.718   5.878  10.816 -0.2762  0.2314 -0.2527
  137SAPE   O1314836   6.826   5.813  10.888 -0.3858 -0.0273  0.5696
  137SAPE   O1414837   6.595   5.907  10.895 -0.3251  0.0301 -0.0850
  137SAPE   O1214838   6.779   6.008  10.762  0.2125  0.0900  0.2506
  137SAPE   O1114839   6.677   5.783  10.701 -0.5266 -0.1874  0.0364
  137SAPE    C114840   6.764   5.670  10.668 -0.2930 -0.0127  0.1309
  137SAPE    HA14841   6.804   5.618  10.758 -1.1367  0.6431  0.8968
  137SAPE    HB14842   6.702   5.598  10.611 -1.1113  0.3419  0.5649
  137SAPE    C214843   6.872   5.720  10.570  0.1692  0.2478  0.3059
  137SAPE    HS14844   6.910   5.816  10.612 -1.3953  0.8961  0.2667
  137SAPE   O2114845   6.808   5.738  10.438  0.3898  0.1912  0.4797
  137SAPE   C2114846   6.870   5.817  10.357  0.0530  0.0160  0.1074
  137SAPE   O2214847   6.957   5.900  10.388 -0.2048  0.0970  0.4332
  137SAPE   C2214848   6.813   5.796  10.221 -0.2611  0.3864  0.6800
  137SAPE   H2R14849   6.857   5.698  10.193 -1.5621 -0.0983  0.3073
  137SAPE   H2S14850   6.703   5.789  10.215 -0.2408  1.7058 -2.6770
  137SAPE    C314851   6.987   5.617  10.555  0.0277  0.1566  0.0908
  137SAPE    HX14852   6.945   5.514  10.556  0.9193 -0.2156  2.4717
  137SAPE    HY14853   7.040   5.623  10.652 -0.2571  1.4715  0.1702
  137SAPE   O3114854   7.069   5.643  10.441  0.2347 -0.2279 -0.5690
  137SAPE   C3114855   7.184   5.712  10.455 -0.4736  1.3810  0.7528
  137SAPE   O3214856   7.228   5.759  10.556  0.1499 -0.0015 -0.2809
  137SAPE   C3214857   7.253   5.724  10.314 -0.6174  0.0003 -1.1150
  137SAPE   H2X14858   7.168   5.726  10.243 -1.4248 -1.7038 -0.2292
  137SAPE   H2Y14859   7.321   5.636  10.316  0.6950  0.9977  2.0587
  137SAPE   C2314860   6.873   5.899  10.128  0.0444  0.3537 -0.0417
  137SAPE   H3R14861   6.983   5.905  10.134 -0.1378  1.1682  3.1186
  137SAPE   H3S14862   6.830   5.994  10.168  0.0557  0.8306 -1.1413
  137SAPE   C2414863   6.837   5.873   9.979 -0.2144  0.3253  0.6625
  137SAPE   H4R14864   6.843   5.764   9.960  0.6204  0.4957 -0.0813
  137SAPE   H4S14865   6.909   5.918   9.907  0.9972 -2.0988  0.3247
  137SAPE   C2514866   6.686   5.910   9.949  0.0039 -0.0525  0.0132
  137SAPE   H5R14867   6.621   5.897  10.037  1.0224 -2.0249  0.5025
  137SAPE   C2614868   6.630   5.957   9.831  0.1975 -0.3784 -0.3334
  137SAPE   H6R14869   6.530   6.004   9.826  1.9382  3.9458  2.6321
  137SAPE   C2714870   6.716   5.989   9.708  0.5618 -1.0525 -0.0494
  137SAPE   H7R14871   6.810   6.036   9.745  0.0693 -0.6040  0.6244
  137SAPE   H7S14872   6.678   6.078   9.653  1.8728  2.4219  4.3941
  137SAPE   C2814873   6.747   5.879   9.614 -0.1656  0.0276  0.0357
  137SAPE   H8R14874   6.820   5.804   9.651  2.9090  2.0163 -1.7314
  137SAPE   C2914875   6.721   5.869   9.481 -0.0123 -0.0622 -0.2420
  137SAPE   H9R14876   6.742   5.772   9.433  0.6287  0.3501 -0.8038
  137SAPE  C21014877   6.649   5.966   9.394  0.3786 -0.4418  0.2098
  137SAPE  H10R14878   6.549   5.986   9.437 -0.8094  0.7007 -2.8941
  137SAPE  H10S14879   6.621   5.910   9.302  3.3289 -0.2256 -0.8807
  137SAPE  C21114880   6.705   6.103   9.364 -0.0363 -0.6567 -0.2655
  137SAPE  H11R14881   6.761   6.143   9.450  0.0756  1.0941 -1.1243
  137SAPE  C21214882   6.708   6.167   9.246  0.7767  0.3596 -0.8457
  137SAPE  H12R14883   6.725   6.275   9.256 -2.9190  0.8654  0.6821
  137SAPE  C21314884   6.641   6.120   9.122  0.2534 -0.2956  0.0923
  137SAPE  H13R14885   6.558   6.192   9.102 -0.5634 -0.4023  2.8006
  137SAPE  H13S14886   6.587   6.026   9.143  0.3803 -0.0398  1.7041
  137SAPE  C21414887   6.734   6.096   9.004  0.6542 -0.0920  1.0615
  137SAPE  H14R14888   6.828   6.044   9.027  0.3078 -1.4905 -0.6609
  137SAPE  C21514889   6.702   6.116   8.874 -0.2401 -0.5367  0.3533
  137SAPE  H15R14890   6.789   6.081   8.816 -0.9308 -0.5231 -0.7213
  137SAPE  C21614891   6.578   6.182   8.810  0.1309  0.4944  0.4548
  137SAPE  H16R14892   6.589   6.287   8.775 -0.5977  0.5981  0.5259
  137SAPE  H16S14893   6.491   6.189   8.879  0.9060  0.6512  1.4288
  137SAPE  C21714894   6.527   6.098   8.695  0.3054  0.4603 -0.6633
  137SAPE  H17R14895   6.430   6.147   8.672  1.1562  0.5149 -4.5345
  137SAPE  H17S14896   6.505   5.990   8.710 -0.4744  0.6632 -0.3457
  137SAPE  C21814897   6.611   6.113   8.571 -0.5032 -0.5243  0.6826
  137SAPE  H18R14898   6.714   6.074   8.586 -1.2480 -2.7611  0.1493
  137SAPE  H18S14899   6.626   6.220   8.545 -0.9450  0.0340  2.6182
  137SAPE  C21914900   6.538   6.063   8.447  0.9784 -0.0718 -0.5816
  137SAPE  H19R14901   6.441   6.114   8.433 -0.8168 -2.4746  2.3694
  137SAPE  H19S14902   6.529   5.953   8.460  4.0421 -0.1780  1.0677
  137SAPE  C22014903   6.627   6.089   8.320  0.2058  1.0317 -0.0774
  137SAPE  H20R14904   6.673   6.189   8.333 -2.2100  2.1200  0.4963
  137SAPE  H20S14905   6.584   6.064   8.220 -2.0197 -3.9995  1.9566
  137SAPE  H20T14906   6.717   6.024   8.314 -0.1002  0.7173 -1.5108
  137SAPE   C3314907   7.348   5.851  10.302 -0.3558  0.1443  0.0060
  137SAPE   H3X14908   7.434   5.845  10.372  0.0423 -0.7817 -0.5588
  137SAPE   H3Y14909   7.292   5.942  10.331 -1.7622  0.0393 -2.2353
  137SAPE   C3414910   7.390   5.870  10.157  0.2126 -0.0225  0.9355
  137SAPE   H4X14911   7.401   5.771  10.107 -0.2802  0.6560 -0.5639
  137SAPE   H4Y14912   7.484   5.927  10.147 -0.8517  1.7373  0.6875
  137SAPE   C3514913   7.281   5.945  10.070  0.0443  0.3241  0.4398
  137SAPE   H5X14914   7.245   6.037  10.121 -1.0338  0.9096 -1.3086
  137SAPE   H5Y14915   7.198   5.871  10.058 -1.9392  2.7002 -1.0044
  137SAPE   C3614916   7.324   5.991   9.929 -0.2318  0.3933 -0.0841
  137SAPE   H6X14917   7.409   5.928   9.895  2.1313  3.6712 -0.5284
  137SAPE   H6Y14918   7.365   6.095   9.933  0.5815  0.0547  0.4858
  137SAPE   C3714919   7.206   5.984   9.841  0.8472  0.5671  0.8175
  137SAPE   H7X14920   7.133   6.064   9.865 -1.0824 -0.5433 -1.1601
  137SAPE   H7Y14921   7.150   5.891   9.864  1.4795 -0.7191 -2.5540
  137SAPE   C3814922   7.228   5.993   9.687  1.0767  0.6883 -0.2609
  137SAPE   H8X14923   7.305   5.921   9.652 -1.3820 -1.8520 -0.5963
  137SAPE   H8Y14924   7.273   6.093   9.667 -2.3345  2.8344  2.2479
  137SAPE   C3914925   7.094   5.965   9.606  0.1748 -0.0604  0.0633
  137SAPE   H9X14926   7.001   6.009   9.647 -0.7287 -1.5174 -0.3762
  137SAPE   H9Y14927   7.078   5.855   9.614 -0.9346  0.2578  3.0856
  137SAPE  C31014928   7.090   6.005   9.456 -0.4312 -0.6098 -0.4365
  137SAPE  H10X14929   7.081   6.116   9.448  0.4911 -0.5731 -1.1387
  137SAPE  H10Y14930   6.993   5.966   9.419 -0.8243 -2.8864  2.8210
  137SAPE  C31114931   7.199   5.944   9.368  0.0244  0.4671 -0.0248
  137SAPE  H11X14932   7.183   5.834   9.371  1.9025  0.0210 -3.6837
  137SAPE  H11Y14933   7.297   5.972   9.412 -0.7114  2.8537  0.1831
  137SAPE  C31214934   7.193   6.005   9.231 -0.2571 -0.2896  0.3640
  137SAPE  H12X14935   7.202   6.112   9.260 -1.5845  0.1632 -0.8263
  137SAPE  H12Y14936   7.093   5.993   9.183  0.5818 -1.5132 -1.1080
  137SAPE  C31314937   7.308   5.986   9.139  0.3841 -0.3039 -0.3849
  137SAPE  H13X14938   7.312   5.878   9.113  0.4194 -0.0842 -1.3076
  137SAPE  H13Y14939   7.398   6.013   9.199 -0.2026 -0.7146  0.6897
  137SAPE  C31414940   7.287   6.064   9.008  0.0208 -0.9376 -0.1771
  137SAPE  H14X14941   7.378   6.058   8.944 -0.1652 -2.6451 -0.3164
  137SAPE  H14Y14942   7.279   6.172   9.033 -0.9420 -0.9784 -0.3049
  137SAPE  C31514943   7.174   6.015   8.920  0.2984  0.1312 -0.6173
  137SAPE  H15X14944   7.086   6.025   8.988 -0.7190  3.2316 -2.3083
  137SAPE  H15Y14945   7.193   5.909   8.894 -1.2770 -0.6638  1.3278
  137SAPE  C31614946   7.143   6.089   8.787 -0.2438  0.7406  0.1859
  137SAPE  H16X14947   7.066   6.037   8.727  1.1997 -3.0007  1.4020
  137SAPE  H16Y14948   7.235   6.097   8.727 -0.8298 -1.1889 -1.0241
  137SAPE  C31714949   7.088   6.229   8.820  0.6832  0.8016  0.2839
  137SAPE  H17X14950   7.174   6.299   8.827  1.4975 -0.0714 -0.7605
  137SAPE  H17Y14951   7.036   6.228   8.918 -2.0279 -2.4198 -1.0878
  137SAPE  C31814952   6.991   6.265   8.714  0.6209  0.1858 -0.7139
  137SAPE  H18X14953   7.038   6.252   8.614  0.0440  4.3530 -1.5997
  137SAPE  H18Y14954   6.962   6.370   8.735 -0.6542 -0.4073  0.6219
  137SAPE  H18Z14955   6.897   6.207   8.725 -0.5339  2.1357 -0.1754
  138SAPE     N14956   4.380   0.059  10.870 -0.1450 -0.3232 -0.1213
  138SAPE   HN114957   4.281   0.076  10.841 -0.2102  0.7050  0.6544
  138SAPE   HN214958   4.431   0.026  10.786 -4.2430 -0.7092 -2.6036
  138SAPE   HN314959   4.385  -0.021  10.935  1.2481 -1.4705 -1.6042
  138SAPE   C1214960   4.426   0.187  10.921 -0.3152  0.0854 -0.0619
  138SAPE  H12A14961   4.355   0.229  10.996 -1.2165 -1.2913 -0.1382
  138SAPE  H12B14962   4.415   0.254  10.833 -0.3352 -0.2023 -0.2785
  138SAPE   C1114963   4.557   0.177  10.995  0.8607 -0.2058 -0.0626
  138SAPE  H11A14964   4.542   0.106  11.079  1.1819 -0.7600 -0.4659
  138SAPE  H11B14965   4.591   0.275  11.034  0.7510  0.0579 -0.6131
  138SAPE     P14966   4.749   0.218  10.825 -0.1796  0.0555 -0.1870
  138SAPE   O1314967   4.781   0.331  10.916 -0.2583  0.8302  0.6911
  138SAPE   O1414968   4.859   0.131  10.780  0.5036 -0.2857  0.3487
  138SAPE   O1214969   4.658   0.119  10.909 -0.5104 -0.0796 -0.3865
  138SAPE   O1114970   4.658   0.264  10.717  0.0987 -0.2827 -0.1484
  138SAPE    C114971   4.600   0.176  10.619  0.0668 -0.0729 -0.3878
  138SAPE    HA14972   4.599   0.068  10.646 -0.8895  0.2776  0.9785
  138SAPE    HB14973   4.490   0.191  10.609 -0.1700 -1.5414 -0.0300
  138SAPE    C214974   4.685   0.192  10.486  0.0058 -0.2619  0.9810
  138SAPE    HS14975   4.787   0.152  10.503 -0.2443 -2.0800 -1.4837
  138SAPE   O2114976   4.688   0.330  10.443  0.3481 -0.2386 -0.0513
  138SAPE   C2114977   4.802   0.379  10.403  0.0118 -0.0927  0.0306
  138SAPE   O2214978   4.911   0.331  10.404  0.0578  0.2838  0.0193
  138SAPE   C2214979   4.779   0.513  10.340 -0.3772  0.9729  0.0203
  138SAPE   H2R14980   4.672   0.542  10.328 -0.8900  0.3605  2.6668
  138SAPE   H2S14981   4.826   0.585  10.412 -0.8022  1.3983 -0.1224
  138SAPE    C314982   4.639   0.099  10.369  0.3036 -1.1336  0.2088
  138SAPE    HX14983   4.528   0.100  10.364  0.3031 -1.5038  0.0916
  138SAPE    HY14984   4.675  -0.002  10.399 -0.3120 -1.5940 -0.5944
  138SAPE   O3114985   4.691   0.129  10.237 -0.4622  0.2578 -0.1972
  138SAPE   C3114986   4.640   0.050  10.147 -0.4848  0.1132 -0.6809
  138SAPE   O3214987   4.578  -0.054  10.171 -0.0720 -0.0877 -0.0653
  138SAPE   C3214988   4.670   0.109  10.011  0.9101 -0.4171 -0.5750
  138SAPE   H2X14989   4.777   0.139  10.002  0.5383  0.9676 -0.3376
  138SAPE   H2Y14990   4.607   0.200  10.005  0.3866 -0.7452 -0.0464
  138SAPE   C2314991   4.839   0.535  10.200  0.2588 -0.2099  0.2444
  138SAPE   H3R14992   4.771   0.492  10.123  0.5703  1.0121 -0.7318
  138SAPE   H3S14993   4.944   0.506  10.175 -0.1773 -2.5625  1.0210
  138SAPE   C2414994   4.845   0.678  10.159 -0.5184  0.2072  0.3911
  138SAPE   H4R14995   4.872   0.688  10.051  0.6920  2.5169  0.8756
  138SAPE   H4S14996   4.925   0.740  10.205  0.1728 -0.6159  0.3180
  138SAPE   C2514997   4.708   0.752  10.173 -0.7595  0.2345 -0.2663
  138SAPE   H5R14998   4.692   0.773  10.280  0.2898  0.2703 -0.1040
  138SAPE   C2614999   4.619   0.784  10.072  0.6685 -0.2793 -0.1605
  138SAPE   H6R15000   4.518   0.815  10.101  0.1336  0.1916 -2.4394
  138SAPE   C2715001   4.627   0.743   9.928 -0.2676  0.8601 -0.7817
  138SAPE   H7R15002   4.529   0.691   9.914  0.8662 -1.3574 -0.7219
  138SAPE   H7S15003   4.705   0.665   9.914 -1.5535 -0.4052 -1.1516
  138SAPE   C2815004   4.650   0.863   9.838  0.1637 -0.4570 -0.2385
  138SAPE   H8R15005   4.697   0.950   9.885  0.5227 -0.6233 -0.2854
  138SAPE   C2915006   4.626   0.872   9.708 -0.5666  0.7656 -0.1537
  138SAPE   H9R15007   4.644   0.972   9.665  2.8611  0.0633 -0.4644
  138SAPE  C21015008   4.580   0.762   9.611 -0.0578 -0.0266 -0.3076
  138SAPE  H10R15009   4.528   0.687   9.675  0.2129 -0.0017 -0.0593
  138SAPE  H10S15010   4.666   0.714   9.560  1.8537  2.0596  0.8955
  138SAPE  C21115011   4.466   0.801   9.521 -0.0865  0.0436  1.1569
  138SAPE  H11R15012   4.370   0.815   9.572  0.1017 -0.2518  1.5910
  138SAPE  C21215013   4.473   0.818   9.389  0.8393 -0.3576  0.1316
  138SAPE  H12R15014   4.384   0.855   9.335  1.1711  0.3088  0.0377
  138SAPE  C21315015   4.601   0.818   9.308 -0.4914  0.1706 -0.5231
  138SAPE  H13R15016   4.618   0.711   9.284  0.9998  0.1942  0.3911
  138SAPE  H13S15017   4.689   0.847   9.369 -0.2251 -1.3293 -0.1839
  138SAPE  C21415018   4.597   0.899   9.184 -1.0557 -0.6494 -0.0863
  138SAPE  H14R15019   4.602   1.006   9.209  0.8694 -0.9564  0.9500
  138SAPE  C21515020   4.604   0.852   9.059 -0.5850 -0.0454  0.1017
  138SAPE  H15R15021   4.606   0.922   8.974  2.5838 -0.1164  0.0337
  138SAPE  C21615022   4.593   0.704   9.021 -0.2647 -0.5058  0.3770
  138SAPE  H16R15023   4.531   0.685   8.932  0.2793  2.0473 -0.5935
  138SAPE  H16S15024   4.553   0.642   9.104  1.1892 -0.7711  0.9116
  138SAPE  C21715025   4.723   0.631   8.991 -1.1383 -0.4724  0.5361
  138SAPE  H17R15026   4.765   0.656   8.891  3.0233 -2.5582  1.6617
  138SAPE  H17S15027   4.701   0.522   8.987  2.5803 -1.2511 -0.6602
  138SAPE  C21815028   4.831   0.647   9.093  0.7048 -0.0502 -0.0832
  138SAPE  H18R15029   4.798   0.629   9.198  0.8590  4.6977  0.8685
  138SAPE  H18S15030   4.865   0.752   9.097  2.0176 -0.5267  2.6904
  138SAPE  C21915031   4.949   0.556   9.070 -0.0657  0.6208  0.2991
  138SAPE  H19R15032   4.955   0.540   8.961 -2.1007  0.1923  0.2332
  138SAPE  H19S15033   4.935   0.458   9.120 -1.5268  0.4785 -0.3673
  138SAPE  C22015034   5.087   0.594   9.125  0.0085 -0.0086 -0.2955
  138SAPE  H20R15035   5.158   0.517   9.089 -1.1115 -2.3449  2.3171
  138SAPE  H20S15036   5.081   0.587   9.236 -5.1775  0.1308 -0.4332
  138SAPE  H20T15037   5.123   0.694   9.094  2.7370 -0.6127  0.7699
  138SAPE   C3315038   4.609   0.019   9.906 -0.4264 -0.0251 -1.0140
  138SAPE   H3X15039   4.508  -0.004   9.945  0.3544  1.3255  1.9550
  138SAPE   H3Y15040   4.668  -0.075   9.905  0.4531  0.4383  2.5907
  138SAPE   C3415041   4.604   0.081   9.761  0.1467 -0.0610 -0.2467
  138SAPE   H4X15042   4.698   0.128   9.725 -1.0460  2.5953 -0.0320
  138SAPE   H4Y15043   4.527   0.161   9.762  0.2554  0.0383  1.1512
  138SAPE   C3515044   4.557  -0.016   9.656 -0.2005 -0.0916 -0.9369
  138SAPE   H5X15045   4.606  -0.116   9.664  1.6716  0.8161 -0.8157
  138SAPE   H5Y15046   4.579   0.027   9.556  1.2906  1.0320 -0.1458
  138SAPE   C3615047   4.405  -0.034   9.656  0.2421  0.0552  0.5332
  138SAPE   H6X15048   4.346   0.057   9.681 -3.5739 -2.3053  0.5637
  138SAPE   H6Y15049   4.377  -0.113   9.729  1.0069 -2.1954 -1.5412
  138SAPE   C3715050   4.364  -0.096   9.525 -0.5830  0.4009 -0.1278
  138SAPE   H7X15051   4.423  -0.185   9.493 -0.8413  0.3166 -0.3614
  138SAPE   H7Y15052   4.375  -0.013   9.452  1.3246  1.0746  0.8795
  138SAPE   C3815053   4.219  -0.148   9.522  1.1204 -0.1526  0.7206
  138SAPE   H8X15054   4.158  -0.066   9.567  3.0017  0.7123  1.7278
  138SAPE   H8Y15055   4.215  -0.231   9.596  0.3792 -2.2250 -1.5786
  138SAPE   C3915056   4.166  -0.185   9.378 -0.0441 -1.0399  0.1311
  138SAPE   H9X15057   4.064  -0.230   9.378  0.1964 -1.6194  1.1900
  138SAPE   H9Y15058   4.230  -0.256   9.322  0.2610 -0.3548 -0.3997
  138SAPE  C31015059   4.154  -0.065   9.284  0.2130 -0.3173 -0.3225
  138SAPE  H10X15060   4.254  -0.018   9.276  0.5217 -0.3559  2.7832
  138SAPE  H10Y15061   4.087   0.008   9.333 -2.2165 -2.5333 -0.2670
  138SAPE  C31115062   4.106  -0.103   9.148  0.3482  0.9092 -0.0689
  138SAPE  H11X15063   4.018  -0.171   9.147  1.1113 -0.1188  1.0154
  138SAPE  H11Y15064   4.185  -0.161   9.094  1.8358  0.8043  2.1909
  138SAPE  C31215065   4.079   0.026   9.079 -0.0831  0.4659  1.0417
  138SAPE  H12X15066   4.167   0.093   9.082  1.4472 -1.5032  1.3369
  138SAPE  H12Y15067   4.000   0.080   9.136 -1.5302  3.8970 -3.9206
  138SAPE  C31315068   4.029   0.013   8.934  0.1634 -0.1903  0.6147
  138SAPE  H13X15069   3.976   0.107   8.906  0.8551  0.3615  1.1438
  138SAPE  H13Y15070   3.956  -0.070   8.925  2.1895 -1.8213 -1.5058
  138SAPE  C31415071   4.149  -0.009   8.839  0.3161  0.8126 -0.5918
  138SAPE  H14X15072   4.190  -0.110   8.863 -1.1705  0.4283  0.4282
  138SAPE  H14Y15073   4.231   0.062   8.863  0.9568 -0.4183  0.9426
  138SAPE  C31515074   4.113  -0.014   8.690  0.0488 -1.0392 -0.0286
  138SAPE  H15X15075   4.068   0.086   8.672 -0.9642 -1.2489  1.2610
  138SAPE  H15Y15076   4.033  -0.090   8.678 -0.6526 -0.2575 -0.3757
  138SAPE  C31615077   4.232  -0.045   8.602 -0.1226  0.7628  0.0336
  138SAPE  H16X15078   4.282  -0.128   8.657 -0.7568 -0.4518 -1.2034
  138SAPE  H16Y15079   4.305   0.039   8.605  0.3219  0.3955 -0.5150
  138SAPE  C31715080   4.188  -0.074   8.454 -0.1278 -0.0465 -0.7758
  138SAPE  H17X15081   4.124   0.011   8.421 -2.0143 -1.5084 -1.0246
  138SAPE  H17Y15082   4.120  -0.162   8.447 -2.3424  1.6590 -1.3917
  138SAPE  C31815083   4.314  -0.092   8.369  0.0928  0.1182  0.4674
  138SAPE  H18X15084   4.391  -0.012   8.375 -0.8898  1.1582 -0.7144
  138SAPE  H18Y15085   4.297  -0.114   8.262 -1.0826 -2.2344  1.1140
  138SAPE  H18Z15086   4.375  -0.176   8.409 -0.2570 -1.2806 -1.9015
  139SAPE     N15087   4.106   4.995  10.498  0.5042 -0.5973 -0.0739
  139SAPE   HN115088   4.009   5.033  10.500  0.2999 -1.1151 -0.1919
  139SAPE   HN215089   4.171   5.072  10.472  0.6357 -0.3482  0.9598
  139SAPE   HN315090   4.116   4.921  10.426  3.6384 -0.7036  0.3807
  139SAPE   C1215091   4.137   4.951  10.632 -0.0075  0.4315 -0.2448
  139SAPE  H12A15092   4.078   4.860  10.659 -0.9482 -0.0894 -3.7803
  139SAPE  H12B15093   4.111   5.028  10.708  1.8144 -0.2839  1.1374
  139SAPE   C1115094   4.285   4.928  10.643 -1.0388 -0.5296 -0.3586
  139SAPE  H11A15095   4.329   4.868  10.561 -1.0540 -1.5829  0.3954
  139SAPE  H11B15096   4.309   4.871  10.736  0.4927  1.3443  0.4215
  139SAPE     P15097   4.444   5.134  10.557  0.0154 -0.6155 -0.1357
  139SAPE   O1315098   4.479   5.259  10.610  0.4932 -0.1231  0.1525
  139SAPE   O1415099   4.547   5.046  10.507 -0.2705  0.0676  0.1224
  139SAPE   O1215100   4.355   5.055  10.664 -0.3159 -0.0656  0.3248
  139SAPE   O1115101   4.343   5.164  10.441  0.8268 -0.1750  0.6910
  139SAPE    C115102   4.396   5.254  10.337 -0.2562 -1.0158 -0.5351
  139SAPE    HA15103   4.342   5.350  10.346  1.6674  0.1132 -0.7248
  139SAPE    HB15104   4.503   5.285  10.345 -1.2689  2.3162  0.4034
  139SAPE    C215105   4.370   5.201  10.194  0.7009 -0.2263 -0.7777
  139SAPE    HS15106   4.409   5.277  10.123 -1.6072  2.2332  0.4723
  139SAPE   O2115107   4.234   5.180  10.168  0.9376 -0.1509 -0.2427
  139SAPE   C2115108   4.163   5.288  10.154  0.5192 -0.0224 -0.3348
  139SAPE   O2215109   4.206   5.399  10.146 -0.6397  0.4256 -0.4244
  139SAPE   C2215110   4.013   5.254  10.135  0.3708  0.1867 -0.0101
  139SAPE   H2R15111   4.015   5.148  10.102  0.2408  0.3144 -0.4439
  139SAPE   H2S15112   3.983   5.259  10.241  0.4587  1.2696 -0.0321
  139SAPE    C315113   4.452   5.074  10.177 -0.6166 -0.1619  1.1033
  139SAPE    HX15114   4.436   5.000  10.258 -1.0435 -1.0850  0.1732
  139SAPE    HY15115   4.557   5.112  10.187  0.4189 -2.5915 -0.1624
  139SAPE   O3115116   4.456   5.030  10.041 -0.1460  0.0875  0.0438
  139SAPE   C3115117   4.374   4.931  10.009 -0.5406  0.0529  0.0291
  139SAPE   O3215118   4.289   4.886  10.082 -0.2862  0.6937 -0.0091
  139SAPE   C3215119   4.401   4.881   9.865  0.4006  0.2985  0.7920
  139SAPE   H2X15120   4.509   4.859   9.857  0.6645  1.8312  0.0306
  139SAPE   H2Y15121   4.381   4.977   9.812 -1.5302  0.4503  1.7506
  139SAPE   C2315122   3.929   5.356  10.053  0.2255 -0.3140 -0.2118
  139SAPE   H3R15123   3.969   5.455  10.084  1.2005 -0.8034  0.0923
  139SAPE   H3S15124   3.824   5.348  10.089  1.0221 -0.2227  2.2832
  139SAPE   C2415125   3.931   5.334   9.904 -0.1915  0.2649  0.3572
  139SAPE   H4R15126   3.852   5.261   9.874 -0.2678 -0.6865  2.7929
  139SAPE   H4S15127   4.028   5.284   9.879 -0.7288 -0.0490 -1.1612
  139SAPE   C2515128   3.915   5.453   9.813  0.2208  0.3220 -0.3619
  139SAPE   H5R15129   3.813   5.456   9.772  1.0361 -1.3776 -2.5733
  139SAPE   C2615130   4.013   5.536   9.770  0.1423  0.3229 -0.0885
  139SAPE   H6R15131   3.974   5.614   9.703 -1.3317 -0.4514 -0.1550
  139SAPE   C2715132   4.158   5.519   9.801 -0.5298  0.1966 -0.5492
  139SAPE   H7R15133   4.208   5.468   9.716  0.8247 -3.7525  2.4793
  139SAPE   H7S15134   4.179   5.457   9.891  3.5372  0.8878 -0.9408
  139SAPE   C2815135   4.214   5.652   9.824  0.2392 -0.3409 -0.9848
  139SAPE   H8R15136   4.207   5.691   9.926  3.4902  1.4609 -1.3460
  139SAPE   C2915137   4.275   5.728   9.730  0.2757 -0.1183  0.3858
  139SAPE   H9R15138   4.324   5.822   9.761  0.7787 -0.1718 -0.2287
  139SAPE  C21015139   4.314   5.688   9.588  0.5321  0.5894 -0.1312
  139SAPE  H10R15140   4.267   5.591   9.565  0.1740  0.5791  0.6563
  139SAPE  H10S15141   4.424   5.673   9.592  0.3532 -0.2149  2.7110
  139SAPE  C21115142   4.281   5.797   9.482 -0.2621 -0.0060 -0.5368
  139SAPE  H11R15143   4.222   5.876   9.529 -1.1279  1.1595 -3.5075
  139SAPE  C21215144   4.323   5.797   9.351  0.5313 -0.4290 -0.5518
  139SAPE  H12R15145   4.283   5.875   9.285 -0.8903  0.4896  1.3391
  139SAPE  C21315146   4.415   5.691   9.291  0.4303 -0.6699  0.3612
  139SAPE  H13R15147   4.471   5.660   9.382 -0.8328 -1.6147  0.8288
  139SAPE  H13S15148   4.487   5.743   9.225  0.6001 -1.5467 -0.1566
  139SAPE  C21415149   4.363   5.585   9.199  0.5428  0.3340 -0.0121
  139SAPE  H14R15150   4.385   5.485   9.239 -1.2008  0.7375  2.0118
  139SAPE  C21515151   4.274   5.590   9.097 -0.0827  0.1550  0.1179
  139SAPE  H15R15152   4.224   5.500   9.057 -0.4157 -0.3920  1.7228
  139SAPE  C21615153   4.215   5.718   9.034  0.1026  0.1489 -0.3008
  139SAPE  H16R15154   4.274   5.809   9.057  1.4334 -0.3621 -1.6444
  139SAPE  H16S15155   4.121   5.749   9.085  1.1040  1.2170  0.9280
  139SAPE  C21715156   4.185   5.709   8.884 -0.2021  0.4575 -0.6351
  139SAPE  H17R15157   4.162   5.601   8.877  0.7795  0.1048  1.1745
  139SAPE  H17S15158   4.277   5.737   8.827 -0.0382  2.5907  0.6151
  139SAPE  C21815159   4.070   5.798   8.849  0.6370  0.3348  0.4255
  139SAPE  H18R15160   4.095   5.904   8.870  1.9927 -0.3667  2.4823
  139SAPE  H18S15161   3.985   5.766   8.913  0.7350  0.4543  0.6158
  139SAPE  C21915162   4.028   5.792   8.705  0.1766  0.4417  0.2520
  139SAPE  H19R15163   4.004   5.684   8.691  2.9180 -0.2381  0.6506
  139SAPE  H19S15164   4.121   5.816   8.649 -0.0990  1.6993  0.3222
  139SAPE  C22015165   3.912   5.887   8.647 -0.2191  0.4767 -0.1059
  139SAPE  H20R15166   3.810   5.856   8.680  0.4421 -0.5916  1.0027
  139SAPE  H20S15167   3.908   5.887   8.536 -2.3702 -1.5746 -0.0838
  139SAPE  H20T15168   3.931   5.992   8.677 -2.6753  0.2010  2.6516
  139SAPE   C3315169   4.307   4.775   9.808 -0.5437  0.5863 -0.4085
  139SAPE   H3X15170   4.203   4.811   9.825 -0.4458  0.5798  0.2282
  139SAPE   H3Y15171   4.309   4.687   9.876 -1.5356  0.8316 -0.0467
  139SAPE   C3415172   4.325   4.743   9.660 -0.0681  0.0442  0.7455
  139SAPE   H4X15173   4.435   4.734   9.651  0.1322  2.8352 -0.0378
  139SAPE   H4Y15174   4.280   4.824   9.599 -0.7742 -1.1939 -0.4095
  139SAPE   C3515175   4.246   4.616   9.621 -0.3023  0.0049  0.1525
  139SAPE   H5X15176   4.140   4.633   9.648 -0.1930  0.2956  0.3956
  139SAPE   H5Y15177   4.288   4.530   9.678 -0.8707 -1.4593 -1.5854
  139SAPE   C3615178   4.256   4.583   9.474  0.3049 -0.2593  0.7777
  139SAPE   H6X15179   4.363   4.569   9.447 -0.1311  0.5088 -1.3744
  139SAPE   H6Y15180   4.217   4.673   9.422 -0.3098  0.4722  2.4686
  139SAPE   C3715181   4.181   4.458   9.436  0.1253  0.1234  0.0803
  139SAPE   H7X15182   4.086   4.451   9.493 -0.3087 -0.5548 -0.7144
  139SAPE   H7Y15183   4.243   4.377   9.480  1.1425  1.8400  1.8872
  139SAPE   C3815184   4.158   4.440   9.287 -1.1905 -0.0356 -0.7623
  139SAPE   H8X15185   4.257   4.407   9.249 -0.4468  1.1231  0.0876
  139SAPE   H8Y15186   4.124   4.532   9.236 -0.2536  0.0798 -1.1987
  139SAPE   C3915187   4.051   4.332   9.269  0.8229  0.0067 -0.5110
  139SAPE   H9X15188   3.957   4.369   9.314  0.4430 -1.9736  0.3424
  139SAPE   H9Y15189   4.082   4.239   9.321 -1.8005 -0.1104  0.8722
  139SAPE  C31015190   4.024   4.306   9.120 -0.0590  0.2943 -0.0964
  139SAPE  H10X15191   4.126   4.281   9.084 -0.1482 -1.0618  0.5779
  139SAPE  H10Y15192   4.006   4.398   9.060  1.3465 -0.2973 -1.4676
  139SAPE  C31115193   3.938   4.187   9.111  0.1593 -0.1063  0.1145
  139SAPE  H11X15194   3.832   4.218   9.123 -0.2875 -1.7867  0.6520
  139SAPE  H11Y15195   3.966   4.105   9.180 -1.0135 -1.3789 -0.8704
  139SAPE  C31215196   3.944   4.119   8.976 -0.0541 -0.2203  0.5989
  139SAPE  H12X15197   4.047   4.079   8.959 -0.3043  0.6366 -3.5981
  139SAPE  H12Y15198   3.935   4.194   8.894 -1.0286  1.2987  2.0734
  139SAPE  C31315199   3.849   4.002   8.949  0.1457 -0.5066 -0.4147
  139SAPE  H13X15200   3.743   4.037   8.954  0.9608  2.0335 -0.2126
  139SAPE  H13Y15201   3.863   3.930   9.033 -0.8084  0.9124  0.9959
  139SAPE  C31415202   3.877   3.931   8.813  0.8168  0.1356  0.3423
  139SAPE  H14X15203   3.862   4.002   8.729  0.6491 -0.3576 -0.0418
  139SAPE  H14Y15204   3.794   3.858   8.806  1.8144 -0.9007 -0.8756
  139SAPE  C31515205   4.011   3.852   8.810  0.0595  0.6351 -0.2075
  139SAPE  H15X15206   4.046   3.845   8.915 -0.2650  0.6499 -0.0987
  139SAPE  H15Y15207   4.081   3.908   8.744 -0.8835  2.2339  0.1308
  139SAPE  C31615208   3.982   3.717   8.749  0.8620  0.7415  0.2996
  139SAPE  H16X15209   4.055   3.642   8.788  0.6548  0.7662  0.7439
  139SAPE  H16Y15210   3.888   3.673   8.790  2.2813 -0.3388  2.5432
  139SAPE  C31715211   3.983   3.723   8.595  0.0506 -0.1205  0.0971
  139SAPE  H17X15212   4.077   3.778   8.573  1.2807 -1.6009  1.5331
  139SAPE  H17Y15213   3.886   3.759   8.557 -1.2839 -1.6665  1.9307
  139SAPE  C31815214   3.988   3.583   8.545  0.1318 -0.4468  0.8542
  139SAPE  H18X15215   3.894   3.529   8.566 -1.0071  0.1891 -2.3172
  139SAPE  H18Y15216   4.079   3.527   8.574  1.4185 -0.3583 -2.6813
  139SAPE  H18Z15217   3.993   3.603   8.435  2.5937 -1.3885  0.7634
  140SAPE     N15218   6.630   2.698  10.773 -0.2682 -0.0357 -0.1946
  140SAPE   HN115219   6.560   2.722  10.700  0.1968 -1.8603 -1.2931
  140SAPE   HN215220   6.573   2.639  10.837  0.1532  0.8755  1.0290
  140SAPE   HN315221   6.660   2.784  10.822 -0.7338  0.0415 -0.0464
  140SAPE   C1215222   6.764   2.656  10.723  0.9966 -0.6665  0.1972
  140SAPE  H12A15223   6.837   2.656  10.807  1.1494 -0.3408  0.0647
  140SAPE  H12B15224   6.799   2.730  10.648  1.1054 -0.8007  0.1153
  140SAPE   C1115225   6.772   2.523  10.652  1.0647  0.0849  0.2430
  140SAPE  H11A15226   6.861   2.504  10.588  0.9027 -1.5637  0.4736
  140SAPE  H11B15227   6.683   2.530  10.587 -1.2436  2.1183  3.5046
  140SAPE     P15228   6.626   2.344  10.790  0.0649 -0.0766 -0.6695
  140SAPE   O1315229   6.669   2.220  10.862  0.1204  0.4699  0.6339
  140SAPE   O1415230   6.556   2.449  10.867 -0.6314  0.2577  0.0542
  140SAPE   O1215231   6.761   2.414  10.743  0.0941  0.5591 -0.3524
  140SAPE   O1115232   6.527   2.303  10.668 -0.9928 -0.0789  0.2433
  140SAPE    C115233   6.584   2.263  10.539 -0.6503 -0.8089 -0.3430
  140SAPE    HA15234   6.648   2.337  10.487  0.5818 -0.5910  1.4328
  140SAPE    HB15235   6.629   2.162  10.549  2.6434  0.5875 -0.6107
  140SAPE    C215236   6.477   2.228  10.435 -0.0489  0.1506  0.1222
  140SAPE    HS15237   6.410   2.146  10.468  0.6283 -0.4026  0.1347
  140SAPE   O2115238   6.539   2.197  10.305 -0.0612 -0.4516  0.5882
  140SAPE   C2115239   6.568   2.075  10.268 -0.1202 -0.2432  0.1976
  140SAPE   O2215240   6.556   1.974  10.325  0.1841 -0.1200 -0.8216
  140SAPE   C2215241   6.599   2.069  10.121 -0.3322  0.3180 -0.1565
  140SAPE   H2R15242   6.548   1.985  10.070  3.0046 -1.5497 -0.6150
  140SAPE   H2S15243   6.574   2.168  10.078  0.7331  1.4376  1.7216
  140SAPE    C315244   6.384   2.355  10.410  0.4527  0.3540 -0.0655
  140SAPE    HX15245   6.463   2.430  10.391 -1.0820  1.5432 -2.0561
  140SAPE    HY15246   6.325   2.379  10.502 -2.4185 -1.5669 -1.3138
  140SAPE   O3115247   6.298   2.349  10.295  0.2160 -0.4014  0.0248
  140SAPE   C3115248   6.169   2.301  10.316  0.3527 -1.3935  0.5145
  140SAPE   O3215249   6.134   2.248  10.419  0.3012 -0.0820  0.6995
  140SAPE   C3215250   6.080   2.319  10.199 -0.6045  0.3240  0.4955
  140SAPE   H2X15251   5.986   2.363  10.240 -1.0792  0.3181 -0.5769
  140SAPE   H2Y15252   6.064   2.218  10.157 -1.8657  1.0922 -0.9212
  140SAPE   C2315253   6.747   2.039  10.093 -1.4017 -0.0138 -0.1108
  140SAPE   H3R15254   6.765   1.938  10.136 -1.7205  0.3724  0.9375
  140SAPE   H3S15255   6.812   2.112  10.145  0.7272 -2.2199  0.4162
  140SAPE   C2415256   6.770   2.033   9.941  0.2333  0.3770 -0.1844
  140SAPE   H4R15257   6.729   1.942   9.893  0.4322  0.1953 -0.0099
  140SAPE   H4S15258   6.881   2.019   9.935 -0.1112 -2.8100  0.1723
  140SAPE   C2515259   6.741   2.160   9.871 -0.0461 -0.4914  0.3983
  140SAPE   H5R15260   6.772   2.238   9.942  1.5706 -0.0122 -0.7799
  140SAPE   C2615261   6.689   2.178   9.750 -0.3599  0.2474  0.0281
  140SAPE   H6R15262   6.664   2.282   9.721  2.0541  1.3217  1.6281
  140SAPE   C2715263   6.643   2.085   9.640 -0.4886  0.1747  0.4607
  140SAPE   H7R15264   6.534   2.103   9.630 -0.5472  0.4933  1.6292
  140SAPE   H7S15265   6.673   1.982   9.668  0.2781 -0.3186 -1.9828
  140SAPE   C2815266   6.696   2.120   9.502  0.1129  0.4820 -0.1070
  140SAPE   H8R15267   6.749   2.216   9.498  1.0053 -0.0209 -0.5208
  140SAPE   C2915268   6.674   2.058   9.388  0.2602  0.6114 -0.5652
  140SAPE   H9R15269   6.680   2.121   9.298  2.2166  0.1593 -0.7736
  140SAPE  C21015270   6.614   1.915   9.365  0.0719  0.1253  0.5804
  140SAPE  H10R15271   6.617   1.870   9.467  0.6486 -1.0407  0.0625
  140SAPE  H10S15272   6.682   1.858   9.299 -0.0960 -0.7468  1.1578
  140SAPE  C21115273   6.473   1.919   9.321 -0.6038 -0.7784 -0.0934
  140SAPE  H11R15274   6.429   2.016   9.349  0.6828 -0.5699  1.2419
  140SAPE  C21215275   6.412   1.828   9.243  0.1895 -0.3786  0.1486
  140SAPE  H12R15276   6.310   1.846   9.206  0.0864 -1.0991  0.0657
  140SAPE  C21315277   6.482   1.705   9.182  0.8899 -0.7334 -0.3810
  140SAPE  H13R15278   6.545   1.657   9.260  2.7994 -1.6196 -2.4207
  140SAPE  H13S15279   6.547   1.733   9.096  3.0055  0.8930  1.6844
  140SAPE  C21415280   6.371   1.610   9.136 -0.4475 -0.6350 -0.5893
  140SAPE  H14R15281   6.286   1.615   9.206  1.9832 -1.0020  2.5012
  140SAPE  C21515282   6.370   1.534   9.027 -0.3921 -0.4802  0.0234
  140SAPE  H15R15283   6.285   1.467   9.005 -1.0197  0.4873 -0.5143
  140SAPE  C21615284   6.483   1.517   8.922  0.4993 -0.7501 -0.7439
  140SAPE  H16R15285   6.561   1.595   8.926  1.8362 -2.1411  1.0674
  140SAPE  H16S15286   6.445   1.513   8.817 -0.7124 -0.3515 -0.3362
  140SAPE  C21715287   6.570   1.397   8.957  0.5258  0.3002  0.3280
  140SAPE  H17R15288   6.512   1.303   8.972  3.2183 -1.3343  0.7160
  140SAPE  H17S15289   6.612   1.419   9.057 -0.6605  2.0348  0.4640
  140SAPE  C21815290   6.689   1.371   8.862 -0.4134  0.1266 -0.3029
  140SAPE  H18R15291   6.774   1.342   8.927 -2.3461 -1.2970  1.6857
  140SAPE  H18S15292   6.724   1.468   8.820 -0.7356  0.5464  0.3940
  140SAPE  C21915293   6.678   1.261   8.764  0.3321  0.9667 -0.1579
  140SAPE  H19R15294   6.612   1.188   8.817  1.1935  1.0669  1.0815
  140SAPE  H19S15295   6.773   1.204   8.753 -0.6445 -0.3577 -1.9113
  140SAPE  C22015296   6.615   1.287   8.626  0.4572 -0.2047 -0.7611
  140SAPE  H20R15297   6.669   1.366   8.569 -0.4345  2.3543  1.8188
  140SAPE  H20S15298   6.508   1.299   8.654  1.2255  2.9247  1.1281
  140SAPE  H20T15299   6.614   1.197   8.561 -2.4180 -1.3102  0.7485
  140SAPE   C3315300   6.129   2.417  10.097  0.0744  0.2250  0.5958
  140SAPE   H3X15301   6.231   2.384  10.066 -0.5164  0.5912 -1.7885
  140SAPE   H3Y15302   6.132   2.517  10.144  1.6543  1.1644 -1.4332
  140SAPE   C3415303   6.035   2.429   9.969  0.8928  0.3804 -0.0650
  140SAPE   H4X15304   6.052   2.529   9.923  1.8472  0.8746  1.3192
  140SAPE   H4Y15305   5.931   2.422  10.007  0.9005  0.8571  0.0381
  140SAPE   C3515306   6.049   2.302   9.879  0.8851 -0.0784  0.2073
  140SAPE   H5X15307   5.966   2.296   9.805  1.0715  0.4332 -0.0393
  140SAPE   H5Y15308   6.030   2.212   9.942 -1.4557  0.9492  1.0562
  140SAPE   C3615309   6.186   2.291   9.801 -0.3869  0.4027  0.1039
  140SAPE   H6X15310   6.269   2.292   9.875 -1.0953 -0.4136  0.9323
  140SAPE   H6Y15311   6.192   2.385   9.741 -0.9233  0.0641 -0.4823
  140SAPE   C3715312   6.196   2.166   9.712  0.3370  0.9006 -0.0015
  140SAPE   H7X15313   6.160   2.070   9.754 -1.0859  1.3204 -0.2607
  140SAPE   H7Y15314   6.301   2.146   9.681  0.4673  1.3119  0.1645
  140SAPE   C3815315   6.116   2.168   9.580  0.0011  0.2384  0.1615
  140SAPE   H8X15316   6.012   2.199   9.605  0.1000 -1.0780  2.2929
  140SAPE   H8Y15317   6.102   2.065   9.542 -2.0824  0.0774  1.3484
  140SAPE   C3915318   6.170   2.262   9.472 -0.0491  0.4411 -0.1660
  140SAPE   H9X15319   6.267   2.220   9.436 -1.1270 -0.3365 -2.2333
  140SAPE   H9Y15320   6.181   2.364   9.514 -1.1758  0.6975 -0.4910
  140SAPE  C31015321   6.086   2.267   9.347  0.0486 -0.3254  0.0168
  140SAPE  H10X15322   6.128   2.347   9.282 -1.6610  0.2523 -0.4117
  140SAPE  H10Y15323   5.979   2.288   9.368 -0.3891 -0.6533 -1.7772
  140SAPE  C31115324   6.071   2.128   9.281  0.2566 -0.3614  0.4975
  140SAPE  H11X15325   6.007   2.059   9.339  0.8168 -0.4411  1.0295
  140SAPE  H11Y15326   6.173   2.083   9.278 -0.5593 -2.1735 -0.6699
  140SAPE  C31215327   6.015   2.147   9.135 -0.1326  0.2397 -0.0554
  140SAPE  H12X15328   6.047   2.236   9.077  3.2050 -0.6537  0.3380
  140SAPE  H12Y15329   5.910   2.174   9.159 -0.7450 -1.1292 -1.1180
  140SAPE  C31315330   6.028   2.027   9.051 -0.4509 -0.3562 -0.2699
  140SAPE  H13X15331   5.963   2.041   8.962 -0.4233  0.1612 -0.2139
  140SAPE  H13Y15332   5.991   1.939   9.108 -1.6512 -0.2329 -0.8237
  140SAPE  C31415333   6.174   2.013   9.008  0.2542  1.4110 -0.6887
  140SAPE  H14X15334   6.241   2.015   9.096 -2.2352 -1.0994  1.3697
  140SAPE  H14Y15335   6.203   2.088   8.932  0.0233 -0.2046 -2.4098
  140SAPE  C31515336   6.211   1.871   8.943  0.5459 -0.5064 -0.2743
  140SAPE  H15X15337   6.173   1.796   9.015 -0.6908 -0.9624 -1.3686
  140SAPE  H15Y15338   6.320   1.862   8.923  0.5703 -2.3152  0.5656
  140SAPE  C31615339   6.146   1.848   8.804  0.6184 -0.2984  0.1103
  140SAPE  H16X15340   6.165   1.944   8.751 -1.3756  0.3559  0.5258
  140SAPE  H16Y15341   6.038   1.841   8.827  0.7717 -0.8225  0.6705
  140SAPE  C31715342   6.202   1.732   8.716 -0.2475 -0.0768  0.4983
  140SAPE  H17X15343   6.129   1.693   8.641  0.0809  0.7136 -0.2505
  140SAPE  H17Y15344   6.227   1.648   8.784  0.2711 -0.1750  0.1903
  140SAPE  C31815345   6.333   1.778   8.645 -0.1500 -0.2234  1.1826
  140SAPE  H18X15346   6.395   1.840   8.714  1.2840  0.7443 -0.9202
  140SAPE  H18Y15347   6.310   1.828   8.549  0.4954 -2.4133 -0.1476
  140SAPE  H18Z15348   6.392   1.687   8.623 -2.3709 -1.1972 -0.9229
  141SAPE     N15349   0.388   2.488  10.726  0.1257  0.5442  0.3922
  141SAPE   HN115350   0.376   2.579  10.676 -1.0220 -0.1107 -0.5578
  141SAPE   HN215351   0.411   2.415  10.656  0.8424  0.0818  1.1070
  141SAPE   HN315352   0.292   2.457  10.752 -0.1742  1.1708  0.0562
  141SAPE   C1215353   0.483   2.491  10.840  0.1511  0.6223 -0.0333
  141SAPE  H12A15354   0.588   2.490  10.804  0.9303 -3.3209  1.9916
  141SAPE  H12B15355   0.485   2.402  10.907  2.2085  0.4489 -0.2876
  141SAPE   C1115356   0.459   2.622  10.920  0.3096  0.1476 -0.2596
  141SAPE  H11A15357   0.538   2.631  10.999  0.1500 -1.5850  0.1331
  141SAPE  H11B15358   0.362   2.620  10.973  1.2657  1.4106  1.6142
  141SAPE     P15359   0.597   2.798  10.773  0.1817  0.1829  0.0350
  141SAPE   O1315360   0.558   2.926  10.705  0.0948  0.0608  0.2022
  141SAPE   O1415361   0.701   2.809  10.880  0.4115  0.3651 -0.1498
  141SAPE   O1215362   0.460   2.736  10.832 -0.0390  0.1837  0.1579
  141SAPE   O1115363   0.636   2.694  10.666  0.3181  0.2428 -0.1984
  141SAPE    C115364   0.753   2.716  10.582 -0.3935  0.4547 -0.2269
  141SAPE    HA15365   0.763   2.816  10.534  1.4428  0.2843 -0.2444
  141SAPE    HB15366   0.840   2.696  10.647  0.2917 -3.1812 -2.0916
  141SAPE    C215367   0.759   2.616  10.458  0.0545  0.8198 -0.3023
  141SAPE    HS15368   0.865   2.620  10.424  1.0959 -1.6200  2.3467
  141SAPE   O2115369   0.656   2.635  10.354  0.1435  0.6806 -0.0236
  141SAPE   C2115370   0.676   2.748  10.283 -0.4763  0.0865  0.1001
  141SAPE   O2215371   0.774   2.816  10.292  0.8346 -0.3744 -0.1141
  141SAPE   C2215372   0.554   2.762  10.183  0.2787  0.4518  0.7712
  141SAPE   H2R15373   0.546   2.667  10.126 -1.4196  0.4870  0.9248
  141SAPE   H2S15374   0.463   2.771  10.246 -0.8044 -0.1768 -0.6747
  141SAPE    C315375   0.743   2.473  10.509 -0.2433 -0.0863 -0.2161
  141SAPE    HX15376   0.650   2.472  10.569  0.8739 -3.4012  1.6208
  141SAPE    HY15377   0.825   2.458  10.582 -0.1704 -0.3053 -0.3424
  141SAPE   O3115378   0.748   2.373  10.410  0.2313 -0.2117  0.4051
  141SAPE   C3115379   0.748   2.247  10.462  0.1986  0.8645  0.0015
  141SAPE   O3215380   0.749   2.228  10.585 -0.6361 -0.0764 -0.6732
  141SAPE   C3215381   0.757   2.147  10.350  0.1525  0.0615  0.6120
  141SAPE   H2X15382   0.813   2.060  10.388  0.6548  0.5482  0.9924
  141SAPE   H2Y15383   0.805   2.184  10.257  2.2137  0.4077  1.7924
  141SAPE   C2315384   0.584   2.882  10.091  0.0340 -0.8097 -0.0977
  141SAPE   H3R15385   0.678   2.871  10.034  0.3961  2.1737 -0.1536
  141SAPE   H3S15386   0.602   2.970  10.157  0.0571 -2.7392  2.5285
  141SAPE   C2415387   0.458   2.922  10.006 -0.2633 -0.1014  0.4342
  141SAPE   H4R15388   0.471   3.021   9.958  2.6411 -1.1940 -1.2063
  141SAPE   H4S15389   0.373   2.925  10.077 -0.0935 -1.3014  0.7079
  141SAPE   C2515390   0.428   2.821   9.902 -0.3845 -0.8333 -0.3009
  141SAPE   H5R15391   0.390   2.727   9.945 -2.6098  0.6034  0.9527
  141SAPE   C2615392   0.430   2.818   9.770 -0.2382 -0.2212 -0.5942
  141SAPE   H6R15393   0.410   2.722   9.721  0.7761 -0.6155 -0.2359
  141SAPE   C2715394   0.468   2.925   9.675 -0.0767  0.0944 -0.0244
  141SAPE   H7R15395   0.455   3.019   9.732 -1.4184  0.3181 -0.6866
  141SAPE   H7S15396   0.388   2.939   9.600  0.1924 -0.8915 -0.5034
  141SAPE   C2815397   0.611   2.915   9.628 -0.1859 -0.5586  0.6921
  141SAPE   H8R15398   0.681   2.864   9.696 -1.4247 -2.3748  0.6194
  141SAPE   C2915399   0.658   2.953   9.509 -0.2125 -0.4687 -0.3208
  141SAPE   H9R15400   0.759   2.919   9.481  0.2295  1.6237 -1.3801
  141SAPE  C21015401   0.574   3.000   9.396  0.3502 -0.3624  0.6780
  141SAPE  H10R15402   0.618   3.091   9.350 -1.7110  0.9236  1.1696
  141SAPE  H10S15403   0.487   3.051   9.443 -0.0603 -0.4844  0.0533
  141SAPE  C21115404   0.515   2.898   9.308  0.2809  0.4226  0.3138
  141SAPE  H11R15405   0.460   2.816   9.355 -0.9038 -0.6526 -2.8077
  141SAPE  C21215406   0.508   2.912   9.173 -0.2003  0.7248 -0.1787
  141SAPE  H12R15407   0.454   2.832   9.120  2.7915 -1.3145 -0.3012
  141SAPE  C21315408   0.560   3.028   9.094  0.2503  0.3927 -0.6709
  141SAPE  H13R15409   0.629   3.090   9.155  0.2591 -1.0542  0.8398
  141SAPE  H13S15410   0.475   3.095   9.071 -0.7942 -1.0906 -1.1944
  141SAPE  C21415411   0.628   2.985   8.972 -0.6204 -0.3566  0.1790
  141SAPE  H14R15412   0.679   2.889   8.986  0.5937  0.4702  1.5034
  141SAPE  C21515413   0.652   3.052   8.859 -0.8699  0.3839 -0.2441
  141SAPE  H15R15414   0.701   3.002   8.775 -3.4956 -0.1866 -1.4776
  141SAPE  C21615415   0.598   3.193   8.846 -0.1943  0.7300  0.0195
  141SAPE  H16R15416   0.642   3.260   8.922 -1.0514  0.7344  0.5179
  141SAPE  H16S15417   0.488   3.196   8.862 -0.0013  1.3155  1.2971
  141SAPE  C21715418   0.628   3.242   8.702  0.0032 -0.4985 -0.1776
  141SAPE  H17R15419   0.585   3.172   8.628 -0.1010 -0.2700 -0.3335
  141SAPE  H17S15420   0.736   3.263   8.693 -0.4153  2.8764  1.7964
  141SAPE  C21815421   0.578   3.382   8.685  0.3547 -0.3233 -0.2415
  141SAPE  H18R15422   0.632   3.445   8.759 -1.1155 -0.6597  1.1414
  141SAPE  H18S15423   0.470   3.381   8.712  0.6344 -0.8254  0.8751
  141SAPE  C21915424   0.592   3.456   8.553  0.0794  0.2769 -0.1074
  141SAPE  H19R15425   0.541   3.554   8.557  1.3855  1.0043 -1.0289
  141SAPE  H19S15426   0.536   3.401   8.475  0.3360 -1.0529  0.6139
  141SAPE  C22015427   0.732   3.486   8.502 -0.0866  0.5961 -0.0829
  141SAPE  H20R15428   0.785   3.391   8.480 -1.9913 -0.7230  0.9519
  141SAPE  H20S15429   0.792   3.541   8.578 -0.8744 -0.0752  1.0326
  141SAPE  H20T15430   0.731   3.543   8.407 -0.5347  0.7767  0.0317
  141SAPE   C3315431   0.617   2.087  10.304 -0.1202  0.1616  0.1197
  141SAPE   H3X15432   0.557   2.051  10.391  0.7237 -1.8560 -0.0919
  141SAPE   H3Y15433   0.641   1.991  10.253 -2.2627 -0.6315  0.5520
  141SAPE   C3415434   0.531   2.179  10.212 -0.8784 -0.9478 -0.0021
  141SAPE   H4X15435   0.603   2.236  10.148 -1.4235  1.5804  1.5748
  141SAPE   H4Y15436   0.469   2.261  10.254 -0.0605 -1.4554  2.2667
  141SAPE   C3515437   0.441   2.094  10.120 -0.1340  0.7390  0.4176
  141SAPE   H5X15438   0.370   2.028  10.175 -0.8579 -0.8115 -2.2856
  141SAPE   H5Y15439   0.505   2.014  10.078 -3.6592 -1.4547 -1.0192
  141SAPE   C3615440   0.382   2.164   9.997  0.0107  0.9052  0.4838
  141SAPE   H6X15441   0.438   2.249   9.953  0.3721 -0.4943 -1.8728
  141SAPE   H6Y15442   0.286   2.210  10.029 -0.5248  0.3975 -0.3661
  141SAPE   C3715443   0.366   2.069   9.879 -0.3077 -0.5948 -0.1769
  141SAPE   H7X15444   0.306   1.983   9.916  1.0061 -1.4958 -0.0957
  141SAPE   H7Y15445   0.464   2.022   9.854  0.4060  0.0289  1.4163
  141SAPE   C3815446   0.308   2.132   9.752 -0.4022  0.5472 -0.0613
  141SAPE   H8X15447   0.360   2.224   9.718 -1.4261 -0.0050 -3.2943
  141SAPE   H8Y15448   0.200   2.152   9.771 -1.3662 -3.2835 -0.9274
  141SAPE   C3915449   0.318   2.035   9.640  0.8730 -0.3416  0.0892
  141SAPE   H9X15450   0.249   1.950   9.656 -0.8931  1.2897  1.3813
  141SAPE   H9Y15451   0.424   2.001   9.635  0.6895 -0.6699 -2.0240
  141SAPE  C31015452   0.271   2.096   9.508  0.4070  0.3368  0.0567
  141SAPE  H10X15453   0.329   2.187   9.481  1.6319 -0.7727 -1.1557
  141SAPE  H10Y15454   0.164   2.121   9.522 -0.3172 -2.9703  0.9010
  141SAPE  C31115455   0.277   2.004   9.386 -0.0896 -0.5687 -0.0780
  141SAPE  H11X15456   0.239   1.901   9.404  0.5021 -0.8691 -0.5412
  141SAPE  H11Y15457   0.384   1.994   9.357  0.3902  0.3492  1.3147
  141SAPE  C31215458   0.202   2.054   9.261 -0.3259  0.2607 -0.6210
  141SAPE  H12X15459   0.232   2.158   9.238 -0.0317  0.5878  1.1445
  141SAPE  H12Y15460   0.097   2.072   9.293 -0.9249 -0.3758 -2.1667
  141SAPE  C31315461   0.203   1.955   9.144  0.4226  0.6386 -0.2132
  141SAPE  H13X15462   0.215   1.853   9.185 -0.3926  0.8047  0.4691
  141SAPE  H13Y15463   0.283   1.988   9.074 -0.1125 -0.0862 -1.1844
  141SAPE  C31415464   0.077   1.951   9.063 -0.7323 -0.7105 -0.1911
  141SAPE  H14X15465   0.061   2.054   9.024 -1.6035 -0.9509 -0.4716
  141SAPE  H14Y15466  -0.012   1.930   9.125 -0.3712 -0.3143  0.4668
  141SAPE  C31515467   0.100   1.851   8.950  0.3219  0.3209 -0.1765
  141SAPE  H15X15468   0.128   1.752   8.991 -1.2832 -0.5172 -1.0491
  141SAPE  H15Y15469   0.178   1.891   8.881  0.6596 -2.4744 -1.4937
  141SAPE  C31615470  -0.029   1.823   8.877 -0.0727  0.0054  0.9148
  141SAPE  H16X15471  -0.059   1.924   8.840  0.9843 -0.2626 -0.7417
  141SAPE  H16Y15472  -0.109   1.785   8.943 -1.1899  0.6255 -0.0479
  141SAPE  C31715473  -0.005   1.730   8.759 -0.2053  0.2538 -0.2626
  141SAPE  H17X15474   0.017   1.636   8.813  0.2627 -1.0184 -2.6316
  141SAPE  H17Y15475   0.083   1.758   8.698 -0.4733 -2.8936 -2.1863
  141SAPE  C31815476  -0.116   1.707   8.666  0.4133 -0.2102 -0.4182
  141SAPE  H18X15477  -0.151   1.806   8.629  2.3558  1.6062  2.3808
  141SAPE  H18Y15478  -0.204   1.668   8.722 -1.0746 -0.6944 -3.0100
  141SAPE  H18Z15479  -0.098   1.643   8.577  0.6625 -2.0541  0.9172
  142SAPE     N15480   1.298   1.961  10.823 -0.6719  0.2605  0.2746
  142SAPE   HN115481   1.248   2.040  10.779 -1.0952  0.3809  0.9740
  142SAPE   HN215482   1.382   1.998  10.871  0.4473  0.0677 -1.4601
  142SAPE   HN315483   1.335   1.892  10.754 -2.8380  0.1104 -0.7809
  142SAPE   C1215484   1.208   1.902  10.932  0.0361 -0.7531  0.6517
  142SAPE  H12A15485   1.130   1.834  10.890  0.5057 -0.2172 -1.1183
  142SAPE  H12B15486   1.157   1.988  10.980 -2.5588 -1.9638  0.1851
  142SAPE   C1115487   1.295   1.814  11.029  0.1046 -0.0541  0.6907
  142SAPE  H11A15488   1.237   1.772  11.113  0.5647  0.2187  1.1478
  142SAPE  H11B15489   1.377   1.868  11.080 -0.8910  0.1191  2.1392
  142SAPE     P15490   1.299   1.565  10.952 -0.3401  0.4475  0.2447
  142SAPE   O1315491   1.416   1.478  10.910 -0.2852  0.1047  0.4522
  142SAPE   O1415492   1.244   1.533  11.083 -0.4976 -0.9406 -0.1964
  142SAPE   O1215493   1.355   1.713  10.955  0.1608  0.2762 -0.6139
  142SAPE   O1115494   1.184   1.560  10.849  0.3272  0.3607  0.4784
  142SAPE    C115495   1.223   1.589  10.719 -0.2636 -0.2277 -0.3625
  142SAPE    HA15496   1.246   1.698  10.721 -2.4575  0.2438  1.0694
  142SAPE    HB15497   1.309   1.537  10.672  1.2714  1.8534  0.0781
  142SAPE    C215498   1.108   1.564  10.617 -0.6652  0.4956  0.1995
  142SAPE    HS15499   1.026   1.628  10.655  0.1377  1.1262  0.8770
  142SAPE   O2115500   1.071   1.426  10.605  0.2396  0.4437 -0.5109
  142SAPE   C2115501   0.941   1.411  10.566  0.4101 -0.1236  0.5391
  142SAPE   O2215502   0.854   1.497  10.561 -0.0133  0.1634  0.0954
  142SAPE   C2215503   0.921   1.265  10.531  1.2061  0.1419  0.7630
  142SAPE   H2R15504   0.999   1.236  10.457  2.0261  3.1520  0.3923
  142SAPE   H2S15505   0.938   1.202  10.621 -0.6153 -0.7353  0.5278
  142SAPE    C315506   1.144   1.618  10.472 -0.7052  0.8003 -0.7055
  142SAPE    HX15507   1.192   1.531  10.421 -1.7293  0.9398 -1.9287
  142SAPE    HY15508   1.220   1.698  10.466 -2.7029  2.7067 -1.3268
  142SAPE   O3115509   1.020   1.635  10.400  0.0631 -0.0059  0.0937
  142SAPE   C3115510   1.019   1.742  10.318  0.3461  0.2354  0.0455
  142SAPE   O3215511   1.101   1.832  10.325  0.1565 -0.5433  0.1284
  142SAPE   C3215512   0.883   1.753  10.249  0.4360  0.0161 -0.7360
  142SAPE   H2X15513   0.818   1.788  10.332 -0.3783 -2.5654 -0.2473
  142SAPE   H2Y15514   0.838   1.661  10.208 -0.5249  0.3340 -0.4074
  142SAPE   C2315515   0.776   1.246  10.465  0.3684 -0.1235  0.5367
  142SAPE   H3R15516   0.763   1.323  10.386  1.3421 -1.4630 -0.9492
  142SAPE   H3S15517   0.698   1.263  10.543 -1.0663 -1.2354 -0.6259
  142SAPE   C2415518   0.753   1.098  10.411 -0.1003 -1.1054 -0.0119
  142SAPE   H4R15519   0.751   1.038  10.505 -2.4020 -0.7183  0.2233
  142SAPE   H4S15520   0.838   1.068  10.346  1.3584  1.1014  0.8286
  142SAPE   C2515521   0.624   1.092  10.330 -0.6600 -1.2308 -0.3595
  142SAPE   H5R15522   0.531   1.128  10.375 -0.0310  2.2370 -1.7523
  142SAPE   C2615523   0.625   1.076  10.198 -1.0652 -0.3501  0.1083
  142SAPE   H6R15524   0.527   1.059  10.150 -1.9281  3.6465  0.2411
  142SAPE   C2715525   0.740   1.042  10.105 -0.2866  0.3759  1.7916
  142SAPE   H7R15526   0.740   0.931  10.100 -1.6931  0.3467  2.4218
  142SAPE   H7S15527   0.840   1.073  10.142 -0.5485  1.4438  1.6172
  142SAPE   C2815528   0.727   1.099   9.965 -0.4464 -0.0106  0.2417
  142SAPE   H8R15529   0.679   1.198   9.966  1.8217  1.1506  4.2969
  142SAPE   C2915530   0.785   1.054   9.857  0.8795  0.3037  0.3580
  142SAPE   H9R15531   0.772   1.113   9.765  0.2155  0.5064  0.5812
  142SAPE  C21015532   0.881   0.935   9.841  0.1409 -0.1074 -0.5767
  142SAPE  H10R15533   0.825   0.854   9.789 -0.8033  0.4440 -0.4090
  142SAPE  H10S15534   0.913   0.891   9.938 -2.3925 -0.4693  0.1252
  142SAPE  C21115535   1.007   0.960   9.760 -1.0241  0.1650  0.4908
  142SAPE  H11R15536   1.009   1.046   9.692 -0.9259 -1.1075 -1.1778
  142SAPE  C21215537   1.110   0.869   9.756 -0.9443  0.1329 -0.0554
  142SAPE  H12R15538   1.192   0.896   9.688 -1.5057  2.6885  0.2466
  142SAPE  C21315539   1.126   0.742   9.837 -0.2115 -0.6684 -0.0460
  142SAPE  H13R15540   1.168   0.669   9.764 -0.2194  1.8119 -2.5829
  142SAPE  H13S15541   1.031   0.700   9.875 -1.8734  3.2900  0.3726
  142SAPE  C21415542   1.223   0.752   9.953 -0.0091  0.4920 -0.5902
  142SAPE  H14R15543   1.182   0.779  10.052 -0.5291 -0.3298 -0.5730
  142SAPE  C21515544   1.360   0.741   9.951  0.1103 -0.5801 -0.2958
  142SAPE  H15R15545   1.405   0.737  10.051 -0.0158 -0.4752 -0.2354
  142SAPE  C21615546   1.446   0.700   9.835  0.0301  0.0732 -0.6298
  142SAPE  H16R15547   1.497   0.785   9.784  1.6188 -0.0850  0.6368
  142SAPE  H16S15548   1.401   0.637   9.756 -0.2136 -1.4062  0.6507
  142SAPE  C21715549   1.549   0.601   9.886  0.2951  0.3682 -0.4011
  142SAPE  H17R15550   1.509   0.521   9.953 -1.8927  1.4780 -0.3524
  142SAPE  H17S15551   1.632   0.634   9.953 -0.0108 -1.1975  0.7929
  142SAPE  C21815552   1.620   0.514   9.773  0.3635 -0.0740  0.4204
  142SAPE  H18R15553   1.696   0.586   9.734  1.5915 -0.3877  2.1421
  142SAPE  H18S15554   1.536   0.484   9.707  1.2881 -4.7739  1.2253
  142SAPE  C21915555   1.699   0.393   9.821 -0.1580 -0.4779 -0.5705
  142SAPE  H19R15556   1.620   0.337   9.876  0.3958 -2.4449 -1.7313
  142SAPE  H19S15557   1.777   0.426   9.893 -1.7314  3.1138 -0.4109
  142SAPE  C22015558   1.753   0.315   9.704 -0.1845 -0.6547  0.3149
  142SAPE  H20R15559   1.674   0.283   9.632  1.3481  0.3713 -1.8879
  142SAPE  H20S15560   1.813   0.234   9.751 -0.3256 -2.2063 -2.0497
  142SAPE  H20T15561   1.826   0.376   9.646 -0.1185 -2.2801 -1.3751
  142SAPE   C3315562   0.868   1.873  10.154  0.3122  0.3143  0.4726
  142SAPE   H3X15563   0.900   1.959  10.217 -1.0967 -0.5711  2.4656
  142SAPE   H3Y15564   0.761   1.886  10.129  1.0516 -0.6491 -3.5730
  142SAPE   C3415565   0.949   1.872  10.029  0.2014  0.5113  0.3762
  142SAPE   H4X15566   0.940   1.771   9.983  0.8954  0.4556  0.3652
  142SAPE   H4Y15567   1.057   1.885  10.050  0.1575 -1.7492  2.1588
  142SAPE   C3515568   0.906   1.976   9.926 -0.1465 -0.8042  0.3609
  142SAPE   H5X15569   0.795   1.985   9.929 -0.0769  1.5612 -2.3364
  142SAPE   H5Y15570   0.920   1.935   9.824  0.6536  2.3059 -0.8104
  142SAPE   C3615571   0.988   2.108   9.940  0.4659  0.2225  0.3030
  142SAPE   H6X15572   1.096   2.080   9.941  0.2660 -0.6756  3.7451
  142SAPE   H6Y15573   0.953   2.149  10.037  3.5821  2.9143  0.3613
  142SAPE   C3715574   0.950   2.216   9.831  0.0561  0.4137  0.0628
  142SAPE   H7X15575   0.957   2.310   9.890 -1.1723  1.1393 -0.9086
  142SAPE   H7Y15576   0.851   2.196   9.785  0.3515  0.7234 -0.7232
  142SAPE   C3815577   1.047   2.227   9.712  0.6456  0.4636 -0.0141
  142SAPE   H8X15578   1.050   2.131   9.656  0.4959  1.9134 -2.5953
  142SAPE   H8Y15579   1.149   2.242   9.754 -0.0547  0.5998  1.6962
  142SAPE   C3915580   1.006   2.334   9.608 -0.2035 -0.3916 -0.0382
  142SAPE   H9X15581   1.004   2.433   9.659  1.1881  0.6942 -2.0628
  142SAPE   H9Y15582   0.907   2.310   9.564 -0.6784  0.8540  0.3050
  142SAPE  C31015583   1.107   2.332   9.493 -0.1112 -0.0602 -0.2238
  142SAPE  H10X15584   1.072   2.391   9.406  0.9130 -0.3700 -0.8693
  142SAPE  H10Y15585   1.121   2.226   9.462 -0.1257  0.0092 -0.4731
  142SAPE  C31115586   1.254   2.375   9.523  0.1848 -0.0211  0.0330
  142SAPE  H11X15587   1.282   2.314   9.612 -1.6068  0.9879  1.3369
  142SAPE  H11Y15588   1.254   2.484   9.546 -1.8015 -0.4496  2.2600
  142SAPE  C31215589   1.359   2.361   9.414  0.2449 -0.3444 -0.6535
  142SAPE  H12X15590   1.463   2.384   9.447 -0.0250  1.9094 -1.3459
  142SAPE  H12Y15591   1.336   2.430   9.330 -0.5114  1.7316  1.2142
  142SAPE  C31315592   1.381   2.221   9.353 -0.0861 -1.0050 -0.3711
  142SAPE  H13X15593   1.286   2.183   9.310 -0.2530 -0.7709 -0.2162
  142SAPE  H13Y15594   1.401   2.160   9.444  1.8649 -1.1911 -0.9010
  142SAPE  C31415595   1.494   2.217   9.250  0.2552  0.3594  0.5479
  142SAPE  H14X15596   1.591   2.254   9.290 -0.1790  1.1375  0.8909
  142SAPE  H14Y15597   1.472   2.290   9.168 -0.5038  1.3266  1.5942
  142SAPE  C31515598   1.516   2.079   9.196 -0.4777 -0.7258  0.4634
  142SAPE  H15X15599   1.419   2.046   9.152 -1.4609  3.2107 -0.4945
  142SAPE  H15Y15600   1.542   2.009   9.278 -1.4307  0.6986  1.9971
  142SAPE  C31615601   1.621   2.069   9.087 -0.8518  0.3034 -0.0564
  142SAPE  H16X15602   1.720   2.097   9.128 -1.1105  0.0470  0.7563
  142SAPE  H16Y15603   1.600   2.142   9.006 -1.4904  0.2127  0.0263
  142SAPE  C31715604   1.632   1.928   9.032  0.0529  0.1667 -0.4102
  142SAPE  H17X15605   1.528   1.904   9.002  0.4162 -1.0973 -0.6974
  142SAPE  H17Y15606   1.670   1.853   9.105 -0.8878 -2.0681 -2.1457
  142SAPE  C31815607   1.725   1.922   8.907  0.0963 -0.4268  0.2688
  142SAPE  H18X15608   1.830   1.943   8.935 -0.5688 -0.4468  2.9484
  142SAPE  H18Y15609   1.683   1.990   8.829  0.9878  1.9190  1.7592
  142SAPE  H18Z15610   1.729   1.815   8.879 -1.8258 -0.3710 -0.3232
  143SAPE     N15611   2.724   1.865  11.099 -0.0439  0.2297 -0.4461
  143SAPE   HN115612   2.806   1.894  11.156 -0.8665 -2.1039  2.0281
  143SAPE   HN215613   2.646   1.931  11.116 -1.5591 -2.0639  1.8343
  143SAPE   HN315614   2.690   1.771  11.127  0.9708 -0.1282 -0.4046
  143SAPE   C1215615   2.771   1.865  10.957  0.6589  0.6020 -0.5577
  143SAPE  H12A15616   2.794   1.970  10.931  1.7924  0.0522 -1.8436
  143SAPE  H12B15617   2.692   1.819  10.894 -0.6272  2.4930 -0.3577
  143SAPE   C1115618   2.906   1.790  10.957  0.9090 -0.1478 -0.9114
  143SAPE  H11A15619   2.977   1.848  11.021  0.9839 -0.2454 -0.9061
  143SAPE  H11B15620   2.949   1.804  10.856  1.5540 -1.2646 -0.8002
  143SAPE     P15621   2.923   1.531  10.901  0.0215 -0.3670 -0.2621
  143SAPE   O1315622   3.069   1.511  10.902  1.3492  0.2791 -0.2966
  143SAPE   O1415623   2.845   1.415  10.933  0.1209  0.5830  0.1890
  143SAPE   O1215624   2.892   1.655  11.004  0.0962  0.3421 -0.0047
  143SAPE   O1115625   2.878   1.591  10.762 -0.2464 -0.3589 -0.2083
  143SAPE    C115626   2.957   1.541  10.644 -0.3870  0.3681 -0.3762
  143SAPE    HA15627   3.015   1.628  10.606 -0.1413  0.5602  0.4329
  143SAPE    HB15628   3.035   1.467  10.672 -0.6406 -0.3563 -1.5485
  143SAPE    C215629   2.870   1.478  10.531 -0.0613  0.6126 -0.0394
  143SAPE    HS15630   2.945   1.423  10.471 -0.5026  0.4190 -0.4227
  143SAPE   O2115631   2.790   1.572  10.454  0.4642 -0.2896 -0.1627
  143SAPE   C2115632   2.826   1.601  10.335  0.1259 -0.3050  0.3097
  143SAPE   O2215633   2.940   1.587  10.295  0.0879  0.0560  0.0533
  143SAPE   C2215634   2.705   1.649  10.253  0.1898  0.4689  0.4983
  143SAPE   H2R15635   2.723   1.756  10.228 -0.0768  1.2952  3.6444
  143SAPE   H2S15636   2.714   1.586  10.161  1.2006  0.8457  0.3280
  143SAPE    C315637   2.771   1.376  10.587  0.0910  1.3966 -0.5736
  143SAPE    HX15638   2.681   1.438  10.604 -1.6401 -0.0264 -4.1508
  143SAPE    HY15639   2.816   1.336  10.681  1.3205 -1.1638 -2.2088
  143SAPE   O3115640   2.734   1.270  10.494  0.1369  0.2267  0.2011
  143SAPE   C3115641   2.809   1.158  10.505  0.0104  1.3338 -0.0891
  143SAPE   O3215642   2.915   1.151  10.560  0.6536  0.2941  0.0254
  143SAPE   C3215643   2.750   1.036  10.415  0.3110  0.1297 -0.6073
  143SAPE   H2X15644   2.639   1.041  10.411  0.0981 -4.0454 -2.6977
  143SAPE   H2Y15645   2.787   0.949  10.473  1.1913  0.0687 -1.2568
  143SAPE   C2315646   2.571   1.625  10.326 -0.5049  0.2720  0.3177
  143SAPE   H3R15647   2.544   1.684  10.416 -1.1250 -1.0042  0.9701
  143SAPE   H3S15648   2.562   1.522  10.365  3.8477  0.1398  1.1589
  143SAPE   C2415649   2.451   1.647  10.235  1.1203  0.6339  0.3497
  143SAPE   H4R15650   2.356   1.637  10.291  0.7355 -2.1689 -0.6899
  143SAPE   H4S15651   2.460   1.554  10.174  1.0100  0.2385  0.9366
  143SAPE   C2515652   2.456   1.784  10.163  0.0328  0.1174 -0.7133
  143SAPE   H5R15653   2.447   1.866  10.236 -2.0134 -0.5557 -0.1625
  143SAPE   C2615654   2.453   1.803  10.030  0.5451  0.4034 -0.2362
  143SAPE   H6R15655   2.450   1.906   9.992  0.2632  0.7918  0.8029
  143SAPE   C2715656   2.451   1.691   9.922  1.0852 -0.3846 -0.4690
  143SAPE   H7R15657   2.370   1.717   9.850  0.6318 -0.1747  0.1127
  143SAPE   H7S15658   2.425   1.594   9.970 -0.5734  0.7858  1.0416
  143SAPE   C2815659   2.581   1.682   9.844 -0.8516  0.1459  0.8657
  143SAPE   H8R15660   2.675   1.708   9.895 -0.8042 -0.8833  1.3086
  143SAPE   C2915661   2.579   1.628   9.722  0.3104 -0.3610 -0.3782
  143SAPE   H9R15662   2.671   1.641   9.663  0.6206 -0.1108  0.1470
  143SAPE  C21015663   2.469   1.574   9.634  0.5219 -0.2502  0.5729
  143SAPE  H10R15664   2.371   1.583   9.685 -0.3171 -1.4398 -0.8036
  143SAPE  H10S15665   2.492   1.467   9.615  1.9018  0.8360 -4.7455
  143SAPE  C21115666   2.468   1.655   9.503  0.2289 -0.1546 -0.3341
  143SAPE  H11R15667   2.445   1.761   9.518 -1.4779 -0.7840  1.6562
  143SAPE  C21215668   2.494   1.607   9.379  0.0252 -0.3411  0.3339
  143SAPE  H12R15669   2.467   1.673   9.295 -2.4789 -1.9681 -0.1855
  143SAPE  C21315670   2.523   1.454   9.356  0.1477  0.4920  0.9414
  143SAPE  H13R15671   2.612   1.435   9.420  0.1839 -0.4716  0.6045
  143SAPE  H13S15672   2.558   1.452   9.251 -2.4758 -0.5317  0.0399
  143SAPE  C21415673   2.401   1.372   9.375  1.2251  0.1821  0.1849
  143SAPE  H14R15674   2.352   1.394   9.471  0.1494 -0.6739 -0.1560
  143SAPE  C21515675   2.363   1.272   9.292 -0.0540  0.4152 -0.0671
  143SAPE  H15R15676   2.286   1.198   9.315 -0.1603  0.8677  1.0652
  143SAPE  C21615677   2.460   1.221   9.177  0.1722  0.1107  0.0678
  143SAPE  H16R15678   2.490   1.116   9.199 -0.3599 -0.2109 -0.7361
  143SAPE  H16S15679   2.556   1.277   9.166  0.2932  0.2173  1.5081
  143SAPE  C21715680   2.399   1.225   9.030  0.3797  0.2241 -0.0023
  143SAPE  H17R15681   2.472   1.255   8.953 -0.2964  2.2890  0.1215
  143SAPE  H17S15682   2.325   1.308   9.034  1.3245  1.0778 -0.2777
  143SAPE  C21815683   2.339   1.097   8.981 -0.8953  0.2364  1.0743
  143SAPE  H18R15684   2.238   1.098   9.028 -1.4568 -1.3044 -0.0842
  143SAPE  H18S15685   2.410   1.025   9.028  0.4681  0.4756 -0.5989
  143SAPE  C21915686   2.348   1.079   8.833  0.0289  0.1664  0.8647
  143SAPE  H19R15687   2.455   1.063   8.809 -0.1598  0.7312 -0.3735
  143SAPE  H19S15688   2.310   1.171   8.784  2.0971  0.2294 -0.6423
  143SAPE  C22015689   2.259   0.960   8.793  0.2018 -0.0435  0.2539
  143SAPE  H20R15690   2.279   0.866   8.849  0.5528 -1.4870 -2.2582
  143SAPE  H20S15691   2.273   0.949   8.684 -1.0840  1.6465 -0.1195
  143SAPE  H20T15692   2.151   0.987   8.804  0.4114  0.5299  0.9907
  143SAPE   C3315693   2.816   1.029  10.277  0.7863  0.4409 -0.0975
  143SAPE   H3X15694   2.792   0.929  10.233  1.2466  0.5437 -0.5894
  143SAPE   H3Y15695   2.927   1.030  10.285  0.9669  0.4983 -2.2233
  143SAPE   C3415696   2.775   1.134  10.178 -0.7055  0.1968 -0.2824
  143SAPE   H4X15697   2.684   1.186  10.213 -0.1468  0.2576  1.0886
  143SAPE   H4Y15698   2.760   1.085  10.079  2.0339  0.0193 -0.6484
  143SAPE   C3515699   2.894   1.231  10.147  0.3951  0.3581  0.1148
  143SAPE   H5X15700   2.986   1.188  10.103 -0.4193 -1.4580  0.1283
  143SAPE   H5Y15701   2.926   1.279  10.241  0.8300  0.3444 -0.0251
  143SAPE   C3615702   2.839   1.336  10.048  0.6810 -0.4676  0.2653
  143SAPE   H6X15703   2.762   1.401  10.093  0.0864 -1.1562  0.2419
  143SAPE   H6Y15704   2.787   1.277   9.969 -2.1285  1.5981  0.4922
  143SAPE   C3715705   2.956   1.414   9.981  0.0408  0.2754 -0.0419
  143SAPE   H7X15706   3.044   1.347   9.976  0.8293  1.1096  2.3046
  143SAPE   H7Y15707   2.989   1.497  10.047 -1.7661 -0.2781  1.6352
  143SAPE   C3815708   2.921   1.464   9.841  0.9451  0.3602  0.0303
  143SAPE   H8X15709   2.830   1.529   9.838 -0.8415 -2.0740  0.2316
  143SAPE   H8Y15710   2.890   1.369   9.792  0.2583  0.2645  0.6277
  143SAPE   C3915711   3.043   1.523   9.768 -0.2298  0.0754  0.6632
  143SAPE   H9X15712   3.115   1.439   9.752  2.0739  2.1221 -0.0438
  143SAPE   H9Y15713   3.075   1.607   9.833  1.4826  0.7520 -0.9979
  143SAPE  C31015714   2.992   1.586   9.635 -0.0848  0.1264 -0.4503
  143SAPE  H10X15715   3.087   1.629   9.596 -0.5177  1.9271  0.4503
  143SAPE  H10Y15716   2.917   1.665   9.653  0.6489  0.9442 -0.9327
  143SAPE  C31115717   2.924   1.495   9.528 -0.2878 -0.4038 -0.3332
  143SAPE  H11X15718   2.840   1.443   9.579  0.8468 -1.0356  0.9362
  143SAPE  H11Y15719   2.996   1.422   9.485  1.0556  0.2192  0.8118
  143SAPE  C31215720   2.863   1.578   9.415  0.3799  0.3248 -0.4384
  143SAPE  H12X15721   2.806   1.661   9.463 -1.7765 -2.1020  1.3761
  143SAPE  H12Y15722   2.792   1.514   9.358 -0.0522  0.8878 -0.5283
  143SAPE  C31315723   2.967   1.642   9.320 -0.8637  0.1427  0.1459
  143SAPE  H13X15724   3.037   1.562   9.286  1.9484  2.3203  0.6335
  143SAPE  H13Y15725   3.029   1.716   9.375  0.2707  1.4768 -2.8560
  143SAPE  C31415726   2.916   1.707   9.189 -0.7033  0.4681 -0.3598
  143SAPE  H14X15727   3.002   1.737   9.124 -1.4914  0.9062 -1.2080
  143SAPE  H14Y15728   2.878   1.806   9.220  1.8843  1.1543  0.7888
  143SAPE  C31515729   2.808   1.632   9.110 -0.4545 -0.9188  0.0261
  143SAPE  H15X15730   2.714   1.647   9.166 -0.5007  0.4210 -0.3912
  143SAPE  H15Y15731   2.842   1.526   9.111  2.1590 -0.1307  1.1617
  143SAPE  C31615732   2.803   1.672   8.967 -0.2526  0.6399  0.3002
  143SAPE  H16X15733   2.893   1.629   8.919 -0.1884  1.0888  0.0241
  143SAPE  H16Y15734   2.801   1.783   8.962  1.5070  0.7001  0.7888
  143SAPE  C31715735   2.671   1.632   8.898  0.4150 -0.6079 -0.8184
  143SAPE  H17X15736   2.586   1.682   8.949  0.3556  0.3771 -1.8570
  143SAPE  H17Y15737   2.659   1.523   8.916 -0.7445 -0.4011 -0.2934
  143SAPE  C31815738   2.658   1.664   8.749 -0.6495 -0.6390  0.3168
  143SAPE  H18X15739   2.673   1.774   8.734 -0.0460 -0.9478 -1.4539
  143SAPE  H18Y15740   2.552   1.652   8.719 -0.6690  2.9653 -1.2818
  143SAPE  H18Z15741   2.728   1.606   8.686 -0.0905 -0.9444  1.2081
  144SAPE     N15742   5.647   0.221  11.123 -0.0049  0.0324 -0.3449
  144SAPE   HN115743   5.652   0.217  11.019  1.3400 -0.3836 -0.2760
  144SAPE   HN215744   5.625   0.127  11.163 -2.2555 -0.4322 -2.4933
  144SAPE   HN315745   5.587   0.301  11.150  1.0468  0.5359  0.4847
  144SAPE   C1215746   5.783   0.263  11.165  0.1321 -0.5123 -0.7207
  144SAPE  H12A15747   5.795   0.234  11.272  2.7998  2.0309 -0.2795
  144SAPE  H12B15748   5.801   0.372  11.158  0.1984 -0.3864  1.1734
  144SAPE   C1115749   5.876   0.184  11.078  0.6197  0.3119  0.1389
  144SAPE  H11A15750   5.850   0.078  11.099  1.4522  0.1333  0.2761
  144SAPE  H11B15751   5.979   0.203  11.116 -0.2996  1.1049  2.3136
  144SAPE     P15752   5.969   0.139  10.844  0.1874 -0.4260  0.1212
  144SAPE   O1315753   5.970   0.217  10.721 -0.2038  0.4261 -0.5646
  144SAPE   O1415754   6.094   0.121  10.922 -0.1431  0.5192 -0.2455
  144SAPE   O1215755   5.868   0.219  10.938 -0.1082  0.0117 -0.0069
  144SAPE   O1115756   5.901   0.009  10.816 -0.2133 -0.2072  0.2852
  144SAPE    C115757   5.771  -0.003  10.754  0.9310  0.2261  0.2547
  144SAPE    HA15758   5.704  -0.063  10.819  0.4994  0.5101  0.0722
  144SAPE    HB15759   5.723   0.096  10.741 -0.4060  0.0140  3.1346
  144SAPE    C215760   5.792  -0.079  10.617 -0.6274 -0.1139  0.0451
  144SAPE    HS15761   5.845  -0.174  10.637  0.9679  0.9691  1.0324
  144SAPE   O2115762   5.857   0.000  10.514 -0.1926 -0.5333 -0.3465
  144SAPE   C2115763   5.807   0.118  10.468 -0.1232  0.9384 -0.1783
  144SAPE   O2215764   5.720   0.176  10.519  0.4802 -0.4651  0.6355
  144SAPE   C2215765   5.893   0.155  10.349  0.4625 -0.4781 -0.0370
  144SAPE   H2R15766   5.994   0.184  10.386 -1.2039  2.9404  2.1200
  144SAPE   H2S15767   5.887   0.069  10.279 -0.2102 -0.0500 -0.5116
  144SAPE    C315768   5.655  -0.133  10.569 -0.1055  0.1969 -0.9732
  144SAPE    HX15769   5.584  -0.047  10.561 -0.6511 -0.0343  1.2402
  144SAPE    HY15770   5.602  -0.201  10.639  0.9065 -0.1691 -0.5581
  144SAPE   O3115771   5.669  -0.205  10.445 -0.0993 -0.5156  0.1128
  144SAPE   C3115772   5.604  -0.156  10.336 -0.1861 -0.4640  0.7120
  144SAPE   O3215773   5.588  -0.041  10.321  0.4649 -0.1672 -0.2903
  144SAPE   C3215774   5.595  -0.262  10.228  0.2875 -0.0308 -0.3365
  144SAPE   H2X15775   5.544  -0.349  10.276  1.1243  0.8000  2.1068
  144SAPE   H2Y15776   5.701  -0.282  10.204  0.2408  0.2343 -0.7641
  144SAPE   C2315777   5.831   0.266  10.269  0.2007 -0.1622 -0.6646
  144SAPE   H3R15778   5.834   0.355  10.336  2.3098 -0.4058 -0.4214
  144SAPE   H3S15779   5.728   0.243  10.233  0.6998 -0.9887 -1.5753
  144SAPE   C2415780   5.916   0.299  10.140 -0.0384 -0.2199  0.0267
  144SAPE   H4R15781   6.019   0.301  10.181  0.0837  0.6861 -0.3109
  144SAPE   H4S15782   5.883   0.402  10.112  0.7554 -0.0646 -0.3562
  144SAPE   C2515783   5.924   0.204  10.028  0.0202 -0.1077 -0.3356
  144SAPE   H5R15784   5.977   0.112  10.053  1.2256  1.0588  1.5135
  144SAPE   C2615785   5.879   0.214   9.900 -0.4840  0.1403  0.0222
  144SAPE   H6R15786   5.898   0.129   9.834 -1.5710  0.7534 -1.0841
  144SAPE   C2715787   5.795   0.326   9.849 -0.4518  0.0464 -0.1567
  144SAPE   H7R15788   5.803   0.428   9.893  1.3489 -0.5132  0.8485
  144SAPE   H7S15789   5.691   0.296   9.876 -0.2698  0.7078  1.3626
  144SAPE   C2815790   5.818   0.326   9.693  0.2559  0.0156 -0.6896
  144SAPE   H8R15791   5.898   0.397   9.669 -1.5978  2.5173  0.3276
  144SAPE   C2915792   5.738   0.279   9.597 -0.5024  0.3594 -0.2997
  144SAPE   H9R15793   5.769   0.299   9.493 -1.0759  0.3451 -0.4763
  144SAPE  C21015794   5.614   0.199   9.621  0.2048 -0.0255  0.5220
  144SAPE  H10R15795   5.528   0.270   9.624  1.0806  1.0751 -0.0001
  144SAPE  H10S15796   5.619   0.154   9.722  0.3930 -0.8125  0.1637
  144SAPE  C21115797   5.577   0.082   9.528  0.1371 -0.5330  0.9352
  144SAPE  H11R15798   5.658   0.065   9.456  0.7565  2.5923  0.8211
  144SAPE  C21215799   5.465   0.002   9.534  0.5100 -0.5384  0.2206
  144SAPE  H12R15800   5.449  -0.069   9.452 -0.4054  0.1684 -0.2341
  144SAPE  C21315801   5.352   0.012   9.629 -0.5301  0.3489  0.9299
  144SAPE  H13R15802   5.406   0.010   9.726  1.8086  0.2148 -0.3285
  144SAPE  H13S15803   5.297  -0.084   9.629 -0.1355  0.1193  0.2880
  144SAPE  C21415804   5.259   0.132   9.628 -0.1328  0.2697 -0.1301
  144SAPE  H14R15805   5.255   0.183   9.725  0.4881  0.5705 -0.2620
  144SAPE  C21515806   5.194   0.184   9.524  0.0602  0.8382  1.6064
  144SAPE  H15R15807   5.124   0.263   9.553 -0.5472 -0.6053  4.3034
  144SAPE  C21615808   5.213   0.138   9.386  0.0860 -0.5773  0.1325
  144SAPE  H16R15809   5.112   0.131   9.341 -0.6819  1.9037  1.3858
  144SAPE  H16S15810   5.260   0.038   9.375 -0.2747 -0.6808 -0.4918
  144SAPE  C21715811   5.295   0.228   9.290 -0.6776  0.4491 -0.4303
  144SAPE  H17R15812   5.404   0.240   9.306 -0.9447  0.0385  1.9087
  144SAPE  H17S15813   5.255   0.330   9.309  1.8978  0.7130  4.0762
  144SAPE  C21815814   5.261   0.189   9.145  0.5825  0.2634 -0.3923
  144SAPE  H18R15815   5.323   0.255   9.082  3.4415 -1.6204  0.3488
  144SAPE  H18S15816   5.152   0.192   9.124  0.3225 -0.4733  0.7838
  144SAPE  C21915817   5.291   0.043   9.103 -0.4482 -0.1423 -0.2289
  144SAPE  H19R15818   5.238  -0.034   9.162 -1.5173  0.0342 -0.9498
  144SAPE  H19S15819   5.400   0.020   9.111 -0.9758 -2.3571  0.7508
  144SAPE  C22015820   5.254   0.018   8.958 -0.2882 -0.3985  0.4736
  144SAPE  H20R15821   5.293  -0.082   8.931 -0.3122 -0.7367  1.6407
  144SAPE  H20S15822   5.317   0.086   8.897 -0.3449 -1.1107 -0.3852
  144SAPE  H20T15823   5.145   0.033   8.941  0.0429  1.9198  0.2242
  144SAPE   C3315824   5.537  -0.228  10.092 -0.2993 -0.6888  0.1856
  144SAPE   H3X15825   5.592  -0.138  10.055 -0.3199 -0.8227 -0.1766
  144SAPE   H3Y15826   5.429  -0.209  10.113 -0.2254  0.7435 -0.6001
  144SAPE   C3415827   5.544  -0.346   9.996 -0.4363 -0.2753 -0.4920
  144SAPE   H4X15828   5.473  -0.424  10.031 -0.1407  0.2848  1.4374
  144SAPE   H4Y15829   5.651  -0.374   9.994 -0.7123 -1.4722  0.3123
  144SAPE   C3515830   5.485  -0.306   9.857 -1.2583  0.0243 -0.5863
  144SAPE   H5X15831   5.511  -0.204   9.823 -0.6846 -0.3645 -1.3249
  144SAPE   H5Y15832   5.374  -0.296   9.864 -1.2980 -0.4342 -0.5657
  144SAPE   C3615833   5.532  -0.396   9.742  0.7568  0.1495  0.8216
  144SAPE   H6X15834   5.491  -0.498   9.752  1.2508 -0.4152 -2.3832
  144SAPE   H6Y15835   5.643  -0.405   9.744  0.6475 -1.2597  0.5524
  144SAPE   C3715836   5.487  -0.339   9.610  0.5283 -0.1524  0.2290
  144SAPE   H7X15837   5.551  -0.252   9.587 -0.6489  0.8606  0.7610
  144SAPE   H7Y15838   5.379  -0.314   9.615  0.5167 -0.3094  0.8905
  144SAPE   C3815839   5.500  -0.428   9.486  0.0562  0.2568 -0.3864
  144SAPE   H8X15840   5.434  -0.517   9.496  0.0338  0.4460  1.2304
  144SAPE   H8Y15841   5.604  -0.467   9.479 -0.1414 -0.2348 -0.6446
  144SAPE   C3915842   5.466  -0.344   9.362 -0.2209 -0.1657 -0.1778
  144SAPE   H9X15843   5.518  -0.246   9.359 -2.1556  0.8552 -1.5520
  144SAPE   H9Y15844   5.358  -0.331   9.386  0.6092  0.0649  3.7394
  144SAPE  C31015845   5.478  -0.415   9.232  0.2228  0.0589  0.2590
  144SAPE  H10X15846   5.451  -0.521   9.247 -2.7905  1.1848  3.4834
  144SAPE  H10Y15847   5.583  -0.408   9.196  0.6381  0.6867  1.5592
  144SAPE  C31115848   5.381  -0.350   9.125 -0.0942  0.2265 -0.0776
  144SAPE  H11X15849   5.417  -0.246   9.109 -0.4883  0.1037 -1.8715
  144SAPE  H11Y15850   5.275  -0.340   9.157 -0.6404 -0.0055 -1.7852
  144SAPE  C31215851   5.391  -0.416   8.989 -0.3461 -0.4257 -0.6146
  144SAPE  H12X15852   5.357  -0.522   8.988 -0.3400 -0.4430  0.2540
  144SAPE  H12Y15853   5.501  -0.415   8.974 -0.1028  0.7237  1.0859
  144SAPE  C31315854   5.328  -0.340   8.879  0.5999  0.5248 -0.3888
  144SAPE  H13X15855   5.392  -0.254   8.848  1.1440 -0.5266 -2.2386
  144SAPE  H13Y15856   5.233  -0.297   8.917 -0.0634 -2.7106  1.7777
  144SAPE  C31415857   5.298  -0.429   8.758  0.1619 -0.2402 -0.2193
  144SAPE  H14X15858   5.234  -0.515   8.788 -1.6376  0.6112 -1.5327
  144SAPE  H14Y15859   5.384  -0.480   8.710 -1.1426 -2.2753 -0.4943
  144SAPE  C31515860   5.217  -0.350   8.657 -0.2045 -0.1709  0.3990
  144SAPE  H15X15861   5.138  -0.297   8.714  1.0520  1.6829  0.4920
  144SAPE  H15Y15862   5.174  -0.422   8.584  1.1139 -0.3640 -0.2173
  144SAPE  C31615863   5.292  -0.228   8.587  0.0225  0.8226 -0.4051
  144SAPE  H16X15864   5.304  -0.146   8.661 -0.9574  0.0599  0.6089
  144SAPE  H16Y15865   5.212  -0.194   8.518 -2.8802  1.2433  3.0601
  144SAPE  C31715866   5.425  -0.275   8.535 -0.6558  0.1746  0.4941
  144SAPE  H17X15867   5.499  -0.298   8.615 -0.1861 -2.3734 -0.6239
  144SAPE  H17Y15868   5.482  -0.189   8.493 -1.0557  1.4877  2.5661
  144SAPE  C31815869   5.433  -0.389   8.434  0.5975 -0.1348  0.2762
  144SAPE  H18X15870   5.422  -0.484   8.490 -0.5431 -0.1013  0.1061
  144SAPE  H18Y15871   5.534  -0.394   8.387  0.5874  1.7330  0.0395
  144SAPE  H18Z15872   5.356  -0.389   8.355 -0.3794 -2.3626  1.1926
  145SAPE     N15873   2.458   6.767  11.312 -0.2635  0.1168 -0.7467
  145SAPE   HN115874   2.404   6.824  11.244 -1.2724 -0.6068 -0.5724
  145SAPE   HN215875   2.477   6.679  11.259  1.1202  0.7888 -1.3950
  145SAPE   HN315876   2.396   6.746  11.393 -4.1166  2.5639 -2.8826
  145SAPE   C1215877   2.594   6.823  11.322 -0.4062 -0.0165 -0.3957
  145SAPE  H12A15878   2.663   6.736  11.335  0.8664  1.0562  0.1595
  145SAPE  H12B15879   2.602   6.892  11.409  0.1814 -1.3627  0.6405
  145SAPE   C1115880   2.622   6.890  11.184  0.1305 -0.4917 -0.4737
  145SAPE  H11A15881   2.596   6.807  11.114  0.1869 -0.7310 -0.2132
  145SAPE  H11B15882   2.729   6.920  11.182  0.5122 -1.3345  3.5175
  145SAPE     P15883   2.560   7.145  11.177 -0.3672  0.0396  0.1679
  145SAPE   O1315884   2.450   7.223  11.123 -0.0472  0.1653  0.4517
  145SAPE   O1415885   2.604   7.185  11.311  0.4430  0.3254 -0.6791
  145SAPE   O1215886   2.527   6.995  11.169 -0.4138  1.2648  0.3632
  145SAPE   O1115887   2.681   7.155  11.077 -0.5059  0.1049  0.1776
  145SAPE    C115888   2.684   7.098  10.947 -0.8321 -0.0573 -0.1278
  145SAPE    HA15889   2.763   7.021  10.944 -1.9113 -1.2420  1.2133
  145SAPE    HB15890   2.586   7.051  10.926 -1.2635 -0.4010  2.5640
  145SAPE    C215891   2.709   7.208  10.840  0.1301 -0.0815  0.4565
  145SAPE    HS15892   2.819   7.224  10.834  0.0030  1.0588  0.9911
  145SAPE   O2115893   2.638   7.334  10.869 -0.8284 -0.3743 -0.0344
  145SAPE   C2115894   2.707   7.446  10.839 -0.5714 -0.1523  0.4306
  145SAPE   O2215895   2.827   7.452  10.805 -0.5681  0.4212 -0.2297
  145SAPE   C2215896   2.619   7.567  10.854  0.3911 -0.8343  0.2063
  145SAPE   H2R15897   2.589   7.562  10.961  2.9783  2.1084  1.1461
  145SAPE   H2S15898   2.693   7.650  10.841  0.2138 -0.9656 -1.8553
  145SAPE    C315899   2.658   7.153  10.699  0.3449  0.4985  0.0107
  145SAPE    HX15900   2.549   7.132  10.704  0.5439 -0.8201 -1.0145
  145SAPE    HY15901   2.698   7.051  10.681 -0.4662 -0.2576  2.3816
  145SAPE   O3115902   2.695   7.236  10.594  0.1797  0.2284  0.2784
  145SAPE   C3115903   2.816   7.260  10.547 -0.0977  0.4219  0.3041
  145SAPE   O3215904   2.923   7.224  10.600 -0.7449 -0.2823  0.2656
  145SAPE   C3215905   2.809   7.301  10.396  0.5002  1.0766  0.1864
  145SAPE   H2X15906   2.755   7.398  10.393  0.5549  1.0574 -1.7927
  145SAPE   H2Y15907   2.751   7.226  10.338  2.0956  0.7432 -1.0139
  145SAPE   C2315908   2.490   7.589  10.770  0.2349  0.1031 -0.5262
  145SAPE   H3R15909   2.451   7.688  10.804 -3.6096 -1.8376  0.9757
  145SAPE   H3S15910   2.425   7.506  10.806 -1.0686  2.1189  1.9936
  145SAPE   C2415911   2.527   7.581  10.620  0.2082  0.0469 -0.0763
  145SAPE   H4R15912   2.580   7.489  10.585 -0.0589 -0.0368 -0.2575
  145SAPE   H4S15913   2.594   7.669  10.607  0.3607  0.2416  1.8810
  145SAPE   C2515914   2.397   7.602  10.545  0.2499 -0.3078  0.7083
  145SAPE   H5R15915   2.315   7.624  10.614 -0.3771  1.3927 -0.5487
  145SAPE   C2615916   2.391   7.616  10.407  0.0741  0.0906 -0.7043
  145SAPE   H6R15917   2.290   7.635  10.367  0.0756  0.0356 -0.7349
  145SAPE   C2715918   2.516   7.597  10.326 -0.1522  0.2514 -0.2181
  145SAPE   H7R15919   2.528   7.487  10.310  0.6874  0.1675  0.9424
  145SAPE   H7S15920   2.599   7.647  10.380 -1.0893  0.6838  0.8515
  145SAPE   C2815921   2.490   7.687  10.203 -0.4110 -0.6124 -0.1530
  145SAPE   H8R15922   2.471   7.791  10.235  2.6996  0.3416 -1.1721
  145SAPE   C2915923   2.485   7.649  10.074  0.3059 -0.4487 -0.5064
  145SAPE   H9R15924   2.458   7.728  10.003 -1.0391 -0.8969 -0.5026
  145SAPE  C21015925   2.512   7.517  10.010  0.3470 -0.3317 -0.1977
  145SAPE  H10R15926   2.423   7.451  10.019  0.5452 -0.4915  0.7330
  145SAPE  H10S15927   2.579   7.453  10.072 -1.1178 -2.5865 -0.8768
  145SAPE  C21115928   2.575   7.522   9.873  0.2368  0.3683  0.5436
  145SAPE  H11R15929   2.679   7.555   9.885  0.5719 -0.4461 -0.0497
  145SAPE  C21215930   2.517   7.499   9.757 -0.5221 -0.6389  0.3422
  145SAPE  H12R15931   2.576   7.503   9.664 -1.7233 -0.9444 -0.4383
  145SAPE  C21315932   2.373   7.458   9.723  0.8165 -0.2203  0.2981
  145SAPE  H13R15933   2.304   7.462   9.809 -2.6016 -1.2831 -2.2701
  145SAPE  H13S15934   2.372   7.348   9.705 -0.4749 -0.0152 -0.9302
  145SAPE  C21415935   2.301   7.533   9.609 -0.3327  0.2951  0.4084
  145SAPE  H14R15936   2.293   7.641   9.633  3.8379  1.0151 -1.0170
  145SAPE  C21515937   2.262   7.477   9.495 -0.4494  0.2135 -0.2689
  145SAPE  H15R15938   2.215   7.542   9.420 -0.1337  0.4611 -0.2550
  145SAPE  C21615939   2.284   7.334   9.452  0.6712  0.0485  0.4109
  145SAPE  H16R15940   2.289   7.268   9.541  0.1298 -0.9432 -0.2920
  145SAPE  H16S15941   2.385   7.310   9.412 -0.3315 -2.9586 -0.4448
  145SAPE  C21715942   2.187   7.281   9.337 -0.5737 -0.1453  0.1308
  145SAPE  H17R15943   2.238   7.189   9.301 -2.3373 -1.8042  1.7971
  145SAPE  H17S15944   2.177   7.358   9.257 -0.8546 -3.0319 -2.7011
  145SAPE  C21815945   2.043   7.245   9.386 -0.5194 -0.3829 -1.1053
  145SAPE  H18R15946   2.005   7.327   9.452  0.6223 -0.1019 -0.7919
  145SAPE  H18S15947   2.057   7.155   9.449  0.1760 -1.1495 -2.3534
  145SAPE  C21915948   1.934   7.217   9.272  0.1068 -0.1962  0.0496
  145SAPE  H19R15949   1.986   7.147   9.202  0.9031  0.7196 -0.2814
  145SAPE  H19S15950   1.919   7.312   9.217  0.8136  0.5836  1.1838
  145SAPE  C22015951   1.801   7.171   9.317 -0.5264  0.0146 -0.3147
  145SAPE  H20R15952   1.732   7.169   9.229 -0.3918 -0.5348 -0.4036
  145SAPE  H20S15953   1.766   7.234   9.402  1.1136 -0.4259  0.6920
  145SAPE  H20T15954   1.818   7.067   9.351  0.4004 -0.2582 -1.5801
  145SAPE   C3315955   2.945   7.324  10.336 -0.1014  0.2634  0.1924
  145SAPE   H3X15956   3.011   7.240  10.366 -0.8552 -1.2826 -2.3508
  145SAPE   H3Y15957   2.996   7.419  10.363 -1.0431  1.3847 -1.7957
  145SAPE   C3415958   2.931   7.336  10.178 -0.6086 -0.0628 -0.2918
  145SAPE   H4X15959   2.851   7.411  10.163  0.0712  0.4972 -1.2051
  145SAPE   H4Y15960   2.905   7.231  10.152  0.1621 -0.1577 -0.7009
  145SAPE   C3515961   3.056   7.390  10.104 -0.2628  0.2064 -0.6699
  145SAPE   H5X15962   3.129   7.307  10.099 -0.3604  0.1211 -0.6811
  145SAPE   H5Y15963   3.110   7.464  10.167  0.0001 -0.7026  0.1793
  145SAPE   C3615964   3.030   7.457   9.970  0.5990 -0.0774 -0.1376
  145SAPE   H6X15965   3.102   7.541   9.958  0.4676  0.1979  0.9575
  145SAPE   H6Y15966   2.928   7.501   9.979  0.2131 -1.1259  0.7297
  145SAPE   C3715967   3.047   7.366   9.849 -0.7399 -0.3706 -0.0591
  145SAPE   H7X15968   2.966   7.290   9.849 -1.7933  0.7434 -0.1772
  145SAPE   H7Y15969   3.144   7.312   9.855 -0.0692  0.9768  1.8512
  145SAPE   C3815970   3.043   7.437   9.717  0.4441  0.3489 -0.7085
  145SAPE   H8X15971   3.120   7.517   9.710  0.0501  1.1423  3.1225
  145SAPE   H8Y15972   2.948   7.494   9.714  0.4239  0.2904 -1.5012
  145SAPE   C3915973   3.052   7.328   9.613  0.0042  0.1064 -0.6838
  145SAPE   H9X15974   2.976   7.252   9.639 -0.9097  0.5976 -1.8645
  145SAPE   H9Y15975   3.152   7.280   9.616  0.0134  0.2306  1.6228
  145SAPE  C31015976   3.019   7.378   9.474  0.0208  0.7452 -0.0701
  145SAPE  H10X15977   3.085   7.464   9.448  0.0650  0.6396 -0.3100
  145SAPE  H10Y15978   2.914   7.413   9.475  0.2710  1.4837  0.5350
  145SAPE  C31115979   3.031   7.271   9.368  0.5938 -0.2963  0.6109
  145SAPE  H11X15980   2.974   7.179   9.393  0.7725 -0.9287 -1.1810
  145SAPE  H11Y15981   3.138   7.240   9.367  1.0199  1.1366  0.9873
  145SAPE  C31215982   2.990   7.320   9.227 -1.1489  1.0127  0.0261
  145SAPE  H12X15983   3.033   7.420   9.205 -2.2958  1.3039 -0.9090
  145SAPE  H12Y15984   2.885   7.342   9.201 -0.7080  2.7159 -0.3973
  145SAPE  C31315985   3.041   7.224   9.123 -0.1583 -0.4255  0.0139
  145SAPE  H13X15986   2.994   7.123   9.117  0.0207 -0.4675 -0.6926
  145SAPE  H13Y15987   3.146   7.205   9.152  0.3993  1.8608 -0.4729
  145SAPE  C31415988   3.038   7.286   8.985  0.8408  0.5645 -0.5164
  145SAPE  H14X15989   3.079   7.390   8.989  0.4274  0.7842 -1.6809
  145SAPE  H14Y15990   2.933   7.285   8.949  0.9876 -0.6392 -0.9399
  145SAPE  C31515991   3.105   7.184   8.899 -0.4815  1.0727  1.0429
  145SAPE  H15X15992   3.046   7.090   8.905 -0.7177  0.8950 -2.7975
  145SAPE  H15Y15993   3.211   7.168   8.928 -0.4730 -0.9893 -0.0188
  145SAPE  C31615994   3.104   7.216   8.750 -0.1979 -0.5925 -0.1979
  145SAPE  H16X15995   3.190   7.166   8.701 -0.0218 -2.0605  1.5413
  145SAPE  H16Y15996   3.127   7.324   8.735  2.7916 -1.0720  0.6460
  145SAPE  C31715997   2.966   7.194   8.699 -0.4759  0.1110 -0.4615
  145SAPE  H17X15998   2.891   7.267   8.736  0.3587  1.0447 -0.5876
  145SAPE  H17Y15999   2.933   7.096   8.741  1.1348  0.2119  1.1086
  145SAPE  C31816000   2.960   7.174   8.549  0.5744 -0.5975  1.0400
  145SAPE  H18X16001   3.029   7.101   8.502  0.2858  0.0401 -0.4038
  145SAPE  H18Y16002   2.975   7.269   8.493 -0.9915  0.2211  1.9712
  145SAPE  H18Z16003   2.855   7.143   8.530 -0.0684  1.1512  1.5229
  146SAPE     N16004   6.302   6.783  10.895 -0.3277  0.2647 -0.3393
  146SAPE   HN116005   6.283   6.692  10.939 -1.6771  0.5139 -0.3898
  146SAPE   HN216006   6.370   6.823  10.963 -0.0808 -0.3412 -0.2338
  146SAPE   HN316007   6.220   6.848  10.896 -0.6012 -0.0920  0.3408
  146SAPE   C1216008   6.350   6.786  10.752  0.0724 -0.1183  0.3801
  146SAPE  H12A16009   6.374   6.890  10.723  1.8260 -1.1813 -2.1079
  146SAPE  H12B16010   6.265   6.739  10.698 -0.5207  0.6137  0.6571
  146SAPE   C1116011   6.463   6.684  10.724 -0.4059  0.4406  0.0351
  146SAPE  H11A16012   6.495   6.673  10.618  1.6743  1.7631  0.5034
  146SAPE  H11B16013   6.416   6.588  10.754  0.2329 -0.2075 -1.0319
  146SAPE     P16014   6.682   6.815  10.805 -0.3839 -0.1635 -0.0142
  146SAPE   O1316015   6.627   6.944  10.837 -0.8067  0.4784 -0.6286
  146SAPE   O1416016   6.787   6.754  10.895 -0.3201 -0.9098 -0.5849
  146SAPE   O1216017   6.568   6.714  10.808 -0.1614 -0.2022 -0.0773
  146SAPE   O1116018   6.738   6.810  10.655 -0.4181 -0.0789  0.0890
  146SAPE    C116019   6.759   6.698  10.575  0.2908 -0.0554 -0.3901
  146SAPE    HA16020   6.707   6.606  10.611  0.1378  0.2722  0.2210
  146SAPE    HB16021   6.718   6.718  10.474 -0.0909 -0.4578 -0.3148
  146SAPE    C216022   6.915   6.669  10.559  0.3869  0.0525  0.1308
  146SAPE    HS16023   6.949   6.622  10.654  0.8444 -1.6894 -0.8650
  146SAPE   O2116024   6.984   6.794  10.525  0.4277  0.2180 -0.0403
  146SAPE   C2116025   7.110   6.792  10.539  0.5190 -0.0352 -0.2024
  146SAPE   O2216026   7.178   6.715  10.606  0.2438 -0.2143 -0.3911
  146SAPE   C2216027   7.153   6.920  10.463  0.1150  0.3724 -0.1143
  146SAPE   H2R16028   7.087   6.933  10.374 -0.3105 -0.6429  0.0475
  146SAPE   H2S16029   7.114   7.004  10.524 -2.0054  0.4520 -1.5019
  146SAPE    C316030   6.937   6.559  10.446  0.0548  0.2375  0.2605
  146SAPE    HX16031   6.853   6.486  10.446 -1.8522  2.3695  0.3375
  146SAPE    HY16032   7.024   6.495  10.472  0.8626  0.4694 -1.7382
  146SAPE   O3116033   6.925   6.609  10.310  0.5072  0.2762 -0.4717
  146SAPE   C3116034   7.038   6.644  10.251  0.4327  0.3510 -0.3678
  146SAPE   O3216035   7.153   6.616  10.285  0.5659  0.2112 -0.1744
  146SAPE   C3216036   7.004   6.737  10.138  0.4660  0.2444  0.3683
  146SAPE   H2X16037   6.957   6.828  10.178 -2.1210 -0.7965 -0.2134
  146SAPE   H2Y16038   6.920   6.695  10.078 -0.7097  3.0080  0.0081
  146SAPE   C2316039   7.303   6.928  10.445 -0.5047  0.6812  0.7637
  146SAPE   H3R16040   7.333   6.843  10.379  1.2997  0.6135  1.6432
  146SAPE   H3S16041   7.352   6.918  10.544  1.7974  0.1061 -0.4063
  146SAPE   C2416042   7.361   7.054  10.380  0.3211  0.5431 -0.1821
  146SAPE   H4R16043   7.472   7.052  10.386  0.2069 -0.9648  2.0167
  146SAPE   H4S16044   7.324   7.137  10.442  0.0244  1.7375 -1.9112
  146SAPE   C2516045   7.306   7.093  10.241  1.2759 -0.2257 -0.3309
  146SAPE   H5R16046   7.196   7.102  10.239  1.3563  0.6003 -0.9669
  146SAPE   C2616047   7.382   7.106  10.134 -0.3495 -0.5176  0.0131
  146SAPE   H6R16048   7.333   7.131  10.039 -1.3100  1.7061  1.0412
  146SAPE   C2716049   7.527   7.091  10.132 -0.4347 -0.3076  0.5150
  146SAPE   H7R16050   7.551   6.986  10.103  2.4715  0.6387 -0.6595
  146SAPE   H7S16051   7.580   7.110  10.228  1.4772  2.2188 -0.9708
  146SAPE   C2816052   7.592   7.183  10.030 -0.6135  0.6446  0.3568
  146SAPE   H8R16053   7.630   7.275  10.077 -1.8361  0.3611  1.9632
  146SAPE   C2916054   7.606   7.175   9.894 -0.1667 -0.4665  0.1839
  146SAPE   H9R16055   7.665   7.248   9.837  1.3735 -1.3195  0.6593
  146SAPE  C21016056   7.545   7.070   9.806  0.2735  1.0028  0.0604
  146SAPE  H10R16057   7.440   7.055   9.839  0.2490 -2.1478 -1.2396
  146SAPE  H10S16058   7.586   6.970   9.835  2.3667  1.2437 -1.8874
  146SAPE  C21116059   7.561   7.078   9.656 -0.0425  0.5005 -0.2095
  146SAPE  H11R16060   7.652   7.132   9.625 -0.2642 -0.1566 -2.0615
  146SAPE  C21216061   7.484   7.024   9.559  0.1707  0.5716 -0.1955
  146SAPE  H12R16062   7.513   7.028   9.453 -0.1381  3.8926 -0.2184
  146SAPE  C21316063   7.360   6.942   9.585  0.0384 -0.1134 -0.3400
  146SAPE  H13R16064   7.273   7.006   9.562 -1.3187 -1.0164  2.0688
  146SAPE  H13S16065   7.346   6.905   9.689  2.5993  2.3213  0.9419
  146SAPE  C21416066   7.364   6.809   9.507 -0.3239  0.2128 -0.5154
  146SAPE  H14R16067   7.408   6.719   9.550 -0.1933  1.4924  2.1423
  146SAPE  C21516068   7.321   6.805   9.379  0.5476 -0.8779  0.3404
  146SAPE  H15R16069   7.311   6.711   9.322 -1.8133 -0.8562  0.6642
  146SAPE  C21616070   7.255   6.912   9.296  0.1126 -0.2846  0.1119
  146SAPE  H16R16071   7.276   7.012   9.340 -0.1175 -0.4188  0.5277
  146SAPE  H16S16072   7.151   6.881   9.270  0.6120 -1.0515 -0.9993
  146SAPE  C21716073   7.327   6.918   9.161 -0.2732  0.6051  0.4295
  146SAPE  H17R16074   7.339   6.825   9.101  0.0823  0.2970  0.9718
  146SAPE  H17S16075   7.423   6.967   9.186  0.6688 -0.2662 -1.3744
  146SAPE  C21816076   7.270   7.025   9.065 -0.6835  0.0640 -0.3859
  146SAPE  H18R16077   7.247   7.122   9.113 -0.6522  1.0402 -2.2998
  146SAPE  H18S16078   7.173   6.989   9.024 -0.0103 -2.0746 -0.1676
  146SAPE  C21916079   7.354   7.044   8.938  0.1387 -0.4235 -0.7450
  146SAPE  H19R16080   7.296   7.105   8.866 -0.6778 -0.6715 -0.2930
  146SAPE  H19S16081   7.364   6.942   8.893  0.2838 -0.9091  0.3568
  146SAPE  C22016082   7.494   7.098   8.959  0.1572  0.0928  0.2678
  146SAPE  H20R16083   7.566   7.016   8.980  1.4804  1.0341 -0.5509
  146SAPE  H20S16084   7.505   7.178   9.035  2.2416 -1.9952  2.2358
  146SAPE  H20T16085   7.524   7.139   8.860  0.5044 -2.6666 -0.8413
  146SAPE   C3316086   7.128   6.788  10.043  0.0991  0.4621  0.1221
  146SAPE   H3X16087   7.184   6.700  10.007 -2.5014 -1.5425  0.8043
  146SAPE   H3Y16088   7.192   6.853  10.107  0.1735  0.1967  0.3182
  146SAPE   C3416089   7.078   6.878   9.932  0.5444  0.8190  0.5764
  146SAPE   H4X16090   7.006   6.821   9.869  2.8177 -0.9054 -0.5123
  146SAPE   H4Y16091   7.165   6.915   9.874 -0.2197 -0.2860 -1.3364
  146SAPE   C3516092   7.015   7.022   9.970 -0.6424  0.0170 -0.2542
  146SAPE   H5X16093   7.075   7.070  10.050 -1.5659  0.7590  0.0081
  146SAPE   H5Y16094   6.910   7.005  10.004 -0.4173  0.8810  0.8999
  146SAPE   C3616095   7.031   7.124   9.850 -0.0228 -0.2396  0.0213
  146SAPE   H6X16096   7.136   7.159   9.843 -0.3007  0.3570 -1.3226
  146SAPE   H6Y16097   6.968   7.213   9.871  2.3079  1.3992  0.2635
  146SAPE   C3716098   6.987   7.060   9.720 -0.4226 -0.1235 -0.4746
  146SAPE   H7X16099   6.893   7.012   9.755  0.0595  0.3022  1.4728
  146SAPE   H7Y16100   7.056   6.982   9.681 -1.2174 -0.4473 -1.2442
  146SAPE   C3816101   6.958   7.168   9.619  0.1859  0.1246  0.0098
  146SAPE   H8X16102   7.035   7.248   9.616  1.3920 -1.0807 -1.8712
  146SAPE   H8Y16103   6.854   7.204   9.635  0.1911  1.0374 -1.8467
  146SAPE   C3916104   6.953   7.108   9.480 -0.1168 -0.5831 -0.4907
  146SAPE   H9X16105   6.886   7.021   9.461 -0.4665 -0.5338  0.5105
  146SAPE   H9Y16106   7.058   7.083   9.455  0.1057 -0.1654  0.0253
  146SAPE  C31016107   6.907   7.209   9.367 -0.3200 -0.6063 -0.2018
  146SAPE  H10X16108   6.967   7.302   9.378  0.9514 -1.5144  0.7838
  146SAPE  H10Y16109   6.799   7.230   9.377 -0.6303 -0.5901 -3.1226
  146SAPE  C31116110   6.913   7.149   9.224 -0.4264 -0.0433 -0.3640
  146SAPE  H11X16111   6.875   7.044   9.230  2.1541 -1.0309 -0.5330
  146SAPE  H11Y16112   7.014   7.140   9.180 -0.7882 -1.0293 -1.0179
  146SAPE  C31216113   6.820   7.212   9.125  0.9367 -0.2185 -0.4818
  146SAPE  H12X16114   6.847   7.318   9.105  0.6692  0.6795  3.4028
  146SAPE  H12Y16115   6.715   7.209   9.161  0.2032  0.2580 -2.5603
  146SAPE  C31316116   6.839   7.146   8.989  0.4702  0.3726  0.7770
  146SAPE  H13X16117   6.882   7.044   8.995  1.4441  0.7611  0.5468
  146SAPE  H13Y16118   6.917   7.205   8.936  0.1758  0.1555  0.1070
  146SAPE  C31416119   6.709   7.160   8.913 -0.1525 -0.0562 -0.0151
  146SAPE  H14X16120   6.672   7.264   8.927 -2.0589 -0.8453  1.0736
  146SAPE  H14Y16121   6.637   7.089   8.960  1.2485 -0.5556  1.4173
  146SAPE  C31516122   6.721   7.146   8.759 -0.0458  1.6432 -0.4018
  146SAPE  H15X16123   6.742   7.039   8.735 -1.6055  1.6458 -1.8995
  146SAPE  H15Y16124   6.813   7.199   8.725  0.1365  0.1164 -2.4032
  146SAPE  C31616125   6.600   7.204   8.686 -0.8165 -0.5443 -0.5811
  146SAPE  H16X16126   6.608   7.314   8.699 -0.3092 -0.6096 -0.3104
  146SAPE  H16Y16127   6.503   7.167   8.726 -1.3356 -0.5729 -1.8313
  146SAPE  C31716128   6.610   7.169   8.540  0.3096 -0.8304  0.1355
  146SAPE  H17X16129   6.577   7.063   8.532  1.0129 -1.0247 -0.2439
  146SAPE  H17Y16130   6.714   7.192   8.506  0.0517  0.2796  0.1047
  146SAPE  C31816131   6.506   7.237   8.445 -0.3023  0.0240 -0.2411
  146SAPE  H18X16132   6.499   7.200   8.340 -3.2741  1.8536 -0.7473
  146SAPE  H18Y16133   6.522   7.346   8.436 -2.5545  0.4283  0.5369
  146SAPE  H18Z16134   6.409   7.205   8.488 -0.5732  1.3801  0.1564
  147SAPE     N16135   4.224   5.630   6.104 -1.1766 -0.4251  0.2445
  147SAPE   HN116136   4.160   5.548   6.104 -0.7892 -0.8290 -3.7419
  147SAPE   HN216137   4.201   5.688   6.021  2.2487  1.9941  0.8796
  147SAPE   HN316138   4.320   5.589   6.094 -1.3155 -0.4080 -1.4095
  147SAPE   C1216139   4.204   5.714   6.220  0.1671 -0.4690 -0.0938
  147SAPE  H12A16140   4.095   5.737   6.217  0.5929  2.1377  2.0165
  147SAPE  H12B16141   4.250   5.815   6.210 -1.3191  0.3387  0.9126
  147SAPE   C1116142   4.231   5.637   6.351 -0.8874  0.5533  0.3419
  147SAPE  H11A16143   4.210   5.711   6.432  2.2813  2.2860 -0.3322
  147SAPE  H11B16144   4.339   5.619   6.363 -0.6380  1.5485 -0.3590
  147SAPE     P16145   4.033   5.494   6.442  0.0417  0.3315 -0.2478
  147SAPE   O1316146   3.941   5.613   6.416 -0.1486  0.5241 -0.0208
  147SAPE   O1416147   3.965   5.368   6.416 -0.4998  0.0166  0.3918
  147SAPE   O1216148   4.161   5.509   6.354 -0.1074  0.7142 -0.0334
  147SAPE   O1116149   4.077   5.493   6.586 -0.8089  0.0661 -0.5122
  147SAPE    C116150   4.198   5.424   6.632 -0.3594 -0.3775  0.6605
  147SAPE    HA16151   4.192   5.313   6.632  1.8053 -0.5282  1.1580
  147SAPE    HB16152   4.284   5.440   6.563 -0.1345 -1.8579  0.5942
  147SAPE    C216153   4.253   5.485   6.757  0.4543  1.5554 -0.2072
  147SAPE    HS16154   4.350   5.440   6.788  1.1667  2.5779 -0.9015
  147SAPE   O2116155   4.159   5.486   6.868  0.6136  0.0454 -0.0399
  147SAPE   C2116156   4.160   5.365   6.930  0.1290 -0.0159  0.0860
  147SAPE   O2216157   4.243   5.279   6.910  0.0054 -0.4396  0.6621
  147SAPE   C2216158   4.078   5.379   7.051  0.7507 -0.7082 -0.2852
  147SAPE   H2R16159   4.087   5.482   7.093 -0.9740 -0.3438 -0.7624
  147SAPE   H2S16160   3.976   5.357   7.014  1.5240  0.7637 -3.4201
  147SAPE    C316161   4.287   5.632   6.736  0.4529  0.5397  0.5229
  147SAPE    HX16162   4.202   5.683   6.687 -0.5535 -1.2710  0.3424
  147SAPE    HY16163   4.362   5.627   6.654  1.0109  0.7023  1.0222
  147SAPE   O3116164   4.342   5.691   6.856 -0.3457 -0.9688  0.0259
  147SAPE   C3116165   4.326   5.818   6.871 -0.0827  0.3929  0.2874
  147SAPE   O3216166   4.277   5.892   6.786 -0.7919  0.1607 -0.3018
  147SAPE   C3216167   4.369   5.870   7.005  0.1541  0.6057 -0.0549
  147SAPE   H2X16168   4.336   5.973   7.031  1.8282  1.8391 -2.5933
  147SAPE   H2Y16169   4.480   5.873   7.010  0.1572  1.2431 -0.3649
  147SAPE   C2316170   4.113   5.281   7.162  1.2325  0.0922 -0.0838
  147SAPE   H3R16171   4.224   5.280   7.176  1.2793 -0.7246 -0.5091
  147SAPE   H3S16172   4.089   5.181   7.121 -3.2721  0.2955  1.8710
  147SAPE   C2416173   4.035   5.316   7.292 -0.1876  0.2495  0.1704
  147SAPE   H4R16174   4.015   5.222   7.347  2.5227  0.7273  2.1202
  147SAPE   H4S16175   3.933   5.352   7.267 -0.0872 -1.0196 -2.1857
  147SAPE   C2516176   4.111   5.424   7.377  0.6620  1.1999 -0.1809
  147SAPE   H5R16177   4.159   5.504   7.319 -0.3170  1.1206 -1.1070
  147SAPE   C2616178   4.136   5.401   7.503 -0.8540  0.0137  0.1417
  147SAPE   H6R16179   4.179   5.482   7.563  1.0726  1.6121 -3.2387
  147SAPE   C2716180   4.097   5.282   7.594 -1.2905  0.1703 -0.2508
  147SAPE   H7R16181   4.103   5.185   7.540 -2.3814 -0.8430  1.4023
  147SAPE   H7S16182   3.987   5.297   7.604 -1.5817  0.4547 -3.3494
  147SAPE   C2816183   4.160   5.269   7.736 -0.7253  0.0817  0.2620
  147SAPE   H8R16184   4.256   5.217   7.720 -1.1635 -1.0835  1.3043
  147SAPE   C2916185   4.112   5.302   7.858  0.2839 -0.0428 -0.2786
  147SAPE   H9R16186   4.157   5.263   7.951 -1.7053 -2.2465 -0.1994
  147SAPE  C21016187   3.981   5.371   7.875  0.2752 -0.2302 -0.4688
  147SAPE  H10R16188   3.932   5.297   7.941  0.8406 -2.6711 -2.6997
  147SAPE  H10S16189   3.919   5.377   7.782 -0.7594  0.1820  0.2378
  147SAPE  C21116190   3.982   5.508   7.948 -0.6101 -0.1604  0.8425
  147SAPE  H11R16191   4.055   5.516   8.029 -1.9254  0.7598  1.9444
  147SAPE  C21216192   3.905   5.616   7.933 -0.0309  0.1221  1.0700
  147SAPE  H12R16193   3.917   5.703   7.999 -0.4414  2.1703 -1.4714
  147SAPE  C21316194   3.801   5.627   7.823  0.7585  0.5094  0.3938
  147SAPE  H13R16195   3.794   5.531   7.767 -0.5990  0.7250  0.1934
  147SAPE  H13S16196   3.836   5.711   7.760  0.1556  1.2971  1.1031
  147SAPE  C21416197   3.668   5.660   7.884 -0.0128  0.0818  0.1185
  147SAPE  H14R16198   3.649   5.590   7.966  0.2287  1.9626  1.8083
  147SAPE  C21516199   3.566   5.737   7.842 -0.4072 -0.3083  0.4465
  147SAPE  H15R16200   3.471   5.743   7.897 -1.3342 -0.1243 -1.1620
  147SAPE  C21616201   3.572   5.827   7.720 -0.1332  0.2836  0.1207
  147SAPE  H16R16202   3.511   5.772   7.645  0.2918 -0.4423  0.3051
  147SAPE  H16S16203   3.673   5.825   7.676 -0.2146  1.3006 -0.1398
  147SAPE  C21716204   3.499   5.962   7.750 -0.5340 -0.6703  0.0377
  147SAPE  H17R16205   3.404   5.944   7.804  1.1240 -0.6613  3.0773
  147SAPE  H17S16206   3.485   6.015   7.654 -1.6154  2.6735  1.9663
  147SAPE  C21816207   3.594   6.056   7.837 -0.1904  0.9585  0.3367
  147SAPE  H18R16208   3.694   6.070   7.790  0.5785  0.0627  1.6814
  147SAPE  H18S16209   3.613   6.000   7.931  0.1584  1.1616  0.3910
  147SAPE  C21916210   3.538   6.197   7.863  0.0877 -0.2206  0.2377
  147SAPE  H19R16211   3.505   6.234   7.764 -1.8662 -1.9473  0.2082
  147SAPE  H19S16212   3.618   6.262   7.904 -3.5103  3.1479  2.2276
  147SAPE  C22016213   3.410   6.191   7.949  0.1733  0.3915  0.0708
  147SAPE  H20R16214   3.437   6.154   8.050  2.5730 -0.4651 -0.8464
  147SAPE  H20S16215   3.331   6.118   7.921  0.8278  0.7083 -2.7486
  147SAPE  H20T16216   3.373   6.295   7.966 -1.4774  0.0233 -1.0553
  147SAPE   C3316217   4.327   5.782   7.120  0.5160  0.2609  0.4171
  147SAPE   H3X16218   4.368   5.680   7.106 -1.1622 -0.2571 -0.8393
  147SAPE   H3Y16219   4.216   5.774   7.122  0.4447  1.3248  0.8966
  147SAPE   C3416220   4.388   5.838   7.251  1.2344  0.5323  0.1669
  147SAPE   H4X16221   4.357   5.942   7.274 -1.1093 -0.5966  2.4296
  147SAPE   H4Y16222   4.499   5.837   7.244  1.3454 -2.3448  1.6244
  147SAPE   C3516223   4.334   5.756   7.367  0.9680 -0.0917 -0.9606
  147SAPE   H5X16224   4.325   5.647   7.349  0.2118 -0.7397  2.7683
  147SAPE   H5Y16225   4.229   5.788   7.387  0.6980 -2.3358  1.4752
  147SAPE   C3616226   4.417   5.771   7.503  0.3910  0.0517  0.4578
  147SAPE   H6X16227   4.423   5.880   7.522 -3.0002  0.4233 -0.3948
  147SAPE   H6Y16228   4.522   5.740   7.483  0.5456  0.8654  0.0064
  147SAPE   C3716229   4.359   5.690   7.618  0.2594  0.2403  0.1420
  147SAPE   H7X16230   4.365   5.583   7.591 -0.0866  0.2209  0.1403
  147SAPE   H7Y16231   4.253   5.715   7.638  0.1192 -1.6860  2.0039
  147SAPE   C3816232   4.429   5.710   7.753 -0.5684  0.4256  0.6837
  147SAPE   H8X16233   4.425   5.817   7.779 -2.5861  0.2144  1.3451
  147SAPE   H8Y16234   4.529   5.662   7.746 -0.5549  0.4905  0.4039
  147SAPE   C3916235   4.352   5.618   7.859 -0.2733  0.4778 -0.1012
  147SAPE   H9X16236   4.353   5.510   7.831 -3.0265 -0.3139  2.6272
  147SAPE   H9Y16237   4.249   5.658   7.857 -0.9007 -1.0315  1.0273
  147SAPE  C31016238   4.414   5.631   7.998 -0.0614 -0.0093  0.4696
  147SAPE  H10X16239   4.432   5.740   8.009  1.5959 -0.4422  2.5324
  147SAPE  H10Y16240   4.513   5.581   7.998 -1.0012 -1.9053  0.8017
  147SAPE  C31116241   4.339   5.568   8.118  0.1160  0.2999 -0.6101
  147SAPE  H11X16242   4.321   5.462   8.091  0.5635 -0.0953  0.5980
  147SAPE  H11Y16243   4.240   5.614   8.138  0.5531  0.9246  0.1927
  147SAPE  C31216244   4.421   5.568   8.251 -0.1702 -0.5618  0.3440
  147SAPE  H12X16245   4.450   5.669   8.286  2.3268 -0.1687 -2.6890
  147SAPE  H12Y16246   4.520   5.518   8.243 -0.2759 -0.5182 -1.3822
  147SAPE  C31316247   4.332   5.503   8.354 -0.3092 -0.6946  0.0860
  147SAPE  H13X16248   4.306   5.402   8.315  0.8735 -0.3796 -1.5639
  147SAPE  H13Y16249   4.233   5.554   8.344  0.2394 -0.1828 -2.9515
  147SAPE  C31416250   4.389   5.487   8.496 -0.5323 -0.8178  0.1851
  147SAPE  H14X16251   4.367   5.586   8.543  0.0470 -0.9222  0.6881
  147SAPE  H14Y16252   4.493   5.450   8.489  0.1269  0.6709  1.7407
  147SAPE  C31516253   4.307   5.374   8.571  0.8197 -0.1352  0.2465
  147SAPE  H15X16254   4.314   5.284   8.506  1.2253  0.2065 -0.1866
  147SAPE  H15Y16255   4.201   5.407   8.573  1.0848  0.7086  0.5201
  147SAPE  C31616256   4.359   5.361   8.718  0.2499 -0.3549  0.1466
  147SAPE  H16X16257   4.376   5.464   8.756  2.0237 -0.2202 -0.9553
  147SAPE  H16Y16258   4.461   5.317   8.719  0.2926 -0.2696 -0.4412
  147SAPE  C31716259   4.277   5.279   8.821 -0.1757 -0.0818  0.0203
  147SAPE  H17X16260   4.238   5.180   8.790 -2.2543  0.9456 -0.7319
  147SAPE  H17Y16261   4.183   5.329   8.852 -0.2909 -0.3595  0.1184
  147SAPE  C31816262   4.361   5.256   8.947 -0.0210  0.1327  0.2277
  147SAPE  H18X16263   4.400   5.344   9.002  1.4404 -0.1313 -0.3720
  147SAPE  H18Y16264   4.455   5.210   8.911 -0.3982  0.5933 -1.3703
  147SAPE  H18Z16265   4.310   5.175   9.005 -0.0665 -0.7853 -1.0719
  148SAPE     N16266   4.217   3.232   6.778  0.3377 -0.4228  0.1035
  148SAPE   HN116267   4.214   3.307   6.706 -2.1691 -0.6416 -0.0731
  148SAPE   HN216268   4.316   3.203   6.787  1.0800  1.8747 -0.2852
  148SAPE   HN316269   4.157   3.156   6.741 -3.0096  2.4770 -0.6894
  148SAPE   C1216270   4.160   3.271   6.908  0.4459  0.7035 -0.6119
  148SAPE  H12A16271   4.227   3.347   6.953  0.1066  0.4837  0.2620
  148SAPE  H12B16272   4.159   3.187   6.981  0.5206 -0.5124 -1.9660
  148SAPE   C1116273   4.021   3.331   6.875 -0.7128  0.8980  0.7967
  148SAPE  H11A16274   4.032   3.423   6.813 -0.4366  0.2165 -0.1878
  148SAPE  H11B16275   3.979   3.364   6.972 -1.2899  1.6189  0.3125
  148SAPE     P16276   3.815   3.269   6.724 -0.0061 -0.2208  0.1386
  148SAPE   O1316277   3.813   3.408   6.674 -0.2850 -0.6362 -0.3484
  148SAPE   O1416278   3.823   3.169   6.612  0.0558  0.3677  0.0302
  148SAPE   O1216279   3.933   3.236   6.824  0.7547 -0.3139  0.0714
  148SAPE   O1116280   3.692   3.240   6.812 -0.3280  0.3681  0.1408
  148SAPE    C116281   3.675   3.255   6.952  0.9038 -0.0452  0.0849
  148SAPE    HA16282   3.600   3.180   6.984 -0.2224 -0.0904 -2.5219
  148SAPE    HB16283   3.768   3.254   7.012 -0.5244  1.7339  2.4030
  148SAPE    C216284   3.624   3.395   6.992  0.2572  0.8051  0.0839
  148SAPE    HS16285   3.673   3.478   6.935 -0.1991  0.0974 -1.3587
  148SAPE   O2116286   3.637   3.401   7.136  0.2748  0.8323  0.2832
  148SAPE   C2116287   3.655   3.526   7.179  0.1495 -0.2241 -0.0989
  148SAPE   O2216288   3.664   3.620   7.099  0.1656 -0.2988 -0.3388
  148SAPE   C2216289   3.649   3.528   7.333 -0.2837 -0.7780  0.1800
  148SAPE   H2R16290   3.556   3.480   7.372 -1.8884  0.4223 -2.0541
  148SAPE   H2S16291   3.738   3.473   7.371  2.4773  2.3157 -1.5525
  148SAPE    C316292   3.477   3.410   6.953  1.3516  0.0813  0.8444
  148SAPE    HX16293   3.419   3.319   6.980  1.9667 -0.2865  0.9204
  148SAPE    HY16294   3.476   3.419   6.842 -0.8096 -0.2462  0.8146
  148SAPE   O3116295   3.409   3.517   7.010 -0.5534 -0.3777 -0.1301
  148SAPE   C3116296   3.288   3.532   6.955 -0.6819  0.3559 -0.2738
  148SAPE   O3216297   3.251   3.465   6.861 -0.1937  0.5261 -0.5622
  148SAPE   C3216298   3.212   3.638   7.043 -0.1344 -0.5038 -0.1420
  148SAPE   H2X16299   3.104   3.613   7.045 -0.3434  0.2762 -0.9784
  148SAPE   H2Y16300   3.216   3.725   6.974  1.0074 -0.8398 -0.5113
  148SAPE   C2316301   3.659   3.671   7.387  0.0897 -0.6190  0.5789
  148SAPE   H3R16302   3.599   3.683   7.480 -1.9766  0.1157 -0.8188
  148SAPE   H3S16303   3.610   3.745   7.320 -0.4783 -2.2453 -0.8555
  148SAPE   C2416304   3.804   3.707   7.425  0.3134 -0.1043  0.6585
  148SAPE   H4R16305   3.832   3.627   7.498 -2.9326 -1.2920  0.6898
  148SAPE   H4S16306   3.805   3.806   7.475 -1.0851  0.1852  0.1262
  148SAPE   C2516307   3.895   3.725   7.308  0.3115  0.3500  0.5945
  148SAPE   H5R16308   3.863   3.805   7.241 -0.6342 -0.4851  0.0374
  148SAPE   C2616309   3.994   3.645   7.268  0.3056  0.1590 -0.9606
  148SAPE   H6R16310   4.035   3.658   7.167  0.3686 -3.5683 -1.4906
  148SAPE   C2716311   4.042   3.526   7.340  0.3945 -0.7809 -0.2856
  148SAPE   H7R16312   4.015   3.529   7.448  0.1067 -0.7577 -0.3580
  148SAPE   H7S16313   4.150   3.552   7.342  0.2090 -0.0164 -0.0131
  148SAPE   C2816314   4.001   3.390   7.281 -0.1155 -0.2152  0.1272
  148SAPE   H8R16315   3.902   3.384   7.235 -0.7696  1.5369  1.2801
  148SAPE   C2916316   4.078   3.281   7.253  0.2508 -0.4243 -0.2676
  148SAPE   H9R16317   4.021   3.196   7.214 -0.9889  0.4244 -0.3359
  148SAPE  C21016318   4.224   3.262   7.284  0.5702 -0.4527  0.1559
  148SAPE  H10R16319   4.243   3.317   7.378 -2.6027  3.3535 -1.3017
  148SAPE  H10S16320   4.276   3.311   7.199 -2.4339  2.8039  0.0792
  148SAPE  C21116321   4.271   3.113   7.305  0.0141  0.9311 -0.5046
  148SAPE  H11R16322   4.290   3.066   7.207  1.1466  1.2954 -0.4747
  148SAPE  C21216323   4.293   3.035   7.416  0.1383 -0.3332 -0.0094
  148SAPE  H12R16324   4.318   2.928   7.407 -1.1657 -0.7694  1.3428
  148SAPE  C21316325   4.274   3.083   7.558 -0.4958 -0.4034 -0.1687
  148SAPE  H13R16326   4.191   3.029   7.607  0.8336 -0.6135  1.9379
  148SAPE  H13S16327   4.225   3.183   7.558 -1.5941 -0.9337 -0.1909
  148SAPE  C21416328   4.398   3.080   7.650  0.3736  0.1089 -0.1782
  148SAPE  H14R16329   4.487   3.127   7.607  1.2689 -2.5329 -1.2828
  148SAPE  C21516330   4.408   3.040   7.775 -0.2997 -0.2016 -0.0128
  148SAPE  H15R16331   4.510   3.042   7.818 -1.2434 -0.5146  2.3002
  148SAPE  C21616332   4.299   2.982   7.858 -0.1506 -0.1518  0.8508
  148SAPE  H16R16333   4.300   2.873   7.836 -0.2749  0.4605 -2.4035
  148SAPE  H16S16334   4.197   3.011   7.824 -0.1481 -1.7901 -0.6796
  148SAPE  C21716335   4.310   3.008   8.014 -0.0312  0.1964  0.7389
  148SAPE  H17R16336   4.334   3.115   8.036  2.0108  0.0242 -0.5269
  148SAPE  H17S16337   4.393   2.948   8.057  0.1975  0.4942  0.7148
  148SAPE  C21816338   4.178   2.978   8.093 -0.2074  0.2388 -0.9935
  148SAPE  H18R16339   4.141   2.876   8.070 -2.1551  0.4777  0.8813
  148SAPE  H18S16340   4.094   3.046   8.070 -1.5650 -0.0638  2.7292
  148SAPE  C21916341   4.211   2.988   8.242 -0.0238  0.7638  0.0799
  148SAPE  H19R16342   4.116   2.989   8.299 -0.2821 -0.7446 -0.3054
  148SAPE  H19S16343   4.265   3.084   8.254  0.2261  0.6027  0.2418
  148SAPE  C22016344   4.291   2.877   8.298 -0.3165  0.4160  0.0027
  148SAPE  H20R16345   4.233   2.786   8.272 -0.0203  1.0389 -3.0854
  148SAPE  H20S16346   4.309   2.884   8.407  0.6224  1.2956 -0.1927
  148SAPE  H20T16347   4.393   2.870   8.253 -0.7222  0.0390 -0.8662
  148SAPE   C3316348   3.267   3.669   7.179  0.1951 -0.3701 -0.2766
  148SAPE   H3X16349   3.212   3.761   7.206  0.5403  0.1216 -1.2360
  148SAPE   H3Y16350   3.375   3.697   7.175  0.6302 -2.1526 -2.5232
  148SAPE   C3416351   3.257   3.555   7.286  0.0883 -0.1914  0.4031
  148SAPE   H4X16352   3.304   3.461   7.250 -3.8870 -1.7745 -0.9377
  148SAPE   H4Y16353   3.151   3.527   7.300 -0.3326  1.5745  0.9042
  148SAPE   C3516354   3.298   3.605   7.421  0.4337 -0.3582 -0.0616
  148SAPE   H5X16355   3.240   3.695   7.448  0.1256 -1.0024  1.4734
  148SAPE   H5Y16356   3.407   3.629   7.419  0.6497 -1.4179 -2.1098
  148SAPE   C3616357   3.282   3.513   7.547  0.7677 -0.5057  0.1024
  148SAPE   H6X16358   3.339   3.423   7.515  0.4598 -0.5040 -0.4684
  148SAPE   H6Y16359   3.172   3.505   7.560  0.5503  2.2886  0.4142
  148SAPE   C3716360   3.356   3.570   7.669  0.0875  0.8112  0.2613
  148SAPE   H7X16361   3.333   3.678   7.677 -0.7754  0.7093 -0.7955
  148SAPE   H7Y16362   3.466   3.560   7.654 -0.3645 -0.9901 -2.2427
  148SAPE   C3816363   3.323   3.481   7.794 -0.1750  0.1045 -0.1159
  148SAPE   H8X16364   3.227   3.425   7.786 -0.2244  0.1606  0.0883
  148SAPE   H8Y16365   3.324   3.548   7.882 -1.1703  1.1451 -0.8981
  148SAPE   C3916366   3.421   3.369   7.826 -0.1589 -0.1029  0.2141
  148SAPE   H9X16367   3.521   3.418   7.822 -0.9681  1.5383 -0.2639
  148SAPE   H9Y16368   3.399   3.288   7.754 -0.0837 -0.4565  0.5854
  148SAPE  C31016369   3.410   3.308   7.965  0.1403 -0.0644 -0.3040
  148SAPE  H10X16370   3.458   3.378   8.037 -2.2516  2.5887 -1.2129
  148SAPE  H10Y16371   3.473   3.217   7.956  1.8684  1.2885 -2.5637
  148SAPE  C31116372   3.272   3.255   8.020  0.2896  0.5098  0.4916
  148SAPE  H11X16373   3.244   3.173   7.950  0.7082  1.0959 -0.3629
  148SAPE  H11Y16374   3.202   3.339   8.002  1.2542  1.7880  2.6042
  148SAPE  C31216375   3.274   3.223   8.174 -0.9457  0.2333 -0.5357
  148SAPE  H12X16376   3.307   3.314   8.227 -1.0066 -0.0971  0.0770
  148SAPE  H12Y16377   3.352   3.145   8.189 -0.7850  0.6135  0.6315
  148SAPE  C31316378   3.148   3.162   8.228 -0.2527  0.3934  0.4545
  148SAPE  H13X16379   3.119   3.081   8.157  0.4618  0.0868  0.5110
  148SAPE  H13Y16380   3.067   3.238   8.225 -0.8923 -0.2649  0.9608
  148SAPE  C31416381   3.166   3.108   8.368 -0.3017 -0.3544 -0.3716
  148SAPE  H14X16382   3.192   3.191   8.436 -2.3578  1.8809 -2.2442
  148SAPE  H14Y16383   3.252   3.037   8.367  1.1074  1.3454 -0.6243
  148SAPE  C31516384   3.039   3.035   8.409  0.4506  0.0560 -0.2229
  148SAPE  H15X16385   3.014   2.938   8.360 -0.7546  1.6703 -2.9447
  148SAPE  H15Y16386   2.958   3.107   8.382 -0.2386 -0.7477 -0.3172
  148SAPE  C31616387   3.045   3.012   8.561 -0.0371 -0.3193 -0.3838
  148SAPE  H16X16388   2.944   3.027   8.604  0.7050  3.1195  0.3082
  148SAPE  H16Y16389   3.101   3.091   8.615 -0.2505  2.6499 -4.2186
  148SAPE  C31716390   3.090   2.871   8.602  0.4662 -0.0452  0.0139
  148SAPE  H17X16391   3.199   2.864   8.621  0.4775  1.8321  0.7058
  148SAPE  H17Y16392   3.070   2.797   8.521  0.0152  2.3734 -2.1355
  148SAPE  C31816393   3.017   2.829   8.723 -0.3638  0.3293 -0.1560
  148SAPE  H18X16394   3.026   2.719   8.739 -0.5960 -0.2293 -3.4580
  148SAPE  H18Y16395   2.907   2.845   8.719 -0.2168  1.8502  1.3107
  148SAPE  H18Z16396   3.066   2.883   8.807  1.7334 -1.6316 -0.0658
  149SAPE     N16397   3.766   4.625   6.384  0.0156  0.6168  0.5205
  149SAPE   HN116398   3.771   4.728   6.369  0.2724  0.1622 -2.8045
  149SAPE   HN216399   3.811   4.595   6.473 -0.5552  1.1132  0.9884
  149SAPE   HN316400   3.815   4.584   6.302 -1.5543  1.7670 -1.0392
  149SAPE   C1216401   3.631   4.576   6.367 -0.1406  0.1313  0.6600
  149SAPE  H12A16402   3.583   4.604   6.271 -0.4918 -2.6012  0.0003
  149SAPE  H12B16403   3.567   4.629   6.441  2.0044  3.0618  0.4787
  149SAPE   C1116404   3.617   4.430   6.402  0.0752  0.5977  0.8798
  149SAPE  H11A16405   3.513   4.401   6.376  2.1451 -4.7277 -2.3821
  149SAPE  H11B16406   3.636   4.415   6.510 -0.6335  1.1376  1.0816
  149SAPE     P16407   3.820   4.261   6.370 -0.2258 -0.1189  0.0912
  149SAPE   O1316408   3.757   4.137   6.425 -0.3062  0.1878 -0.6572
  149SAPE   O1416409   3.901   4.245   6.250 -0.2948 -0.9261  0.0761
  149SAPE   O1216410   3.694   4.336   6.324  0.1383 -0.0460 -0.3015
  149SAPE   O1116411   3.894   4.355   6.476  0.0571  0.8930  0.5943
  149SAPE    C116412   4.022   4.309   6.525  0.3571  0.0386 -0.5519
  149SAPE    HA16413   4.071   4.227   6.469 -0.5006 -1.7100  1.1908
  149SAPE    HB16414   4.088   4.398   6.530 -0.5051  0.6391  0.5292
  149SAPE    C216415   4.004   4.247   6.665 -0.9234 -0.0284  0.5534
  149SAPE    HS16416   3.932   4.162   6.659  0.7266 -1.3629 -0.7610
  149SAPE   O2116417   3.955   4.355   6.750 -0.0304  0.0094 -0.4069
  149SAPE   C2116418   3.869   4.321   6.836 -0.3468 -0.2867 -0.2661
  149SAPE   O2216419   3.836   4.200   6.854  0.2882 -0.2050 -0.2326
  149SAPE   C2216420   3.839   4.437   6.936 -0.3320 -0.5057  0.8610
  149SAPE   H2R16421   3.923   4.501   6.972 -0.5748  0.3507 -0.0630
  149SAPE   H2S16422   3.776   4.502   6.872  1.6170  0.8674  0.2570
  149SAPE    C316423   4.143   4.196   6.729  0.7008 -0.2080  0.0065
  149SAPE    HX16424   4.217   4.278   6.721  0.2049  0.2470  0.1266
  149SAPE    HY16425   4.164   4.100   6.676  0.7815  0.2895 -0.8711
  149SAPE   O3116426   4.122   4.172   6.868  0.1390  0.1370 -0.1961
  149SAPE   C3116427   4.233   4.161   6.943 -0.4413  0.5694 -0.9985
  149SAPE   O3216428   4.344   4.173   6.901 -0.2747  0.2524 -0.2476
  149SAPE   C3216429   4.192   4.160   7.087 -0.2048  0.2051 -0.3114
  149SAPE   H2X16430   4.157   4.059   7.115 -0.0403  0.0159 -0.7877
  149SAPE   H2Y16431   4.111   4.233   7.109 -1.3425 -0.9519 -0.6331
  149SAPE   C2316432   3.751   4.385   7.056  0.0505 -0.1725 -0.0103
  149SAPE   H3R16433   3.693   4.301   7.013  0.9921 -0.8534  0.0114
  149SAPE   H3S16434   3.681   4.464   7.091 -1.2343 -1.1164 -0.4110
  149SAPE   C2416435   3.839   4.330   7.168  0.5043  0.2338 -0.0762
  149SAPE   H4R16436   3.892   4.414   7.218 -0.2078 -0.1065  1.3018
  149SAPE   H4S16437   3.919   4.259   7.141 -0.5232 -1.3091  0.8309
  149SAPE   C2516438   3.752   4.254   7.264 -0.6228 -0.2055  0.2678
  149SAPE   H5R16439   3.697   4.168   7.223 -0.1463 -0.8994  1.0510
  149SAPE   C2616440   3.741   4.285   7.396 -0.1902  0.0544  0.0102
  149SAPE   H6R16441   3.672   4.225   7.457  0.1026 -2.7700 -2.3193
  149SAPE   C2716442   3.821   4.396   7.467 -0.3001 -0.2078  0.6261
  149SAPE   H7R16443   3.917   4.420   7.418 -0.7735  0.1437 -0.1263
  149SAPE   H7S16444   3.848   4.359   7.568 -1.4361  2.2795  1.8931
  149SAPE   C2816445   3.745   4.525   7.472 -0.0292  0.3436  0.2450
  149SAPE   H8R16446   3.725   4.572   7.374  4.2140  1.0843 -0.3957
  149SAPE   C2916447   3.702   4.589   7.582  0.3672  0.2904  0.1378
  149SAPE   H9R16448   3.655   4.687   7.567 -0.4051  0.3539  2.6735
  149SAPE  C21016449   3.723   4.551   7.718 -0.2427 -0.0094  0.1207
  149SAPE  H10R16450   3.773   4.641   7.760  2.6059 -2.3710  1.9266
  149SAPE  H10S16451   3.783   4.459   7.730  0.2920 -0.2520 -3.8666
  149SAPE  C21116452   3.585   4.549   7.777  0.7858 -0.0969  0.1272
  149SAPE  H11R16453   3.503   4.591   7.717  1.7068  1.0316 -0.3507
  149SAPE  C21216454   3.561   4.526   7.911  0.1451 -0.4323  0.6157
  149SAPE  H12R16455   3.460   4.529   7.954  1.0280  0.4930  2.6874
  149SAPE  C21316456   3.675   4.499   8.007  0.3279 -0.1455 -0.2446
  149SAPE  H13R16457   3.652   4.568   8.091 -1.6305  0.3610 -1.1568
  149SAPE  H13S16458   3.774   4.524   7.965  1.9713  0.3452  3.7391
  149SAPE  C21416459   3.679   4.349   8.041 -0.1376 -0.2952  0.8661
  149SAPE  H14R16460   3.639   4.279   7.967 -0.1635  0.4177  0.1992
  149SAPE  C21516461   3.738   4.301   8.156  0.0450  0.6348  0.9040
  149SAPE  H15R16462   3.739   4.192   8.165 -0.6813  0.5678  0.2239
  149SAPE  C21616463   3.809   4.385   8.255  0.3738  0.3749  0.1487
  149SAPE  H16R16464   3.837   4.483   8.213 -0.6354 -0.1986 -1.9614
  149SAPE  H16S16465   3.902   4.336   8.289 -0.6619 -1.9536 -0.2308
  149SAPE  C21716466   3.723   4.407   8.383  0.1330 -0.2530 -0.2127
  149SAPE  H17R16467   3.697   4.304   8.415  0.8806  0.0545  1.4608
  149SAPE  H17S16468   3.639   4.473   8.352  0.1943  0.0287  0.2174
  149SAPE  C21816469   3.796   4.487   8.486 -0.4315 -0.2197  0.2708
  149SAPE  H18R16470   3.853   4.574   8.447 -1.5904  1.0995  1.4728
  149SAPE  H18S16471   3.865   4.418   8.540  1.2690 -0.8479 -2.5915
  149SAPE  C21916472   3.702   4.556   8.590 -0.5255 -0.2776  0.5840
  149SAPE  H19R16473   3.643   4.626   8.528  1.9471  0.0887 -1.4698
  149SAPE  H19S16474   3.767   4.608   8.663 -1.7303 -1.2319  2.3746
  149SAPE  C22016475   3.605   4.467   8.664  0.1943  0.2154  0.5471
  149SAPE  H20R16476   3.540   4.520   8.737  1.6710  1.2573  1.1329
  149SAPE  H20S16477   3.659   4.389   8.721 -1.1520 -0.6202  0.6993
  149SAPE  H20T16478   3.541   4.414   8.590 -1.8323  1.6239  1.2322
  149SAPE   C3316479   4.307   4.190   7.189  0.8252 -0.1345  0.1039
  149SAPE   H3X16480   4.330   4.299   7.180  0.8498 -0.1760 -0.3231
  149SAPE   H3Y16481   4.392   4.125   7.159  0.8855  0.5351 -1.2145
  149SAPE   C3416482   4.267   4.164   7.340 -1.0209 -0.4312 -0.2696
  149SAPE   H4X16483   4.164   4.198   7.364  0.3254  3.6683  0.0214
  149SAPE   H4Y16484   4.342   4.210   7.407 -0.0927  0.4220 -1.8715
  149SAPE   C3516485   4.252   4.011   7.367 -0.8433  0.4965  0.2269
  149SAPE   H5X16486   4.337   3.946   7.337 -1.0547 -0.3075  1.3469
  149SAPE   H5Y16487   4.161   3.974   7.315 -2.2881 -0.9366  3.6383
  149SAPE   C3616488   4.209   3.973   7.509  0.1336  0.3496 -0.5884
  149SAPE   H6X16489   4.117   4.033   7.527 -0.5911 -1.7185  3.1112
  149SAPE   H6Y16490   4.290   4.016   7.573 -0.8222  0.7475  0.3632
  149SAPE   C3716491   4.195   3.823   7.528 -0.1831 -0.4519  0.7628
  149SAPE   H7X16492   4.253   3.779   7.444  1.6480  2.3510  0.4888
  149SAPE   H7Y16493   4.086   3.807   7.510  0.4430 -2.9797 -1.0686
  149SAPE   C3816494   4.244   3.782   7.668 -0.4020 -0.7137  0.4314
  149SAPE   H8X16495   4.200   3.853   7.741 -1.7914  0.0465 -1.1055
  149SAPE   H8Y16496   4.355   3.792   7.668 -0.5896  1.6041  1.0648
  149SAPE   C3916497   4.218   3.638   7.711  0.1652 -1.0228  0.4343
  149SAPE   H9X16498   4.290   3.572   7.659  0.2770 -1.2856  0.9218
  149SAPE   H9Y16499   4.112   3.613   7.690 -0.3815  1.1056  0.4577
  149SAPE  C31016500   4.264   3.626   7.854 -0.0511 -0.3657  0.0896
  149SAPE  H10X16501   4.243   3.717   7.914  1.5464 -0.6287  1.0508
  149SAPE  H10Y16502   4.371   3.600   7.864 -0.1366 -0.3278  1.1233
  149SAPE  C31116503   4.189   3.505   7.917 -0.2305  0.8147 -1.0245
  149SAPE  H11X16504   4.200   3.431   7.835 -2.1737  0.4566 -0.9954
  149SAPE  H11Y16505   4.083   3.534   7.933 -1.4209 -2.6324 -2.1943
  149SAPE  C31216506   4.254   3.448   8.042  0.3201  0.0718 -0.5533
  149SAPE  H12X16507   4.362   3.440   8.017  0.3714  0.3213 -0.4109
  149SAPE  H12Y16508   4.211   3.349   8.068 -1.7287  0.8040 -1.0435
  149SAPE  C31316509   4.245   3.552   8.159  0.4751  0.0745  0.5588
  149SAPE  H13X16510   4.140   3.586   8.172  0.6016  0.8678 -0.3533
  149SAPE  H13Y16511   4.307   3.640   8.131  0.9256  0.2183  1.9955
  149SAPE  C31416512   4.298   3.497   8.287  0.4810 -0.6041  0.6183
  149SAPE  H14X16513   4.232   3.422   8.337 -2.2473  2.0032  1.0994
  149SAPE  H14Y16514   4.290   3.591   8.344  0.6734 -0.3885  0.2886
  149SAPE  C31516515   4.445   3.448   8.286 -0.1824  0.3208 -0.5505
  149SAPE  H15X16516   4.493   3.516   8.212  4.5022 -0.6213  1.4351
  149SAPE  H15Y16517   4.431   3.345   8.247 -2.8161  1.1084 -1.8128
  149SAPE  C31616518   4.516   3.447   8.417 -0.4074 -0.1191  0.0443
  149SAPE  H16X16519   4.504   3.547   8.465  0.8905 -0.2906  0.7676
  149SAPE  H16Y16520   4.625   3.434   8.399 -0.6701 -0.0078 -1.7559
  149SAPE  C31716521   4.471   3.340   8.512 -0.1414  0.4369  0.2953
  149SAPE  H17X16522   4.433   3.250   8.460  1.4572  0.1547 -0.4018
  149SAPE  H17Y16523   4.389   3.382   8.574  2.7113  2.9665  2.5068
  149SAPE  C31816524   4.578   3.286   8.611  0.2937  0.2309  0.5126
  149SAPE  H18X16525   4.665   3.239   8.560 -1.0046 -0.7553 -0.8423
  149SAPE  H18Y16526   4.534   3.202   8.669  2.8051 -1.2013  0.4279
  149SAPE  H18Z16527   4.608   3.366   8.682  0.4795 -0.9709  1.8242
  150SAPE     N16528   2.501   4.950   6.481  0.1174 -0.1987  0.0844
  150SAPE   HN116529   2.464   4.874   6.420 -0.7909 -0.2642  0.6934
  150SAPE   HN216530   2.543   5.019   6.416 -1.3195 -0.1773 -0.8456
  150SAPE   HN316531   2.565   4.906   6.550 -0.9568  0.2270  1.3742
  150SAPE   C1216532   2.389   5.014   6.554  0.6303  0.6246  0.3095
  150SAPE  H12A16533   2.424   5.052   6.652 -0.1140  0.1517  0.7684
  150SAPE  H12B16534   2.324   4.927   6.578  1.8897 -0.1321  1.0294
  150SAPE   C1116535   2.314   5.119   6.465 -0.3114  0.2790 -1.1158
  150SAPE  H11A16536   2.213   5.143   6.504  0.4391  0.1484  0.9870
  150SAPE  H11B16537   2.288   5.073   6.368 -1.3611  1.3717 -1.3561
  150SAPE     P16538   2.340   5.339   6.343  0.1065  0.0569 -0.2478
  150SAPE   O1316539   2.348   5.275   6.212  0.4015 -0.5358 -0.1271
  150SAPE   O1416540   2.215   5.386   6.393 -0.1708  0.5324  0.5989
  150SAPE   O1216541   2.390   5.237   6.453  0.5176  0.2475 -0.2713
  150SAPE   O1116542   2.437   5.452   6.359  0.0566 -0.5314  0.5789
  150SAPE    C116543   2.557   5.452   6.441  0.1847 -0.4510 -0.1564
  150SAPE    HA16544   2.635   5.392   6.389 -1.1942 -1.1518 -1.4835
  150SAPE    HB16545   2.606   5.552   6.445 -0.0772 -0.4157  4.5883
  150SAPE    C216546   2.536   5.439   6.594  0.1448 -0.0479  0.0472
  150SAPE    HS16547   2.484   5.343   6.617  0.2165 -0.0903  0.0316
  150SAPE   O2116548   2.463   5.546   6.646  0.0179  0.2896  0.3297
  150SAPE   C2116549   2.369   5.508   6.730 -0.0636 -0.2044  0.5902
  150SAPE   O2216550   2.327   5.398   6.765 -0.0985  0.1674 -0.6671
  150SAPE   C2216551   2.319   5.636   6.806 -0.6517 -0.1281 -0.1563
  150SAPE   H2R16552   2.381   5.725   6.786 -1.8598 -0.0044 -3.7556
  150SAPE   H2S16553   2.217   5.656   6.766 -0.8482 -2.0111 -0.6277
  150SAPE    C316554   2.662   5.434   6.681 -0.1867  0.4721 -0.6937
  150SAPE    HX16555   2.710   5.533   6.671 -0.7932  1.0747  1.9413
  150SAPE    HY16556   2.731   5.361   6.633  0.0850  0.8207 -0.8305
  150SAPE   O3116557   2.640   5.411   6.822  0.5467 -0.5497 -0.2932
  150SAPE   C3116558   2.616   5.283   6.851 -0.4882  1.0433  0.0243
  150SAPE   O3216559   2.614   5.196   6.767  0.3871 -0.0524 -0.2757
  150SAPE   C3216560   2.565   5.282   6.995 -0.4475 -0.4527  0.0472
  150SAPE   H2X16561   2.467   5.333   7.002  0.5315  1.1217  3.7351
  150SAPE   H2Y16562   2.643   5.332   7.058  1.1104 -1.4961 -1.0164
  150SAPE   C2316563   2.302   5.628   6.956  0.0979 -0.0795 -0.2124
  150SAPE   H3R16564   2.387   5.563   6.987 -0.7630 -0.4611  1.3824
  150SAPE   H3S16565   2.207   5.582   6.990  1.1319 -1.5718  0.7226
  150SAPE   C2416566   2.312   5.769   7.021 -0.3086 -0.1655  0.8029
  150SAPE   H4R16567   2.379   5.842   6.970  0.4122 -1.2297  0.2035
  150SAPE   H4S16568   2.362   5.752   7.118  3.1820 -1.9545 -1.1927
  150SAPE   C2516569   2.181   5.835   7.037  0.4134  0.1819  0.5189
  150SAPE   H5R16570   2.137   5.864   6.941 -1.7319  0.4159  1.5435
  150SAPE   C2616571   2.102   5.849   7.148  0.1304 -0.0044 -0.4482
  150SAPE   H6R16572   2.010   5.907   7.138  1.8274  2.2711 -3.4439
  150SAPE   C2716573   2.132   5.809   7.290 -0.7500 -0.0648 -0.6455
  150SAPE   H7R16574   2.143   5.903   7.347  2.7947 -0.8262  0.0792
  150SAPE   H7S16575   2.236   5.769   7.298 -0.2721  0.6213 -3.1795
  150SAPE   C2816576   2.031   5.725   7.355 -0.7913 -0.5539  0.8329
  150SAPE   H8R16577   1.947   5.689   7.294  0.1123 -3.6916  1.3095
  150SAPE   C2916578   2.028   5.687   7.486  0.8004 -0.3995  0.2681
  150SAPE   H9R16579   1.942   5.623   7.510 -0.3362  0.2532 -1.9269
  150SAPE  C21016580   2.118   5.719   7.602  0.2012 -0.4133  0.2791
  150SAPE  H10R16581   2.203   5.781   7.566  0.1196  0.0333  0.8453
  150SAPE  H10S16582   2.153   5.625   7.651  1.9659 -0.5591 -1.2215
  150SAPE  C21116583   2.038   5.798   7.714 -0.4699  0.4390  1.0732
  150SAPE  H11R16584   1.953   5.855   7.673  1.4902  2.0764 -0.8548
  150SAPE  C21216585   2.060   5.794   7.843  0.8792  0.5138  0.9536
  150SAPE  H12R16586   1.988   5.850   7.904  0.5402  2.4876 -1.1601
  150SAPE  C21316587   2.153   5.706   7.918 -0.2150 -0.1009  0.2468
  150SAPE  H13R16588   2.222   5.763   7.984  0.0063 -1.9327  1.6467
  150SAPE  H13S16589   2.214   5.644   7.848  1.1018  1.6332 -0.1594
  150SAPE  C21416590   2.059   5.617   7.998  0.2967  0.1654  0.2385
  150SAPE  H14R16591   2.014   5.538   7.936 -0.2397  0.2048  0.5672
  150SAPE  C21516592   2.032   5.631   8.135  0.0267  0.5070  0.5715
  150SAPE  H15R16593   1.971   5.561   8.195  0.1561 -0.4711 -0.4359
  150SAPE  C21616594   2.096   5.719   8.239  0.1305 -0.8022  0.2958
  150SAPE  H16R16595   2.022   5.772   8.304  0.0368  1.5456 -1.6359
  150SAPE  H16S16596   2.142   5.801   8.180  1.7168 -2.2317 -0.4783
  150SAPE  C21716597   2.210   5.665   8.321  0.2950 -0.0307  0.3233
  150SAPE  H17R16598   2.299   5.714   8.275  2.0651  0.0220  3.6852
  150SAPE  H17S16599   2.212   5.557   8.296  1.2198  0.4019 -1.5729
  150SAPE  C21816600   2.189   5.696   8.471  0.4498  0.1913  0.0045
  150SAPE  H18R16601   2.120   5.627   8.525 -1.1231  0.2908 -1.8112
  150SAPE  H18S16602   2.162   5.804   8.476  1.2877  0.4282 -0.5263
  150SAPE  C21916603   2.327   5.686   8.533  0.7800  0.2344 -0.9691
  150SAPE  H19R16604   2.398   5.752   8.479 -0.7479  0.3360 -2.8798
  150SAPE  H19S16605   2.352   5.580   8.509  1.6301  0.1850  0.0512
  150SAPE  C22016606   2.346   5.703   8.686 -0.4201  0.4437  0.1560
  150SAPE  H20R16607   2.282   5.626   8.734  0.6281 -1.5948 -1.5924
  150SAPE  H20S16608   2.316   5.805   8.716 -0.9368  0.2620  0.2595
  150SAPE  H20T16609   2.454   5.679   8.700 -0.1887 -0.1142 -2.2613
  150SAPE   C3316610   2.572   5.136   7.061 -0.1737 -0.1940  0.9180
  150SAPE   H3X16611   2.677   5.100   7.054  1.3879  3.8556  1.8767
  150SAPE   H3Y16612   2.497   5.067   7.018 -0.3891  0.8024 -0.3370
  150SAPE   C3416613   2.561   5.136   7.224 -0.3581 -0.0826 -0.3694
  150SAPE   H4X16614   2.468   5.189   7.251 -0.2208 -0.6082  1.1469
  150SAPE   H4Y16615   2.649   5.201   7.243  1.0420 -1.4288 -1.9924
  150SAPE   C3516616   2.577   5.001   7.298  0.2287 -0.3510  0.8952
  150SAPE   H5X16617   2.676   4.957   7.274  0.0352 -0.9573  1.2021
  150SAPE   H5Y16618   2.497   4.932   7.265 -1.4398  0.9011  2.2330
  150SAPE   C3616619   2.562   5.016   7.451  0.4462 -0.8913  0.0747
  150SAPE   H6X16620   2.461   5.058   7.472  1.0899  2.1525 -2.4857
  150SAPE   H6Y16621   2.637   5.092   7.482  0.0166 -0.4349  0.0064
  150SAPE   C3716622   2.588   4.886   7.524 -0.6298 -0.1391 -0.2319
  150SAPE   H7X16623   2.686   4.843   7.493 -0.8934 -0.7013 -0.3016
  150SAPE   H7Y16624   2.514   4.810   7.490 -0.9074 -1.1706  2.5736
  150SAPE   C3816625   2.583   4.895   7.676  0.2329 -0.7092 -0.5237
  150SAPE   H8X16626   2.489   4.944   7.709  0.6557 -0.6252  0.5838
  150SAPE   H8Y16627   2.671   4.946   7.720 -0.3414 -0.5140  0.4048
  150SAPE   C3916628   2.576   4.758   7.733  0.3304  0.2318  0.0245
  150SAPE   H9X16629   2.667   4.700   7.707 -0.4646 -0.2198 -1.8007
  150SAPE   H9Y16630   2.486   4.709   7.691  1.0363  0.4700 -1.8118
  150SAPE  C31016631   2.568   4.761   7.886  0.0812 -0.2131 -0.0330
  150SAPE  H10X16632   2.474   4.814   7.910  0.8994  1.3875 -0.3001
  150SAPE  H10Y16633   2.650   4.824   7.928  0.3467 -0.3145 -0.3919
  150SAPE  C31116634   2.570   4.629   7.959  0.2402  0.2411  0.8922
  150SAPE  H11X16635   2.484   4.568   7.926 -0.0366  1.5065 -0.7680
  150SAPE  H11Y16636   2.573   4.640   8.070 -0.2004  3.1499  0.6615
  150SAPE  C31216637   2.690   4.542   7.925 -0.0647 -1.0196 -0.6884
  150SAPE  H12X16638   2.789   4.591   7.932 -1.3543  1.9107 -1.9845
  150SAPE  H12Y16639   2.669   4.491   7.828  1.7709 -2.4265 -0.3611
  150SAPE  C31316640   2.701   4.424   8.025 -0.0446 -0.6287  0.7079
  150SAPE  H13X16641   2.727   4.463   8.126 -2.7116  1.0155  0.8098
  150SAPE  H13Y16642   2.781   4.358   7.984  1.0794  0.4178  1.1862
  150SAPE  C31416643   2.582   4.336   8.030 -0.5845  0.1428 -0.4734
  150SAPE  H14X16644   2.543   4.289   7.936 -0.4267 -1.3307  0.1833
  150SAPE  H14Y16645   2.498   4.401   8.062  1.0585  0.8342  2.5663
  150SAPE  C31516646   2.610   4.228   8.129  0.7760 -1.1555 -0.4768
  150SAPE  H15X16647   2.705   4.244   8.185 -1.3265  0.0249  2.9440
  150SAPE  H15Y16648   2.620   4.131   8.076 -1.9801 -1.3886 -0.6243
  150SAPE  C31616649   2.498   4.220   8.234 -0.0503 -0.1095 -0.6079
  150SAPE  H16X16650   2.494   4.313   8.295 -0.7815  1.6729 -3.2556
  150SAPE  H16Y16651   2.534   4.138   8.300  0.3581  0.2293 -0.4049
  150SAPE  C31716652   2.364   4.184   8.185  0.5006  0.2550  0.2098
  150SAPE  H17X16653   2.370   4.090   8.127 -0.3482  0.0151  0.5066
  150SAPE  H17Y16654   2.320   4.261   8.119  1.0443  0.0291 -0.4178
  150SAPE  C31816655   2.264   4.141   8.292 -0.2563 -0.4564 -0.0198
  150SAPE  H18X16656   2.158   4.124   8.260 -0.7006  1.3055  0.4302
  150SAPE  H18Y16657   2.253   4.205   8.382  0.4502 -0.2880 -0.0515
  150SAPE  H18Z16658   2.293   4.045   8.338  1.2091 -0.8359 -1.6849
  151SAPE     N16659   4.603   3.772   6.327  0.4268  0.3778 -0.0085
  151SAPE   HN116660   4.524   3.838   6.344 -1.4363 -1.6090 -0.8153
  151SAPE   HN216661   4.654   3.818   6.249 -1.3464 -2.7305 -3.1151
  151SAPE   HN316662   4.562   3.683   6.292 -0.4087  0.3783  0.9653
  151SAPE   C1216663   4.665   3.748   6.458  0.3809  0.3079 -0.3315
  151SAPE  H12A16664   4.602   3.680   6.519  2.9065 -1.3230  0.5450
  151SAPE  H12B16665   4.677   3.849   6.503 -0.2283  1.1645 -2.0807
  151SAPE   C1116666   4.795   3.670   6.423 -0.1539  0.0603  0.0519
  151SAPE  H11A16667   4.771   3.572   6.377  2.3214 -0.1211 -0.9468
  151SAPE  H11B16668   4.840   3.632   6.517 -2.2523 -0.7007  0.7882
  151SAPE     P16669   4.950   3.692   6.210  0.3240  0.1586 -0.3563
  151SAPE   O1316670   4.905   3.551   6.191 -0.4658  0.4631  0.6242
  151SAPE   O1416671   4.940   3.786   6.097  0.2512 -0.4013  0.0162
  151SAPE   O1216672   4.886   3.751   6.344 -0.4299  0.1981 -0.3811
  151SAPE   O1116673   5.097   3.705   6.262  0.3318 -0.8093 -0.0832
  151SAPE    C116674   5.146   3.628   6.375 -0.7122 -0.3372  0.2322
  151SAPE    HA16675   5.174   3.688   6.464 -0.8569  0.7409 -0.4376
  151SAPE    HB16676   5.069   3.556   6.411 -2.4330  0.7640 -1.0936
  151SAPE    C216677   5.270   3.555   6.328  0.4782  0.3362  0.2485
  151SAPE    HS16678   5.253   3.521   6.224 -3.4163  1.9848  0.2660
  151SAPE   O2116679   5.286   3.450   6.423 -0.5380  0.7786 -0.1232
  151SAPE   C2116680   5.334   3.343   6.368 -0.2008 -0.9521  0.5242
  151SAPE   O2216681   5.375   3.333   6.250  0.9060 -0.5471 -0.2141
  151SAPE   C2216682   5.331   3.229   6.466 -0.1917 -0.5138 -0.5040
  151SAPE   H2R16683   5.276   3.143   6.421 -0.2229 -0.8049  0.0893
  151SAPE   H2S16684   5.433   3.191   6.491 -0.0540  0.4669  0.4123
  151SAPE    C316685   5.397   3.641   6.323 -0.1590 -0.1936  0.3076
  151SAPE    HX16686   5.373   3.725   6.254  2.5187  2.4374  2.4649
  151SAPE    HY16687   5.479   3.580   6.281 -0.3547 -1.5996  1.9417
  151SAPE   O3116688   5.428   3.703   6.450 -0.3108  0.0600 -0.0803
  151SAPE   C3116689   5.496   3.631   6.542  0.1555  0.1184  0.3685
  151SAPE   O3216690   5.564   3.533   6.539 -0.5707 -0.4078 -0.4443
  151SAPE   C3216691   5.477   3.713   6.679 -0.4160  0.7598 -0.0192
  151SAPE   H2X16692   5.368   3.727   6.698 -0.6125  0.1046 -0.6381
  151SAPE   H2Y16693   5.516   3.817   6.675  0.1746  0.6362  2.1574
  151SAPE   C2316694   5.254   3.254   6.594 -0.7652  0.1473 -0.0803
  151SAPE   H3R16695   5.143   3.249   6.582 -0.6869 -2.5567 -0.0471
  151SAPE   H3S16696   5.285   3.352   6.636  1.2666  0.0600 -1.3124
  151SAPE   C2416697   5.296   3.142   6.699  0.1853 -0.2062 -0.2792
  151SAPE   H4R16698   5.239   3.182   6.786 -0.2579  1.2154 -1.2122
  151SAPE   H4S16699   5.401   3.163   6.728 -0.0577  2.4993 -1.2173
  151SAPE   C2516700   5.265   2.998   6.671  0.0092 -0.0266  0.1066
  151SAPE   H5R16701   5.277   2.968   6.566  1.6438 -1.9206  0.7784
  151SAPE   C2616702   5.208   2.916   6.763  0.4359  0.2656  0.0956
  151SAPE   H6R16703   5.195   2.808   6.746  1.9979  0.1030 -0.1836
  151SAPE   C2716704   5.165   2.949   6.899  0.7513 -0.5129  0.0869
  151SAPE   H7R16705   5.095   2.872   6.938  1.6865 -1.2527  0.3369
  151SAPE   H7S16706   5.104   3.041   6.888 -1.5823 -2.1255 -0.6747
  151SAPE   C2816707   5.284   2.969   6.984 -0.0476 -0.4515 -0.3298
  151SAPE   H8R16708   5.347   3.053   6.953  1.8001 -1.0413  1.6932
  151SAPE   C2916709   5.330   2.891   7.086  0.3141 -0.1728 -0.4614
  151SAPE   H9R16710   5.425   2.909   7.138 -1.0959  1.7322  1.5543
  151SAPE  C21016711   5.253   2.778   7.150  0.0233 -0.5183  0.1938
  151SAPE  H10R16712   5.206   2.716   7.071  1.3910 -2.2125  0.6780
  151SAPE  H10S16713   5.166   2.808   7.212 -0.7668 -2.0594 -0.1440
  151SAPE  C21116714   5.359   2.696   7.219 -0.6001 -0.6738 -0.0459
  151SAPE  H11R16715   5.435   2.653   7.152  0.5555  1.0697  0.1133
  151SAPE  C21216716   5.379   2.687   7.353 -0.3818 -0.6224  0.6482
  151SAPE  H12R16717   5.461   2.627   7.396  1.9999  2.0418  0.0121
  151SAPE  C21316718   5.294   2.764   7.448 -0.4638  0.0878 -0.0326
  151SAPE  H13R16719   5.252   2.860   7.412  1.5015  2.0386  2.7230
  151SAPE  H13S16720   5.367   2.793   7.527  1.6471  1.5023 -2.4006
  151SAPE  C21416721   5.173   2.691   7.503 -0.5921 -0.0469 -0.2048
  151SAPE  H14R16722   5.083   2.676   7.442 -0.2021  1.3796 -1.1416
  151SAPE  C21516723   5.173   2.625   7.626  0.4486  0.4209  0.1739
  151SAPE  H15R16724   5.086   2.561   7.649  1.5190 -0.8157  0.8431
  151SAPE  C21616725   5.290   2.610   7.716  0.2681  0.1175  0.2227
  151SAPE  H16R16726   5.326   2.711   7.743 -0.8254  0.1660  1.5726
  151SAPE  H16S16727   5.375   2.557   7.668 -0.2231 -1.6748  1.2496
  151SAPE  C21716728   5.260   2.521   7.848  0.4579 -0.2432  0.4411
  151SAPE  H17R16729   5.203   2.436   7.805 -1.0113  0.0944  1.6815
  151SAPE  H17S16730   5.197   2.580   7.918  0.5613 -1.2428  1.3981
  151SAPE  C21816731   5.385   2.467   7.915  0.8060 -0.5213 -0.3738
  151SAPE  H18R16732   5.453   2.438   7.832  1.4810  1.8097 -0.6877
  151SAPE  H18S16733   5.346   2.384   7.977  0.2426  0.9324  1.2336
  151SAPE  C21916734   5.462   2.560   8.011  0.3879  0.5517 -0.2510
  151SAPE  H19R16735   5.453   2.663   7.969 -0.2684 -0.0794 -1.6742
  151SAPE  H19S16736   5.570   2.532   8.015 -0.0810 -1.0994  1.9165
  151SAPE  C22016737   5.401   2.549   8.149  0.6285  0.4386  0.2558
  151SAPE  H20R16738   5.298   2.589   8.139 -0.0715 -1.4602 -0.4792
  151SAPE  H20S16739   5.400   2.442   8.181  0.4737  0.0102 -1.0930
  151SAPE  H20T16740   5.454   2.602   8.230  3.3050  1.3785 -2.0151
  151SAPE   C3316741   5.544   3.649   6.806 -0.2417  0.7848  0.5333
  151SAPE   H3X16742   5.536   3.717   6.894 -0.4803  0.3227  0.8690
  151SAPE   H3Y16743   5.653   3.653   6.786 -0.9618  0.7207 -3.7360
  151SAPE   C3416744   5.476   3.517   6.851  0.1867 -0.2743 -0.0797
  151SAPE   H4X16745   5.538   3.473   6.930 -1.2606 -1.7200  0.2735
  151SAPE   H4Y16746   5.473   3.442   6.769 -3.2183  0.0200 -0.3304
  151SAPE   C3516747   5.332   3.523   6.904 -0.3383  0.2066 -0.8010
  151SAPE   H5X16748   5.273   3.540   6.812  0.8824 -3.2847 -2.3167
  151SAPE   H5Y16749   5.322   3.611   6.971 -0.7659  0.9363 -1.8177
  151SAPE   C3616750   5.294   3.406   6.998  0.6737 -0.2192  0.1607
  151SAPE   H6X16751   5.329   3.307   6.962  2.8259 -0.1473  1.9484
  151SAPE   H6Y16752   5.183   3.403   6.999  0.6299  1.2507  1.5246
  151SAPE   C3716753   5.336   3.423   7.138  0.2813 -0.2048  0.0107
  151SAPE   H7X16754   5.302   3.523   7.174  2.4104  0.5592 -0.0544
  151SAPE   H7Y16755   5.447   3.430   7.138  0.2206  0.8748  0.9818
  151SAPE   C3816756   5.298   3.312   7.239  0.0902 -0.0078 -0.2782
  151SAPE   H8X16757   5.321   3.213   7.193 -1.7210 -0.6136  0.0605
  151SAPE   H8Y16758   5.189   3.313   7.260  0.4762  1.2520  1.8567
  151SAPE   C3916759   5.362   3.316   7.383  0.6101  0.3569 -0.4944
  151SAPE   H9X16760   5.340   3.417   7.425  1.6157 -0.8635  3.1407
  151SAPE   H9Y16761   5.472   3.302   7.375  0.5013 -1.0720  0.3239
  151SAPE  C31016762   5.308   3.202   7.475 -0.3942 -0.4577  0.7913
  151SAPE  H10X16763   5.303   3.098   7.435 -0.1742 -0.5394  0.9731
  151SAPE  H10Y16764   5.205   3.234   7.501  0.5041  2.0068  1.4343
  151SAPE  C31116765   5.388   3.191   7.610  0.1958  0.5166 -0.2244
  151SAPE  H11X16766   5.384   3.287   7.665  1.5237  1.6413 -2.0539
  151SAPE  H11Y16767   5.493   3.162   7.586  0.2079 -0.8191  1.3537
  151SAPE  C31216768   5.316   3.099   7.704 -0.0993  0.8352 -0.5363
  151SAPE  H12X16769   5.312   2.994   7.667 -0.7575  1.0532 -1.0908
  151SAPE  H12Y16770   5.208   3.125   7.692 -0.8246 -1.5921  0.4185
  151SAPE  C31316771   5.385   3.108   7.842 -1.1655  0.0662  0.0770
  151SAPE  H13X16772   5.364   3.214   7.867  0.6278  1.0198 -2.2916
  151SAPE  H13Y16773   5.493   3.094   7.821 -1.6299 -2.8353 -0.7174
  151SAPE  C31416774   5.337   3.018   7.955 -0.5288 -0.2271  0.0694
  151SAPE  H14X16775   5.349   2.911   7.927  1.0964  0.1435 -0.6924
  151SAPE  H14Y16776   5.229   3.038   7.972 -0.2584  0.2872  1.1955
  151SAPE  C31516777   5.417   3.042   8.086  0.4946  0.5076  0.0774
  151SAPE  H15X16778   5.408   3.147   8.121  3.2512  0.2997  1.4982
  151SAPE  H15Y16779   5.523   3.029   8.055  0.2982 -0.5658 -0.1659
  151SAPE  C31616780   5.385   2.946   8.203  0.3399  0.0412 -0.5585
  151SAPE  H16X16781   5.456   2.977   8.282  0.4184  0.6015 -0.8425
  151SAPE  H16Y16782   5.392   2.844   8.161 -0.0717  0.5076 -1.7994
  151SAPE  C31716783   5.239   2.953   8.270  0.5866 -0.1538  0.6975
  151SAPE  H17X16784   5.163   2.906   8.205  0.2396  3.0694 -1.3518
  151SAPE  H17Y16785   5.199   3.056   8.278  2.6160  0.9349 -2.1439
  151SAPE  C31816786   5.240   2.884   8.402  0.3311  0.1187 -0.3914
  151SAPE  H18X16787   5.308   2.940   8.469  0.4908 -0.2312 -0.2591
  151SAPE  H18Y16788   5.257   2.774   8.400 -0.6669 -0.0350 -1.1467
  151SAPE  H18Z16789   5.135   2.890   8.437  0.2841 -0.7475 -0.3582
  152SAPE     N16790   1.529   6.314   6.217  0.2888 -0.5584 -0.2998
  152SAPE   HN116791   1.457   6.243   6.241 -1.6450  1.6284  0.5117
  152SAPE   HN216792   1.603   6.318   6.290 -1.7822  0.4741  1.7756
  152SAPE   HN316793   1.484   6.407   6.223  2.3821  0.3369  2.4681
  152SAPE   C1216794   1.584   6.294   6.075  0.0273 -0.7328  0.0850
  152SAPE  H12A16795   1.492   6.301   6.013 -0.0400  0.8011  0.3296
  152SAPE  H12B16796   1.634   6.196   6.069  0.9027 -0.2713 -0.2435
  152SAPE   C1116797   1.681   6.407   6.044  0.2953 -0.1905 -0.1664
  152SAPE  H11A16798   1.637   6.509   6.049  0.2950 -0.2413  1.0667
  152SAPE  H11B16799   1.732   6.391   5.947 -0.0248  3.2336 -0.9766
  152SAPE     P16800   1.890   6.520   6.164  0.4925 -0.1598  0.0422
  152SAPE   O1316801   1.973   6.522   6.045 -0.3425  0.2268 -0.0949
  152SAPE   O1416802   1.812   6.642   6.194 -0.5590 -0.3284  0.4450
  152SAPE   O1216803   1.789   6.407   6.143 -0.0202  1.0741 -0.6236
  152SAPE   O1116804   1.980   6.479   6.290 -0.2499  0.5627 -0.3794
  152SAPE    C116805   1.999   6.342   6.331 -0.6557 -0.2341  0.5750
  152SAPE    HA16806   1.993   6.273   6.245 -1.5781  1.0599 -0.4299
  152SAPE    HB16807   2.103   6.339   6.371 -0.5767  2.4038  0.6653
  152SAPE    C216808   1.908   6.291   6.446 -0.3233  0.0696  0.0174
  152SAPE    HS16809   1.820   6.235   6.408 -0.2515  1.6716 -2.6218
  152SAPE   O2116810   1.872   6.399   6.543 -0.1977 -0.3253  0.2250
  152SAPE   C2116811   1.741   6.422   6.546  0.1398  0.6142  0.0734
  152SAPE   O2216812   1.655   6.376   6.472 -0.2150 -0.0030 -0.2905
  152SAPE   C2216813   1.709   6.520   6.658 -0.3700  0.0661  0.6716
  152SAPE   H2R16814   1.791   6.593   6.673  0.6413 -0.6981 -0.9289
  152SAPE   H2S16815   1.623   6.582   6.625  0.8238  1.4407  0.0460
  152SAPE    C316816   1.990   6.187   6.522  0.1349 -0.3435  0.0173
  152SAPE    HX16817   2.083   6.233   6.561 -0.0321  1.4771 -1.6509
  152SAPE    HY16818   2.023   6.107   6.454 -1.5581 -1.7623  0.8165
  152SAPE   O3116819   1.903   6.135   6.626 -0.2980  0.4616  0.0348
  152SAPE   C3116820   1.964   6.095   6.734  0.1413  0.7891  0.6624
  152SAPE   O3216821   2.086   6.079   6.756 -0.3545  0.4122  0.1352
  152SAPE   C3216822   1.860   6.045   6.835 -0.0696 -0.1200  0.4418
  152SAPE   H2X16823   1.892   5.943   6.864  0.8112 -0.2335 -0.9306
  152SAPE   H2Y16824   1.761   6.041   6.784  0.2321 -1.0338 -0.0757
  152SAPE   C2316825   1.679   6.450   6.790 -0.2717 -0.2447  0.3176
  152SAPE   H3R16826   1.764   6.386   6.821 -0.7959 -1.1735 -0.1292
  152SAPE   H3S16827   1.588   6.386   6.781 -0.8095  0.0358  3.2614
  152SAPE   C2416828   1.655   6.550   6.899 -0.3047  0.0998 -0.2654
  152SAPE   H4R16829   1.609   6.504   6.989  1.4006 -1.1494 -0.0115
  152SAPE   H4S16830   1.584   6.624   6.855  1.7495  1.5694 -1.1895
  152SAPE   C2516831   1.774   6.629   6.941 -0.1626 -1.0242 -0.4239
  152SAPE   H5R16832   1.818   6.686   6.859 -0.8827  1.5245  0.9254
  152SAPE   C2616833   1.823   6.651   7.062 -0.5926 -0.3038 -0.1256
  152SAPE   H6R16834   1.909   6.718   7.078 -0.3110  0.0618 -2.9833
  152SAPE   C2716835   1.770   6.590   7.194  0.5864 -0.6110 -1.3789
  152SAPE   H7R16836   1.709   6.499   7.174 -1.8466  0.9059 -1.1075
  152SAPE   H7S16837   1.695   6.652   7.248  0.6748  0.2766 -2.2692
  152SAPE   C2816838   1.891   6.562   7.280  0.0725 -0.0472 -0.4779
  152SAPE   H8R16839   1.958   6.488   7.234  0.8126  0.0318  0.4579
  152SAPE   C2916840   1.929   6.612   7.395 -0.1586 -0.3140  0.2456
  152SAPE   H9R16841   2.017   6.569   7.446 -0.3275  1.3074  1.9549
  152SAPE  C21016842   1.847   6.716   7.470  0.0454 -0.4745  0.1237
  152SAPE  H10R16843   1.774   6.672   7.541  0.3598  0.6693  1.1735
  152SAPE  H10S16844   1.781   6.772   7.400 -0.4819  0.2025  1.1649
  152SAPE  C21116845   1.945   6.810   7.540  0.1452 -0.0032 -0.7849
  152SAPE  H11R16846   1.995   6.880   7.472 -1.4245  3.0339  1.0413
  152SAPE  C21216847   1.985   6.819   7.677  0.0834 -0.3712  0.0320
  152SAPE  H12R16848   2.055   6.898   7.712 -3.1014  2.5267  0.1363
  152SAPE  C21316849   1.926   6.727   7.789 -0.5372 -0.0630 -0.3590
  152SAPE  H13R16850   1.840   6.665   7.756 -1.0582 -0.3712  1.5694
  152SAPE  H13S16851   1.887   6.799   7.864 -0.8366  0.2894 -0.8467
  152SAPE  C21416852   2.025   6.631   7.849 -0.2780 -0.2376  0.1647
  152SAPE  H14R16853   2.098   6.603   7.771 -1.4452 -1.2591 -0.5745
  152SAPE  C21516854   2.019   6.582   7.974  0.2711  0.0487  0.1226
  152SAPE  H15R16855   2.107   6.523   8.002  1.1174  1.5297  0.6249
  152SAPE  C21616856   1.916   6.609   8.083  0.7910  0.2390 -0.1958
  152SAPE  H16R16857   1.830   6.543   8.059 -0.1483  0.8018  1.5241
  152SAPE  H16S16858   1.880   6.714   8.073  1.1938  0.7714  3.2440
  152SAPE  C21716859   1.947   6.587   8.227  0.4920  0.3669  0.1639
  152SAPE  H17R16860   1.858   6.626   8.281  0.9075  0.5611  0.7297
  152SAPE  H17S16861   2.040   6.639   8.260 -0.2333  1.8081 -0.0404
  152SAPE  C21816862   1.957   6.437   8.263  0.5421 -0.6948 -0.3365
  152SAPE  H18R16863   2.039   6.387   8.206 -0.5147 -2.3984 -0.4004
  152SAPE  H18S16864   1.866   6.380   8.235  0.0584 -0.5216  0.8533
  152SAPE  C21916865   1.972   6.410   8.412 -0.4014 -0.0715 -0.6422
  152SAPE  H19R16866   1.884   6.430   8.477 -0.9920 -1.3672 -1.0359
  152SAPE  H19S16867   2.054   6.472   8.454 -0.7819 -0.1286  0.2048
  152SAPE  C22016868   2.031   6.269   8.438 -0.4846  0.0851  0.0048
  152SAPE  H20R16869   2.040   6.261   8.549  0.2531  2.0633  0.0954
  152SAPE  H20S16870   2.134   6.263   8.397 -0.3753 -0.1409  0.3115
  152SAPE  H20T16871   1.964   6.188   8.401 -1.5448  1.1825 -0.5092
  152SAPE   C3316872   1.863   6.127   6.972  0.4772  0.2128  0.1757
  152SAPE   H3X16873   1.832   6.233   6.956  1.4555  0.4522 -0.1370
  152SAPE   H3Y16874   1.961   6.139   7.022 -0.4803  0.9597  1.9781
  152SAPE   C3416875   1.763   6.083   7.081 -0.1159  0.1339 -0.5363
  152SAPE   H4X16876   1.783   5.990   7.138 -1.3171  0.8336  1.0732
  152SAPE   H4Y16877   1.663   6.074   7.034 -0.7920  1.3786  0.6228
  152SAPE   C3516878   1.768   6.185   7.200 -0.0523  0.2169  1.0656
  152SAPE   H5X16879   1.675   6.167   7.259 -1.2085  2.2269 -0.0631
  152SAPE   H5Y16880   1.758   6.292   7.170  0.0428 -0.3081 -0.9243
  152SAPE   C3616881   1.896   6.158   7.280 -0.0554  0.8273 -0.2692
  152SAPE   H6X16882   1.975   6.208   7.220  0.7561 -1.6218 -1.3149
  152SAPE   H6Y16883   1.923   6.050   7.276  0.2443  0.9011 -0.2397
  152SAPE   C3716884   1.903   6.203   7.423 -0.2276 -0.3483 -0.7517
  152SAPE   H7X16885   1.842   6.136   7.488  0.4527 -0.3684 -0.1278
  152SAPE   H7Y16886   1.850   6.301   7.421  3.0673  1.4975 -0.7257
  152SAPE   C3816887   2.049   6.216   7.480  0.6139  0.1490  0.1244
  152SAPE   H8X16888   2.102   6.309   7.450  2.4331 -0.2293  2.0537
  152SAPE   H8Y16889   2.100   6.120   7.454 -2.5051 -0.7475 -3.0479
  152SAPE   C3916890   2.039   6.219   7.637  0.3451  1.5080  0.1925
  152SAPE   H9X16891   1.991   6.126   7.671  0.6540  0.5985 -1.7518
  152SAPE   H9Y16892   1.997   6.320   7.656 -0.1958  0.9173  2.1351
  152SAPE  C31016893   2.177   6.211   7.699  0.0009  0.2464 -0.6815
  152SAPE  H10X16894   2.230   6.296   7.653 -0.1755  0.0619 -1.2245
  152SAPE  H10Y16895   2.221   6.114   7.667  2.2196  0.7663  0.6512
  152SAPE  C31116896   2.179   6.224   7.851  0.2668 -0.4505 -0.7064
  152SAPE  H11X16897   2.123   6.136   7.891  1.2103 -0.9656 -0.4904
  152SAPE  H11Y16898   2.136   6.320   7.884  1.0652 -0.5633  0.6995
  152SAPE  C31216899   2.323   6.226   7.889  0.6745 -0.3915  0.2697
  152SAPE  H12X16900   2.383   6.304   7.838 -2.7148  2.3082  0.3132
  152SAPE  H12Y16901   2.363   6.126   7.859 -2.5828 -1.6765  0.0736
  152SAPE  C31316902   2.343   6.226   8.040 -0.2830  0.4125  0.4700
  152SAPE  H13X16903   2.253   6.175   8.081 -1.0181  1.4974  0.2499
  152SAPE  H13Y16904   2.357   6.327   8.085  0.4093  0.9998 -1.0376
  152SAPE  C31416905   2.466   6.132   8.082  0.2839 -0.3929  0.2900
  152SAPE  H14X16906   2.539   6.188   8.020  0.7255 -0.2074  0.9734
  152SAPE  H14Y16907   2.447   6.031   8.041 -0.5232 -0.9642  2.0279
  152SAPE  C31516908   2.507   6.144   8.231  0.2439  0.3158  0.4929
  152SAPE  H15X16909   2.468   6.240   8.272  0.2190  0.3086  0.4852
  152SAPE  H15Y16910   2.617   6.159   8.236  0.2896 -0.2751  1.2196
  152SAPE  C31616911   2.460   6.028   8.310  0.7409  0.3211 -0.9380
  152SAPE  H16X16912   2.517   5.940   8.273  0.0217 -0.3611 -0.4392
  152SAPE  H16Y16913   2.351   6.020   8.292  0.4629  0.5388  0.5895
  152SAPE  C31716914   2.481   6.051   8.460  0.0892  0.6395  0.0218
  152SAPE  H17X16915   2.579   6.100   8.478  0.4365 -1.0338  2.8831
  152SAPE  H17Y16916   2.484   5.957   8.519 -0.3350  1.1311  0.8456
  152SAPE  C31816917   2.376   6.142   8.529  0.5651  0.2609 -0.3353
  152SAPE  H18X16918   2.370   6.237   8.472 -2.7068 -0.3857 -1.1514
  152SAPE  H18Y16919   2.411   6.176   8.629 -0.8381 -0.2564  0.3467
  152SAPE  H18Z16920   2.279   6.089   8.534  1.1319 -0.5951  2.2020
  153SAPE     N16921   5.025   0.336   6.101 -0.6198 -0.7156 -0.2704
  153SAPE   HN116922   5.101   0.400   6.070 -1.8283  0.0347 -1.7504
  153SAPE   HN216923   4.945   0.390   6.061 -0.3337 -0.5487 -0.6140
  153SAPE   HN316924   5.018   0.330   6.205  0.4040 -0.6179 -0.1964
  153SAPE   C1216925   5.043   0.201   6.036 -0.2701  0.4233 -0.1205
  153SAPE  H12A16926   5.064   0.213   5.927  1.8573 -1.1036  0.0853
  153SAPE  H12B16927   4.941   0.156   6.037 -0.7570  1.5211 -0.1369
  153SAPE   C1116928   5.135   0.105   6.108 -0.4410  0.2374 -0.4879
  153SAPE  H11A16929   5.242   0.122   6.083 -0.1505 -0.9592 -0.1188
  153SAPE  H11B16930   5.119   0.009   6.053 -1.6683 -0.9522  1.8788
  153SAPE     P16931   5.100  -0.055   6.314  0.0851 -0.2050  0.6406
  153SAPE   O1316932   4.969  -0.115   6.281  0.8641  0.1193  1.0604
  153SAPE   O1416933   5.211  -0.142   6.286  0.0427  0.2285  0.5599
  153SAPE   O1216934   5.116   0.086   6.248 -0.6363  0.4069  0.2349
  153SAPE   O1116935   5.103  -0.008   6.465  0.5303  0.2768 -0.6081
  153SAPE    C116936   4.984   0.040   6.532 -0.2542  0.3167 -0.6457
  153SAPE    HA16937   4.891  -0.015   6.507 -0.1492 -0.6262  0.9669
  153SAPE    HB16938   5.002   0.026   6.640  2.1338  0.8369 -0.9395
  153SAPE    C216939   4.943   0.185   6.501 -0.4396 -0.1288 -0.1503
  153SAPE    HS16940   4.917   0.201   6.395 -0.6288 -0.7168 -0.1953
  153SAPE   O2116941   5.045   0.272   6.550  0.4158 -0.4391  0.1316
  153SAPE   C2116942   5.087   0.369   6.460 -0.1278 -0.1157  0.4068
  153SAPE   O2216943   5.021   0.407   6.365  0.2683  0.0748  0.0905
  153SAPE   C2216944   5.210   0.443   6.520 -0.0486  0.2696  0.2152
  153SAPE   H2R16945   5.187   0.448   6.629 -0.9588  1.8037 -0.0352
  153SAPE   H2S16946   5.304   0.393   6.490  0.2746 -0.1097  1.8049
  153SAPE    C316947   4.799   0.218   6.554 -0.1916  0.9066 -0.9148
  153SAPE    HX16948   4.727   0.136   6.535  0.6016 -0.5502  2.0513
  153SAPE    HY16949   4.767   0.309   6.499 -1.8005  0.3358 -0.9476
  153SAPE   O3116950   4.792   0.235   6.697  0.0317 -0.6030 -0.7016
  153SAPE   C3116951   4.819   0.350   6.757  0.5217  0.0325  0.2420
  153SAPE   O3216952   4.859   0.451   6.706  0.9099  0.3564  0.4718
  153SAPE   C3216953   4.786   0.342   6.914 -0.3246 -1.1066 -0.1360
  153SAPE   H2X16954   4.786   0.234   6.940 -0.8548 -1.7222 -2.5607
  153SAPE   H2Y16955   4.684   0.383   6.922  0.3209  0.5794 -0.3184
  153SAPE   C2316956   5.208   0.591   6.466  0.7483  0.5030 -0.3307
  153SAPE   H3R16957   5.115   0.643   6.498  1.2287  0.7039  0.7462
  153SAPE   H3S16958   5.202   0.603   6.356 -2.0776  1.5743 -0.1105
  153SAPE   C2416959   5.327   0.673   6.518 -0.1990  0.5116 -0.6336
  153SAPE   H4R16960   5.304   0.685   6.626 -1.4539 -1.6440 -0.6422
  153SAPE   H4S16961   5.321   0.774   6.471 -0.0898  1.4513  1.3141
  153SAPE   C2516962   5.466   0.613   6.497 -0.5024  0.2260 -0.1104
  153SAPE   H5R16963   5.496   0.611   6.391 -2.8365  0.7234 -0.8265
  153SAPE   C2616964   5.538   0.566   6.597  0.1338 -0.0153 -0.4653
  153SAPE   H6R16965   5.635   0.521   6.569 -1.2785 -1.9378 -2.4144
  153SAPE   C2716966   5.505   0.560   6.741 -0.0014 -0.5343  0.1266
  153SAPE   H7R16967   5.555   0.471   6.785  2.0023  0.5864  0.1779
  153SAPE   H7S16968   5.401   0.527   6.761  0.0743 -1.2196 -0.5896
  153SAPE   C2816969   5.543   0.680   6.820  0.3079  0.0705 -0.4138
  153SAPE   H8R16970   5.492   0.773   6.789 -0.9644 -0.0437  1.2658
  153SAPE   C2916971   5.626   0.684   6.924  0.3849  0.1957 -0.3825
  153SAPE   H9R16972   5.646   0.775   6.984 -1.1688 -0.8305  1.7557
  153SAPE  C21016973   5.713   0.568   6.964 -0.0835 -0.5534  0.4074
  153SAPE  H10R16974   5.798   0.597   7.030  2.2627 -3.1621 -1.3663
  153SAPE  H10S16975   5.759   0.520   6.875  1.0095 -1.8326  1.6575
  153SAPE  C21116976   5.625   0.476   7.046  0.8139  0.4962  0.4724
  153SAPE  H11R16977   5.567   0.401   6.991 -1.5749  1.6527  1.3206
  153SAPE  C21216978   5.614   0.462   7.177  0.9956 -0.1434 -0.2809
  153SAPE  H12R16979   5.552   0.379   7.216  0.1729  0.7518  0.3397
  153SAPE  C21316980   5.691   0.537   7.288  0.4284 -0.1322  1.0125
  153SAPE  H13R16981   5.625   0.616   7.332  0.3103  0.5049 -0.2925
  153SAPE  H13S16982   5.779   0.591   7.248 -1.2509  3.9944  2.5630
  153SAPE  C21416983   5.750   0.438   7.383  0.2098  0.6070 -0.2114
  153SAPE  H14R16984   5.818   0.363   7.341 -1.9457 -0.0071 -2.7019
  153SAPE  C21516985   5.729   0.429   7.511  0.3895 -0.3388 -0.0032
  153SAPE  H15R16986   5.774   0.352   7.576 -0.0854 -0.0325  0.7031
  153SAPE  C21616987   5.633   0.518   7.588  0.1679  0.6499  0.3476
  153SAPE  H16R16988   5.528   0.480   7.586  0.0836  0.9236 -0.7684
  153SAPE  H16S16989   5.609   0.605   7.524 -1.5316  0.1394  0.2631
  153SAPE  C21716990   5.672   0.557   7.737 -0.0163  0.1966 -0.0523
  153SAPE  H17R16991   5.593   0.633   7.753 -0.7888 -0.4026 -0.9901
  153SAPE  H17S16992   5.779   0.587   7.737  0.1552 -0.4099 -0.0785
  153SAPE  C21816993   5.655   0.442   7.847 -0.1500 -0.0839  0.2726
  153SAPE  H18R16994   5.691   0.347   7.801  1.9353  0.5266  0.5957
  153SAPE  H18S16995   5.545   0.435   7.861 -0.3908  0.2594 -1.2724
  153SAPE  C21916996   5.705   0.467   7.995 -0.7395  0.2004  0.1292
  153SAPE  H19R16997   5.661   0.561   8.034 -0.1459  0.5354  0.0159
  153SAPE  H19S16998   5.816   0.476   7.993 -0.9274  2.8372 -1.0190
  153SAPE  C22016999   5.665   0.354   8.092  0.0694 -0.5796 -0.1901
  153SAPE  H20R17000   5.560   0.376   8.120  0.2209 -2.4731  1.9647
  153SAPE  H20S17001   5.727   0.358   8.184 -0.9167 -0.4690  0.4761
  153SAPE  H20T17002   5.671   0.257   8.038  0.4274 -0.6193 -0.0853
  153SAPE   C3317003   4.896   0.402   7.004  0.2860  0.2801 -0.4088
  153SAPE   H3X17004   4.865   0.509   7.008 -0.2214  0.1894 -1.7613
  153SAPE   H3Y17005   4.994   0.384   6.954  1.2135  0.9396  1.1078
  153SAPE   C3417006   4.907   0.343   7.144 -0.6578  0.2223 -0.4978
  153SAPE   H4X17007   5.008   0.366   7.185  0.0616 -1.2286 -1.4062
  153SAPE   H4Y17008   4.899   0.232   7.139  1.0340  0.0576 -0.0966
  153SAPE   C3517009   4.814   0.404   7.248 -0.3093  0.2283  0.0594
  153SAPE   H5X17010   4.710   0.383   7.215 -0.7173 -0.8781  2.0008
  153SAPE   H5Y17011   4.829   0.514   7.257 -0.5527  0.3063 -0.4592
  153SAPE   C3617012   4.821   0.351   7.393  0.3535  0.8038 -0.5125
  153SAPE   H6X17013   4.924   0.348   7.434  0.1191  0.2483  0.0435
  153SAPE   H6Y17014   4.779   0.249   7.403  3.0229 -0.1606  1.3096
  153SAPE   C3717015   4.733   0.434   7.496 -0.3083 -0.1189  0.0100
  153SAPE   H7X17016   4.630   0.421   7.456 -0.6187  1.3025  0.3103
  153SAPE   H7Y17017   4.760   0.541   7.509  1.1960 -0.5968  0.9813
  153SAPE   C3817018   4.727   0.375   7.644 -0.0790 -0.2097 -0.4789
  153SAPE   H8X17019   4.707   0.266   7.647  1.9119 -0.6114 -0.8211
  153SAPE   H8Y17020   4.629   0.413   7.677 -0.8098 -2.5156  0.1040
  153SAPE   C3917021   4.846   0.414   7.728  0.0404 -0.5818  0.6130
  153SAPE   H9X17022   4.879   0.516   7.699  0.3608 -0.4754  1.3538
  153SAPE   H9Y17023   4.934   0.347   7.712  1.7797  1.8304 -0.2334
  153SAPE  C31017024   4.810   0.412   7.877  0.3217  0.7197 -0.0735
  153SAPE  H10X17025   4.711   0.460   7.892 -1.3037 -1.9554 -1.8207
  153SAPE  H10Y17026   4.886   0.471   7.932 -2.1593  1.7654  2.3750
  153SAPE  C31117027   4.801   0.267   7.938 -0.4358  0.3010 -0.5404
  153SAPE  H11X17028   4.888   0.201   7.916 -0.2209  0.0601  0.9500
  153SAPE  H11Y17029   4.712   0.224   7.889 -2.0151  0.0525  2.4272
  153SAPE  C31217030   4.797   0.259   8.092 -0.4825  0.5528 -0.3961
  153SAPE  H12X17031   4.714   0.323   8.128 -0.5618 -1.2312  2.7740
  153SAPE  H12Y17032   4.886   0.302   8.142  0.2242 -0.3639 -0.8529
  153SAPE  C31317033   4.774   0.118   8.142 -0.4971 -0.6559  0.2383
  153SAPE  H13X17034   4.873   0.068   8.133  0.9347  1.7014  2.2164
  153SAPE  H13Y17035   4.705   0.067   8.072 -0.8189  0.7319 -0.4755
  153SAPE  C31417036   4.724   0.108   8.294 -0.2003 -0.4104 -0.2284
  153SAPE  H14X17037   4.614   0.105   8.283  0.0563 -1.9263 -2.7750
  153SAPE  H14Y17038   4.764   0.194   8.353 -0.3458 -1.8106  1.9360
  153SAPE  C31517039   4.769  -0.018   8.367 -0.4201 -0.1090  0.4445
  153SAPE  H15X17040   4.880  -0.022   8.358 -0.2673 -0.6348  2.4472
  153SAPE  H15Y17041   4.717  -0.099   8.311 -0.0334 -0.4312  0.5433
  153SAPE  C31617042   4.717  -0.036   8.509  0.0486  0.2480  0.6068
  153SAPE  H16X17043   4.612  -0.055   8.481  0.3593  1.9334 -1.9266
  153SAPE  H16Y17044   4.711   0.054   8.574 -1.6648  0.0125  0.7946
  153SAPE  C31717045   4.796  -0.133   8.591 -0.1998 -0.6345  0.6744
  153SAPE  H17X17046   4.813  -0.229   8.536 -2.1126  0.2866 -1.6175
  153SAPE  H17Y17047   4.745  -0.168   8.683  0.2908 -1.3143  0.6992
  153SAPE  C31817048   4.931  -0.077   8.632  0.4046  0.4283 -0.3271
  153SAPE  H18X17049   4.918   0.018   8.688  0.3527 -0.5040  1.2975
  153SAPE  H18Y17050   5.003  -0.059   8.550 -0.5431  2.7760 -0.6630
  153SAPE  H18Z17051   4.982  -0.150   8.699 -0.5490  1.5070  1.6323
  154SAPE     N17052   2.252   5.875   6.422 -0.0447  0.2125 -0.3836
  154SAPE   HN117053   2.180   5.848   6.492  2.4461  0.4210  2.3329
  154SAPE   HN217054   2.319   5.944   6.460  1.1798  0.1894 -2.3923
  154SAPE   HN317055   2.210   5.928   6.343 -2.3021 -1.9088 -0.6636
  154SAPE   C1217056   2.334   5.768   6.364 -0.6771  0.5516 -0.0968
  154SAPE  H12A17057   2.276   5.718   6.284 -0.6618 -1.9414  1.3819
  154SAPE  H12B17058   2.348   5.692   6.444 -2.3912  1.1997  0.8638
  154SAPE   C1117059   2.467   5.831   6.322 -0.9030  0.7999 -0.5253
  154SAPE  H11A17060   2.465   5.866   6.216 -1.2674 -0.1919 -0.8452
  154SAPE  H11B17061   2.545   5.752   6.325  0.1486  1.7421 -2.0196
  154SAPE     P17062   2.636   6.019   6.409  0.0642 -0.5036  0.4929
  154SAPE   O1317063   2.683   6.025   6.269 -0.1586  0.1579  0.5663
  154SAPE   O1417064   2.601   6.146   6.475  0.4759 -0.6734 -0.5018
  154SAPE   O1217065   2.510   5.928   6.419  0.1101  0.3422 -0.3828
  154SAPE   O1117066   2.747   5.946   6.499 -0.7206  0.3979 -0.0070
  154SAPE    C117067   2.730   5.908   6.639  0.2697  1.0352  0.5875
  154SAPE    HA17068   2.627   5.917   6.679  0.6737  0.1144  1.8939
  154SAPE    HB17069   2.749   5.798   6.647 -1.4926  0.5565 -1.3688
  154SAPE    C217070   2.822   5.983   6.739  0.4322  0.1331 -0.0362
  154SAPE    HS17071   2.764   6.046   6.810  1.1127  1.2133 -0.4330
  154SAPE   O2117072   2.921   6.057   6.670  0.3146 -0.3301 -0.4899
  154SAPE   C2117073   2.909   6.191   6.658  0.3006  0.6235 -0.0166
  154SAPE   O2217074   2.820   6.256   6.704  0.3092 -0.5723 -0.4481
  154SAPE   C2217075   3.008   6.231   6.554 -0.1045  0.2967  0.0215
  154SAPE   H2R17076   3.087   6.153   6.557 -0.2369  0.0791 -1.7827
  154SAPE   H2S17077   2.961   6.235   6.453  1.6812  1.7409 -0.7796
  154SAPE    C317078   2.902   5.893   6.827 -0.2502 -0.2878 -0.1193
  154SAPE    HX17079   2.949   5.957   6.905  1.2901 -0.7627 -0.6445
  154SAPE    HY17080   2.984   5.850   6.766 -0.7231  0.2021 -1.1142
  154SAPE   O3117081   2.830   5.783   6.893  0.4981  1.0896 -0.1249
  154SAPE   C3117082   2.753   5.811   6.993 -0.4766  0.3036 -0.8150
  154SAPE   O3217083   2.723   5.923   7.033 -0.1694  0.3646  0.2085
  154SAPE   C3217084   2.701   5.679   7.045 -0.4273 -0.9737  0.5632
  154SAPE   H2X17085   2.772   5.599   7.017  1.3407  0.8798 -0.3916
  154SAPE   H2Y17086   2.607   5.666   6.988  0.0578  1.6386 -0.8989
  154SAPE   C2317087   3.073   6.370   6.577  0.6000 -0.3014 -0.4136
  154SAPE   H3R17088   3.002   6.448   6.613 -1.1426 -1.2096 -1.8362
  154SAPE   H3S17089   3.109   6.397   6.476 -0.4498  2.7363 -0.0103
  154SAPE   C2417090   3.188   6.363   6.686  0.3250  0.8585  0.0680
  154SAPE   H4R17091   3.247   6.269   6.683 -1.6006 -0.3893  0.3114
  154SAPE   H4S17092   3.125   6.366   6.777 -0.6177  0.4347 -0.5572
  154SAPE   C2517093   3.279   6.481   6.684  0.2464 -0.3561 -0.2863
  154SAPE   H5R17094   3.237   6.570   6.634  0.9133  1.3669  2.1281
  154SAPE   C2617095   3.409   6.491   6.716  0.4136  0.1555  0.6709
  154SAPE   H6R17096   3.456   6.590   6.712 -2.2882  1.5093  1.0287
  154SAPE   C2717097   3.497   6.381   6.767 -0.4069  0.0879  0.6336
  154SAPE   H7R17098   3.488   6.310   6.682  0.7535 -0.9412  1.3697
  154SAPE   H7S17099   3.456   6.321   6.851 -0.1309 -0.9602  0.0267
  154SAPE   C2817100   3.640   6.416   6.800 -0.0158 -0.0017  0.2271
  154SAPE   H8R17101   3.704   6.405   6.711 -0.4505 -1.5336  0.0841
  154SAPE   C2917102   3.684   6.450   6.923  0.4014  0.0603  0.0721
  154SAPE   H9R17103   3.785   6.489   6.938  0.7305 -0.5646 -0.4441
  154SAPE  C21017104   3.598   6.459   7.048 -0.0766 -0.0624 -0.7495
  154SAPE  H10R17105   3.595   6.356   7.090 -1.0636  0.2858  0.0759
  154SAPE  H10S17106   3.495   6.481   7.011 -0.0563 -0.8785 -1.3264
  154SAPE  C21117107   3.627   6.561   7.153 -0.1006  0.0067  0.6309
  154SAPE  H11R17108   3.578   6.659   7.139  0.6887  0.0858 -1.8712
  154SAPE  C21217109   3.678   6.539   7.278  0.2019 -0.1096  0.5930
  154SAPE  H12R17110   3.693   6.621   7.349  0.4051 -0.0423  0.4751
  154SAPE  C21317111   3.737   6.415   7.330 -0.2675  0.6808  0.5563
  154SAPE  H13R17112   3.774   6.342   7.255  0.1224  0.0448  1.3516
  154SAPE  H13S17113   3.655   6.361   7.382 -0.4963  1.1241  0.6467
  154SAPE  C21417114   3.853   6.427   7.428 -0.6914 -0.2725  0.5157
  154SAPE  H14R17115   3.954   6.419   7.385 -1.5623 -2.2051 -1.3102
  154SAPE  C21517116   3.838   6.438   7.559 -0.3334 -0.2566  0.1811
  154SAPE  H15R17117   3.930   6.448   7.619  0.1462 -2.8097 -0.0864
  154SAPE  C21617118   3.711   6.444   7.635  0.6825  0.3401 -0.7947
  154SAPE  H16R17119   3.710   6.363   7.711 -1.6246  0.0491 -1.0976
  154SAPE  H16S17120   3.620   6.431   7.573 -0.3480  0.3128  0.7118
  154SAPE  C21717121   3.691   6.582   7.705 -0.6310 -0.3778 -0.3816
  154SAPE  H17R17122   3.675   6.671   7.641 -2.5886 -1.5054 -1.5382
  154SAPE  H17S17123   3.785   6.609   7.756 -0.5057  1.0096 -1.3377
  154SAPE  C21817124   3.579   6.575   7.815  0.3101 -0.7661  0.0608
  154SAPE  H18R17125   3.607   6.494   7.886  0.3860  0.7769  1.8228
  154SAPE  H18S17126   3.481   6.553   7.768  0.2224 -0.8367  0.2767
  154SAPE  C21917127   3.572   6.706   7.903 -0.2563 -0.1748  0.4312
  154SAPE  H19R17128   3.510   6.777   7.844  2.2341  4.1136  2.7381
  154SAPE  H19S17129   3.673   6.749   7.918 -0.2586 -0.3800  1.0384
  154SAPE  C22017130   3.496   6.677   8.033  0.4721 -0.0646 -0.0233
  154SAPE  H20R17131   3.464   6.773   8.078  2.9729  0.7265  0.1233
  154SAPE  H20S17132   3.571   6.634   8.102  1.1169 -2.0478 -1.9102
  154SAPE  H20T17133   3.415   6.604   8.009  0.8935 -1.3480  2.3175
  154SAPE   C3317134   2.668   5.687   7.194  0.0429 -0.1519  0.5108
  154SAPE   H3X17135   2.582   5.755   7.212 -0.7295 -0.5852 -1.4446
  154SAPE   H3Y17136   2.750   5.741   7.246  1.4467 -0.8456 -0.9601
  154SAPE   C3417137   2.645   5.546   7.250  0.6449  0.2534  0.2689
  154SAPE   H4X17138   2.740   5.489   7.255 -0.1302 -1.1925 -1.3190
  154SAPE   H4Y17139   2.577   5.493   7.180  0.3468 -1.2729  1.6568
  154SAPE   C3517140   2.576   5.558   7.395 -0.3477 -0.4811 -0.0427
  154SAPE   H5X17141   2.484   5.614   7.369 -0.4566 -0.8432 -0.4306
  154SAPE   H5Y17142   2.640   5.620   7.462 -0.9612 -2.1688  2.1615
  154SAPE   C3617143   2.552   5.429   7.470  0.4830  0.4451  0.0165
  154SAPE   H6X17144   2.638   5.361   7.458  0.2438 -0.1110  1.3594
  154SAPE   H6Y17145   2.455   5.396   7.426  1.1978  0.2137 -1.4115
  154SAPE   C3717146   2.543   5.464   7.619  0.9856  0.1316 -0.0955
  154SAPE   H7X17147   2.460   5.536   7.638  0.1102 -0.4165 -1.7144
  154SAPE   H7Y17148   2.640   5.503   7.655 -0.3991  1.7657  1.9665
  154SAPE   C3817149   2.495   5.344   7.709 -0.3274 -0.0772  0.7192
  154SAPE   H8X17150   2.578   5.271   7.704  1.5552  2.1554 -2.4992
  154SAPE   H8Y17151   2.413   5.293   7.655  0.9531 -1.1598 -0.2312
  154SAPE   C3917152   2.461   5.375   7.853  0.0280 -0.1463 -0.1176
  154SAPE   H9X17153   2.366   5.433   7.861 -0.0493 -0.3276  0.2930
  154SAPE   H9Y17154   2.543   5.431   7.901  0.2274 -0.0985 -0.5156
  154SAPE  C31017155   2.424   5.248   7.933 -0.2490  0.2253 -0.2387
  154SAPE  H10X17156   2.515   5.184   7.932  0.5438  1.3325 -0.1348
  154SAPE  H10Y17157   2.339   5.192   7.888 -2.5008  3.0474  0.3358
  154SAPE  C31117158   2.391   5.265   8.078 -0.3013  0.5030 -0.3088
  154SAPE  H11X17159   2.290   5.308   8.094 -1.0275 -1.3494  0.2296
  154SAPE  H11Y17160   2.463   5.334   8.127  0.0072  0.8449 -1.2397
  154SAPE  C31217161   2.385   5.134   8.171 -0.1494  0.3182 -0.5662
  154SAPE  H12X17162   2.472   5.070   8.149 -0.2167  0.3342 -0.8799
  154SAPE  H12Y17163   2.289   5.080   8.154  0.1431 -0.0356 -1.0801
  154SAPE  C31317164   2.407   5.168   8.320 -0.0041 -0.1503  0.8606
  154SAPE  H13X17165   2.316   5.229   8.340 -1.4090 -1.6200 -0.8717
  154SAPE  H13Y17166   2.502   5.224   8.330 -0.5686  1.0864 -0.5062
  154SAPE  C31417167   2.410   5.045   8.402 -0.5386  0.2176  0.0407
  154SAPE  H14X17168   2.502   4.987   8.382 -0.4421  0.3647  0.0522
  154SAPE  H14Y17169   2.321   4.983   8.377 -0.5211 -0.5352  1.7897
  154SAPE  C31517170   2.386   5.076   8.550 -0.2591 -0.2259  0.3830
  154SAPE  H15X17171   2.293   5.135   8.539  0.9265  1.8045  1.0386
  154SAPE  H15Y17172   2.464   5.140   8.596  0.2569 -0.1961 -0.5115
  154SAPE  C31617173   2.368   4.946   8.627 -0.0116  0.4378  0.0762
  154SAPE  H16X17174   2.471   4.909   8.649 -0.5679 -2.5631 -2.0848
  154SAPE  H16Y17175   2.318   4.875   8.559  2.3841  0.6411 -1.9535
  154SAPE  C31717176   2.282   4.956   8.748  0.0604 -0.7239 -0.3904
  154SAPE  H17X17177   2.178   4.984   8.722  0.8884  0.6475 -2.3813
  154SAPE  H17Y17178   2.337   5.034   8.805  0.1791 -0.8133 -0.3813
  154SAPE  C31817179   2.264   4.830   8.821  0.3880  0.0890 -1.1174
  154SAPE  H18X17180   2.365   4.793   8.849 -0.1951 -0.0302  0.9269
  154SAPE  H18Y17181   2.207   4.757   8.760 -1.4120  1.9812 -1.7985
  154SAPE  H18Z17182   2.210   4.848   8.917  0.6759  0.1246 -0.9606
  155SAPE     N17183   3.640   1.009   6.417  0.7577  0.3904  0.0843
  155SAPE   HN117184   3.617   0.990   6.317 -3.8914 -3.0714  1.6356
  155SAPE   HN217185   3.665   1.110   6.428  0.1136  0.6449 -0.6964
  155SAPE   HN317186   3.720   0.950   6.448  0.1620 -0.9322 -0.8790
  155SAPE   C1217187   3.515   0.980   6.493 -0.2024 -0.2781  0.9167
  155SAPE  H12A17188   3.431   1.039   6.451  1.2851  0.4981 -1.0676
  155SAPE  H12B17189   3.528   1.024   6.594 -0.4969  0.2513  0.7288
  155SAPE   C1117190   3.496   0.826   6.510  0.1574 -1.2153 -0.1256
  155SAPE  H11A17191   3.388   0.820   6.537 -0.2496  1.5491 -0.9430
  155SAPE  H11B17192   3.563   0.797   6.594  1.8783 -0.3950 -1.1853
  155SAPE     P17193   3.434   0.628   6.344 -0.2593  0.0693 -0.0881
  155SAPE   O1317194   3.368   0.656   6.214  0.6578  0.1155  0.0526
  155SAPE   O1417195   3.518   0.504   6.349  0.4279 -0.5489 -0.0874
  155SAPE   O1217196   3.524   0.753   6.392 -0.7288  0.0935  0.6716
  155SAPE   O1117197   3.327   0.603   6.461 -0.7617 -0.3883 -0.1121
  155SAPE    C117198   3.372   0.550   6.590  0.1976 -0.1192  0.0730
  155SAPE    HA17199   3.370   0.440   6.580 -3.2968 -0.2061  1.1553
  155SAPE    HB17200   3.481   0.570   6.602  0.2448 -0.8171  0.8285
  155SAPE    C217201   3.290   0.575   6.718  0.4193  1.0523  0.0711
  155SAPE    HS17202   3.345   0.647   6.781 -1.0035 -0.7041  3.4469
  155SAPE   O2117203   3.260   0.452   6.797  0.3661 -0.5509 -0.1527
  155SAPE   C2117204   3.369   0.403   6.859  0.8712  0.4698 -0.2947
  155SAPE   O2217205   3.475   0.463   6.860 -0.6835  0.1401  0.0723
  155SAPE   C2217206   3.340   0.260   6.911  0.5404  0.0352 -0.1360
  155SAPE   H2R17207   3.232   0.246   6.937  1.0442  1.2472  2.9191
  155SAPE   H2S17208   3.380   0.188   6.837  1.9217  0.4734  0.1761
  155SAPE    C317209   3.157   0.639   6.667  0.8179 -0.3952 -0.3287
  155SAPE    HX17210   3.101   0.580   6.591 -0.0543  1.3467 -1.0840
  155SAPE    HY17211   3.190   0.735   6.622  0.7524  1.0143  2.5259
  155SAPE   O3117212   3.071   0.676   6.776  0.5020  0.2230 -0.3008
  155SAPE   C3117213   2.978   0.583   6.807  0.1946  0.2437 -0.3874
  155SAPE   O3217214   2.964   0.479   6.744  0.2485  0.4010  0.6722
  155SAPE   C3217215   2.906   0.619   6.936 -0.0194 -0.0248  0.1286
  155SAPE   H2X17216   2.814   0.675   6.910 -0.8097 -0.8461  1.1314
  155SAPE   H2Y17217   2.975   0.694   6.981 -2.0424  2.1107 -0.2328
  155SAPE   C2317218   3.417   0.237   7.049  1.1150  0.0357 -0.2839
  155SAPE   H3R17219   3.364   0.293   7.129 -1.2861  0.7416 -2.3171
  155SAPE   H3S17220   3.517   0.285   7.046  0.9812  0.3133 -0.3709
  155SAPE   C2417221   3.435   0.089   7.085 -0.2476 -0.0933  0.2158
  155SAPE   H4R17222   3.526   0.081   7.148  0.6858 -1.5566 -1.2925
  155SAPE   H4S17223   3.471   0.053   6.986  1.6419  0.0833  0.8165
  155SAPE   C2517224   3.321   0.017   7.148 -0.6331 -1.2277 -0.3230
  155SAPE   H5R17225   3.246  -0.024   7.079 -0.2721 -2.8629  0.2476
  155SAPE   C2617226   3.289  -0.001   7.279 -0.1972  0.0923  0.2167
  155SAPE   H6R17227   3.193  -0.047   7.307  0.2020 -0.7904  0.1374
  155SAPE   C2717228   3.375   0.054   7.398 -0.0980  0.5063 -0.2847
  155SAPE   H7R17229   3.325   0.145   7.438  2.0361  1.9564 -0.8663
  155SAPE   H7S17230   3.476   0.095   7.377  0.3768 -1.7616 -2.7252
  155SAPE   C2817231   3.371  -0.044   7.512 -0.1207  0.1393 -1.1340
  155SAPE   H8R17232   3.452  -0.116   7.522  0.2713  0.9651  2.1355
  155SAPE   C2917233   3.270  -0.053   7.603  0.2720 -0.0728  0.0334
  155SAPE   H9R17234   3.280  -0.116   7.693 -0.6302 -2.5106 -1.5204
  155SAPE  C21017235   3.141   0.021   7.600 -0.1603  0.5386 -0.0840
  155SAPE  H10R17236   3.060  -0.054   7.612  1.3602 -1.1285  0.0845
  155SAPE  H10S17237   3.124   0.061   7.498 -0.6640 -0.0193 -0.2184
  155SAPE  C21117238   3.121   0.131   7.701  0.1270 -0.2218 -0.8474
  155SAPE  H11R17239   3.139   0.233   7.664 -1.7004 -0.0421 -1.2705
  155SAPE  C21217240   3.073   0.120   7.825 -0.0016  0.8084 -0.6614
  155SAPE  H12R17241   3.092   0.209   7.886  0.9356  1.1741 -1.4748
  155SAPE  C21317242   3.016  -0.002   7.889  0.3324  0.0412  0.2996
  155SAPE  H13R17243   2.984  -0.081   7.817  0.6015  0.9373 -0.8231
  155SAPE  H13S17244   2.928   0.036   7.945  0.2874  1.6706 -0.8615
  155SAPE  C21417245   3.115  -0.063   7.978  0.3897 -0.9257 -0.6012
  155SAPE  H14R17246   3.215  -0.074   7.933  1.4803  2.3005  0.9009
  155SAPE  C21517247   3.103  -0.097   8.109 -0.3399  0.7303 -0.6540
  155SAPE  H15R17248   3.187  -0.149   8.157  0.7791  0.4197 -2.9057
  155SAPE  C21617249   2.977  -0.077   8.189 -0.3394 -0.4631 -0.7614
  155SAPE  H16R17250   2.887  -0.067   8.124  0.0243  2.9853 -0.8295
  155SAPE  H16S17251   2.976   0.021   8.241 -1.9629 -0.7662 -0.1758
  155SAPE  C21717252   2.932  -0.186   8.288 -0.3416 -0.5957 -0.5289
  155SAPE  H17R17253   2.934  -0.285   8.238 -0.6660 -0.9887  0.2263
  155SAPE  H17S17254   2.832  -0.156   8.327 -0.6995 -0.8865 -1.2262
  155SAPE  C21817255   3.020  -0.200   8.419  0.2424 -0.0387  0.6591
  155SAPE  H18R17256   3.025  -0.102   8.470  1.6176  0.8594 -1.1554
  155SAPE  H18S17257   3.118  -0.234   8.379  0.8446  3.4284 -0.9573
  155SAPE  C21917258   2.961  -0.309   8.507  0.5091 -0.4862 -0.2639
  155SAPE  H19R17259   2.945  -0.404   8.452 -0.1821  0.3515 -1.5405
  155SAPE  H19S17260   2.868  -0.260   8.543  0.9767  0.3075 -0.1428
  155SAPE  C22017261   3.038  -0.345   8.635  0.2662  0.4753  0.2507
  155SAPE  H20R17262   3.030  -0.267   8.714  0.5312  2.9968 -2.1467
  155SAPE  H20S17263   3.144  -0.364   8.611 -0.8603 -3.0428 -2.4690
  155SAPE  H20T17264   2.994  -0.434   8.686  1.1765  2.0531  3.9718
  155SAPE   C3317265   2.904   0.507   7.041 -0.0150  0.3259  0.0159
  155SAPE   H3X17266   3.011   0.483   7.059  0.4769  1.5731 -1.1840
  155SAPE   H3Y17267   2.853   0.420   6.995  0.6275  0.2894 -0.6397
  155SAPE   C3417268   2.841   0.541   7.176 -0.5806 -0.1671 -0.5253
  155SAPE   H4X17269   2.733   0.555   7.152 -0.6851  0.5665  0.3344
  155SAPE   H4Y17270   2.872   0.634   7.228  0.3758 -0.5720 -0.3744
  155SAPE   C3517271   2.837   0.423   7.278  0.5347 -0.0276 -0.2676
  155SAPE   H5X17272   2.941   0.391   7.297  0.5754  0.6402  0.7239
  155SAPE   H5Y17273   2.780   0.346   7.222  1.8765 -0.8442 -0.5303
  155SAPE   C3617274   2.799   0.475   7.418 -0.3712  0.1414 -0.5380
  155SAPE   H6X17275   2.698   0.522   7.421 -1.1524 -1.5071 -0.3641
  155SAPE   H6Y17276   2.876   0.547   7.452 -0.1978 -0.5468  0.5383
  155SAPE   C3717277   2.802   0.367   7.524 -0.0642 -0.0326  0.1027
  155SAPE   H7X17278   2.906   0.334   7.546 -1.2405 -2.5585  2.2172
  155SAPE   H7Y17279   2.754   0.272   7.492 -1.3179  0.9259 -0.9201
  155SAPE   C3817280   2.740   0.424   7.655  0.2216 -0.6241  0.7787
  155SAPE   H8X17281   2.635   0.444   7.626  0.6362  2.3236  1.2176
  155SAPE   H8Y17282   2.784   0.524   7.671  2.0883 -0.9449 -2.0366
  155SAPE   C3917283   2.749   0.325   7.762  0.5465  0.1913 -0.3428
  155SAPE   H9X17284   2.851   0.296   7.794  0.4234  0.2267  0.0772
  155SAPE   H9Y17285   2.693   0.232   7.740 -0.1566  0.2734  1.0632
  155SAPE  C31017286   2.687   0.378   7.897 -0.2945  0.3455 -0.5862
  155SAPE  H10X17287   2.591   0.418   7.856 -0.4835 -0.5819 -1.0406
  155SAPE  H10Y17288   2.750   0.462   7.934  0.7553 -1.0814  0.9362
  155SAPE  C31117289   2.670   0.282   8.019  0.2860  0.2519 -0.2703
  155SAPE  H11X17290   2.774   0.251   8.044 -0.4124 -1.4032  0.6751
  155SAPE  H11Y17291   2.607   0.193   7.999 -0.7673  0.5991  1.4754
  155SAPE  C31217292   2.599   0.347   8.139  0.4079 -0.0196 -0.4372
  155SAPE  H12X17293   2.490   0.343   8.117 -0.0930  1.0138  1.7482
  155SAPE  H12Y17294   2.631   0.452   8.156  0.4068 -0.1949  0.6371
  155SAPE  C31317295   2.635   0.268   8.269 -0.0437  0.7409  0.3446
  155SAPE  H13X17296   2.744   0.247   8.264 -0.2220 -0.1644  0.1119
  155SAPE  H13Y17297   2.576   0.174   8.271 -0.4923  0.8926 -2.7809
  155SAPE  C31417298   2.606   0.350   8.394 -0.5821 -0.2166 -0.5100
  155SAPE  H14X17299   2.668   0.442   8.388  0.8132 -1.0750  0.2578
  155SAPE  H14Y17300   2.649   0.288   8.476 -0.4529 -0.7172 -0.9530
  155SAPE  C31517301   2.460   0.386   8.410  0.2153  0.4168 -0.0944
  155SAPE  H15X17302   2.393   0.297   8.405  2.0026 -1.0259  1.0536
  155SAPE  H15Y17303   2.429   0.458   8.332  0.5670 -0.8603 -1.4373
  155SAPE  C31617304   2.439   0.463   8.549  0.6145  0.5382 -0.4342
  155SAPE  H16X17305   2.500   0.555   8.559 -1.3786  1.8585 -0.1233
  155SAPE  H16Y17306   2.482   0.400   8.630 -0.4054  0.7786  0.3031
  155SAPE  C31717307   2.295   0.504   8.569 -0.0718  1.1478 -0.0955
  155SAPE  H17X17308   2.228   0.424   8.530  3.1739 -0.9335 -1.6470
  155SAPE  H17Y17309   2.275   0.594   8.507 -0.7139 -0.7635 -2.7881
  155SAPE  C31817310   2.260   0.550   8.717 -0.2725 -0.4751  0.3452
  155SAPE  H18X17311   2.317   0.640   8.747 -1.0540  0.1042  0.0894
  155SAPE  H18Y17312   2.289   0.479   8.798  0.9651  0.0275  0.3472
  155SAPE  H18Z17313   2.150   0.565   8.715 -0.2637 -0.4818 -0.3943
  156SAPE     N17314   1.452   1.712   6.503  0.0941  0.6392  0.9443
  156SAPE   HN117315   1.462   1.644   6.425 -2.1608  0.1713  1.0300
  156SAPE   HN217316   1.499   1.803   6.481  0.7177  0.0448 -0.2126
  156SAPE   HN317317   1.512   1.689   6.585  1.7467  1.3176 -0.0434
  156SAPE   C1217318   1.309   1.730   6.535  1.1824  0.3631  0.2597
  156SAPE  H12A17319   1.250   1.779   6.454  0.3419 -0.8335  0.1277
  156SAPE  H12B17320   1.311   1.783   6.633  0.8810  1.6573 -0.4148
  156SAPE   C1117321   1.265   1.577   6.550 -0.0380 -0.1289 -0.1610
  156SAPE  H11A17322   1.154   1.587   6.559 -0.2675 -0.5872 -2.4080
  156SAPE  H11B17323   1.312   1.527   6.637  1.8082 -1.7700 -2.0646
  156SAPE     P17324   1.239   1.352   6.432 -0.2090  0.1196 -0.0719
  156SAPE   O1317325   1.095   1.359   6.431 -0.0806  0.3744  1.1203
  156SAPE   O1417326   1.304   1.270   6.327 -0.4749  0.3841 -0.3135
  156SAPE   O1217327   1.297   1.500   6.432 -0.8108  0.0082  0.4303
  156SAPE   O1117328   1.274   1.297   6.574 -0.0328 -0.3695  0.4696
  156SAPE    C117329   1.374   1.196   6.602 -0.5699  0.3459  0.5473
  156SAPE    HA17330   1.390   1.117   6.525 -0.1348  0.2573  0.7294
  156SAPE    HB17331   1.476   1.239   6.612  0.6859 -1.8528 -2.1459
  156SAPE    C217332   1.337   1.137   6.742 -0.1662 -0.4259 -0.2913
  156SAPE    HS17333   1.252   1.066   6.727 -1.7224  0.9577  1.7879
  156SAPE   O2117334   1.298   1.235   6.834  0.3886 -0.0984 -0.7658
  156SAPE   C2117335   1.172   1.263   6.841 -0.4539  0.5350  0.5918
  156SAPE   O2217336   1.085   1.216   6.771  0.0449  0.0448 -0.4497
  156SAPE   C2217337   1.149   1.366   6.948 -0.2791 -0.0019 -0.2873
  156SAPE   H2R17338   1.235   1.393   7.013 -0.7840 -0.6592  0.6674
  156SAPE   H2S17339   1.127   1.457   6.889  1.4586 -0.0198 -0.9766
  156SAPE    C317340   1.452   1.054   6.813  0.4740  0.1839  0.1262
  156SAPE    HX17341   1.541   1.120   6.801 -0.2726  2.0456  4.1289
  156SAPE    HY17342   1.468   0.961   6.754 -1.5913 -0.5676  0.7152
  156SAPE   O3117343   1.435   1.027   6.955 -0.2711  0.0514 -0.3196
  156SAPE   C3117344   1.339   0.940   6.978  0.5813  0.0949  0.3547
  156SAPE   O3217345   1.283   0.871   6.890 -0.3559  0.0388 -0.6054
  156SAPE   C3217346   1.313   0.929   7.127 -0.4859  0.3544 -0.4906
  156SAPE   H2X17347   1.214   0.879   7.142  0.2403 -0.9088  0.1971
  156SAPE   H2Y17348   1.310   1.029   7.175  2.1815  0.3989 -0.3900
  156SAPE   C2317349   1.031   1.324   7.040 -0.5461 -0.3162  0.4684
  156SAPE   H3R17350   0.940   1.326   6.977  1.6992 -0.7978 -2.9417
  156SAPE   H3S17351   1.025   1.406   7.115  1.6622 -1.1976  1.6691
  156SAPE   C2417352   1.068   1.197   7.122 -0.2930  0.2615  0.4650
  156SAPE   H4R17353   1.166   1.224   7.166 -0.6604  1.9280  0.2891
  156SAPE   H4S17354   1.092   1.113   7.053  0.1071  2.7672 -2.5158
  156SAPE   C2517355   0.954   1.153   7.206 -0.2196 -0.1026  0.3977
  156SAPE   H5R17356   0.853   1.165   7.164 -0.1355 -1.7454 -0.3136
  156SAPE   C2617357   0.972   1.119   7.333  0.3952  0.2641 -0.2187
  156SAPE   H6R17358   0.888   1.109   7.404  1.3477 -0.7075  0.7795
  156SAPE   C2717359   1.110   1.118   7.398 -0.1617  0.2770 -0.0855
  156SAPE   H7R17360   1.140   1.222   7.425  0.0992  0.3851 -0.8007
  156SAPE   H7S17361   1.195   1.082   7.337 -0.6258 -0.2260 -0.4356
  156SAPE   C2817362   1.106   1.028   7.520  0.1706  0.3573 -0.8480
  156SAPE   H8R17363   1.140   0.923   7.512  1.0072  0.6168 -0.6796
  156SAPE   C2917364   1.052   1.068   7.639  0.0536  0.1639  0.7135
  156SAPE   H9R17365   1.048   1.007   7.730  2.7054 -3.4350 -1.4342
  156SAPE  C21017366   1.001   1.204   7.673 -0.5372 -0.0878  0.2278
  156SAPE  H10R17367   1.036   1.279   7.599 -0.6057 -1.2065 -0.9432
  156SAPE  H10S17368   1.069   1.241   7.754  1.4876 -2.2966 -0.3939
  156SAPE  C21117369   0.851   1.198   7.697  0.2739 -0.1778 -0.4411
  156SAPE  H11R17370   0.796   1.158   7.610  0.8252 -0.5744 -0.6118
  156SAPE  C21217371   0.783   1.232   7.810  0.0930  0.6973 -0.7833
  156SAPE  H12R17372   0.681   1.191   7.808  0.6916 -0.8451 -0.2558
  156SAPE  C21317373   0.850   1.274   7.937 -0.1288 -0.2047  0.3088
  156SAPE  H13R17374   0.888   1.378   7.926  1.0673 -0.5714  0.8360
  156SAPE  H13S17375   0.943   1.214   7.952  0.2343  0.5252  1.0089
  156SAPE  C21417376   0.756   1.261   8.063  0.0870  0.3501 -0.4604
  156SAPE  H14R17377   0.650   1.258   8.033 -0.3311  0.2242  1.0141
  156SAPE  C21517378   0.775   1.230   8.192 -0.1727 -0.4799  0.4014
  156SAPE  H15R17379   0.682   1.238   8.249 -1.8133 -2.6030 -1.8210
  156SAPE  C21617380   0.910   1.208   8.258  0.0362  0.0852  0.4506
  156SAPE  H16R17381   0.928   1.282   8.339 -1.8101 -1.0857  1.9918
  156SAPE  H16S17382   0.997   1.228   8.192  1.0667 -1.0438  1.4293
  156SAPE  C21717383   0.912   1.066   8.314 -0.0905  0.1574 -0.1321
  156SAPE  H17R17384   0.837   1.046   8.393  1.1861 -1.8462  0.6133
  156SAPE  H17S17385   1.006   1.045   8.370 -0.8877  0.3455  1.2949
  156SAPE  C21817386   0.917   0.955   8.208 -0.1821 -0.3288 -0.0952
  156SAPE  H18R17387   0.996   0.982   8.134 -0.6265 -0.1578 -0.5053
  156SAPE  H18S17388   0.827   0.959   8.144 -0.2169  2.1646  0.0483
  156SAPE  C21917389   0.946   0.818   8.249  0.3115  0.1918 -0.5693
  156SAPE  H19R17390   1.052   0.803   8.280  0.2552  0.3558 -0.2903
  156SAPE  H19S17391   0.952   0.748   8.163  0.9218  1.1722 -1.3248
  156SAPE  C22017392   0.862   0.764   8.364 -0.1166 -0.7606  0.1948
  156SAPE  H20R17393   0.888   0.824   8.454  1.7743 -3.4792  1.5385
  156SAPE  H20S17394   0.890   0.661   8.395  1.2366 -0.5217 -0.1822
  156SAPE  H20T17395   0.753   0.767   8.346  0.0619 -1.9297 -1.1522
  156SAPE   C3317396   1.432   0.857   7.191 -0.5496 -0.0784  0.5622
  156SAPE   H3X17397   1.526   0.915   7.199 -0.2369 -0.6285  0.9080
  156SAPE   H3Y17398   1.471   0.771   7.132 -0.4904  0.0114  0.4724
  156SAPE   C3417399   1.393   0.819   7.334  0.1085  0.1406 -0.4327
  156SAPE   H4X17400   1.314   0.742   7.323  0.9347 -0.8379  0.3621
  156SAPE   H4Y17401   1.346   0.910   7.379 -0.6106 -2.0855  3.6309
  156SAPE   C3517402   1.505   0.782   7.431 -0.2049  0.2000  0.1028
  156SAPE   H5X17403   1.589   0.855   7.440 -1.2699  1.4710 -0.0427
  156SAPE   H5Y17404   1.550   0.692   7.385  0.9405  0.6823  0.2628
  156SAPE   C3617405   1.448   0.767   7.569  0.5994  0.8207  0.8161
  156SAPE   H6X17406   1.527   0.716   7.629  3.3052  2.0818 -1.5836
  156SAPE   H6Y17407   1.359   0.701   7.558  1.9846 -0.8021 -1.0082
  156SAPE   C3717408   1.413   0.884   7.663  0.5914 -0.4860 -0.5220
  156SAPE   H7X17409   1.356   0.968   7.617  1.0209  1.6271  2.6773
  156SAPE   H7Y17410   1.513   0.928   7.683  0.1027  1.6830 -2.5109
  156SAPE   C3817411   1.348   0.850   7.798 -1.3161 -0.1491 -0.4388
  156SAPE   H8X17412   1.392   0.754   7.835 -0.1197  0.5251 -0.0758
  156SAPE   H8Y17413   1.238   0.842   7.783 -1.1588 -1.7286 -0.8975
  156SAPE   C3917414   1.400   0.935   7.909  0.0533  0.1341 -0.6014
  156SAPE   H9X17415   1.377   1.039   7.879 -1.1066 -0.3920 -1.5955
  156SAPE   H9Y17416   1.507   0.908   7.922  0.0520  0.4101 -0.0237
  156SAPE  C31017417   1.318   0.903   8.036 -0.1723 -0.5640 -0.3025
  156SAPE  H10X17418   1.301   0.794   8.049  1.9538 -1.0605 -1.3950
  156SAPE  H10Y17419   1.220   0.953   8.020  1.1028  2.4276  0.9967
  156SAPE  C31117420   1.384   0.954   8.175 -0.3132  0.4060  0.9078
  156SAPE  H11X17421   1.371   1.064   8.176 -0.4091  0.5141 -3.5318
  156SAPE  H11Y17422   1.488   0.916   8.175 -0.8512 -1.1056  0.4706
  156SAPE  C31217423   1.318   0.879   8.287 -0.1188 -0.2640 -0.9875
  156SAPE  H12X17424   1.332   0.769   8.280  0.6671 -0.3127  1.0794
  156SAPE  H12Y17425   1.212   0.912   8.293 -0.3106 -0.5367 -2.6181
  156SAPE  C31317426   1.367   0.938   8.430 -0.4338 -0.3519  0.3864
  156SAPE  H13X17427   1.354   1.048   8.428  2.3225  0.0191  1.3889
  156SAPE  H13Y17428   1.475   0.914   8.436 -0.3865  0.2253  2.0349
  156SAPE  C31417429   1.298   0.864   8.546 -0.3822 -0.2227 -0.2460
  156SAPE  H14X17430   1.342   0.764   8.569 -0.9229 -0.2612  0.6545
  156SAPE  H14Y17431   1.197   0.831   8.513 -0.1848 -0.6125 -0.4644
  156SAPE  C31517432   1.291   0.937   8.678 -0.0462  0.0330  0.4471
  156SAPE  H15X17433   1.251   1.039   8.661  0.7069  0.3450  0.4985
  156SAPE  H15Y17434   1.393   0.948   8.723  0.9737 -0.4023 -1.6968
  156SAPE  C31617435   1.199   0.860   8.778  0.2341  0.1305  0.3111
  156SAPE  H16X17436   1.245   0.759   8.780  0.8581  0.4175  0.7262
  156SAPE  H16Y17437   1.095   0.863   8.740  0.3449  1.2830  0.0675
  156SAPE  C31717438   1.196   0.904   8.923  0.1200  0.0314 -0.3692
  156SAPE  H17X17439   1.182   1.014   8.923 -2.8014 -0.2911 -1.6424
  156SAPE  H17Y17440   1.295   0.886   8.969 -0.1908  0.6583  0.5493
  156SAPE  C31817441   1.098   0.836   9.016  0.1384  0.5390  0.2827
  156SAPE  H18X17442   1.112   0.726   9.024  1.7924  0.7894  0.9581
  156SAPE  H18Y17443   0.994   0.851   8.978 -0.7283 -2.4846  1.2967
  156SAPE  H18Z17444   1.105   0.883   9.116 -0.7797  1.5088 -0.0951
  157SAPE     N17445   5.879   3.381   6.176 -0.3554 -0.2472 -0.3822
  157SAPE   HN117446   5.970   3.349   6.212  0.6569  2.3029 -0.5967
  157SAPE   HN217447   5.890   3.415   6.078 -0.3912 -1.2190 -0.7290
  157SAPE   HN317448   5.852   3.464   6.232 -0.9880 -0.3864 -0.4721
  157SAPE   C1217449   5.777   3.269   6.182 -0.4730 -0.5255 -0.2897
  157SAPE  H12A17450   5.676   3.301   6.212 -1.0236 -1.6543 -0.8811
  157SAPE  H12B17451   5.815   3.208   6.267 -0.1199  2.6522  1.9209
  157SAPE   C1117452   5.769   3.181   6.044 -0.1662 -0.3715  0.5162
  157SAPE  H11A17453   5.779   3.236   5.949  0.5516 -0.8466  0.3150
  157SAPE  H11B17454   5.669   3.134   6.051 -0.7354  0.8470  0.7873
  157SAPE     P17455   5.867   2.948   6.112 -0.0625 -0.2316  0.5330
  157SAPE   O1317456   5.742   2.885   6.065 -0.5885 -0.6001 -0.6404
  157SAPE   O1417457   5.997   2.877   6.100  0.0502 -0.0862 -0.1168
  157SAPE   O1217458   5.879   3.087   6.050 -0.0192  0.7653  0.0872
  157SAPE   O1117459   5.849   2.971   6.265 -0.2141 -0.4248 -0.2803
  157SAPE    C117460   5.968   3.004   6.350  0.4291  0.6633  0.2635
  157SAPE    HA17461   6.048   3.058   6.294  1.2340  0.3189  1.0838
  157SAPE    HB17462   5.929   3.068   6.432 -2.9343  1.2171 -1.6670
  157SAPE    C217463   6.024   2.877   6.413  0.1532 -0.0540  0.1241
  157SAPE    HS17464   6.067   2.822   6.327 -0.4917 -3.7114  2.0594
  157SAPE   O2117465   5.915   2.824   6.487 -0.1585 -0.4102  0.1472
  157SAPE   C2117466   5.871   2.709   6.438  0.8568  0.1344 -0.1141
  157SAPE   O2217467   5.925   2.640   6.353 -0.2506  0.3261 -0.0858
  157SAPE   C2217468   5.737   2.680   6.513 -0.4152  0.0034 -0.1543
  157SAPE   H2R17469   5.715   2.767   6.578  1.1428 -0.4202  0.9838
  157SAPE   H2S17470   5.655   2.676   6.438 -0.8979 -1.3303  0.4292
  157SAPE    C317471   6.148   2.908   6.507 -0.3957  0.2892  0.3229
  157SAPE    HX17472   6.112   2.983   6.581  0.1099  0.1792  0.6835
  157SAPE    HY17473   6.224   2.961   6.447 -1.7269  0.4880 -1.2131
  157SAPE   O3117474   6.204   2.792   6.571 -0.2029 -0.3620 -0.4635
  157SAPE   C3117475   6.263   2.697   6.500 -0.2277 -0.7455  0.0371
  157SAPE   O3217476   6.275   2.694   6.379 -0.0330 -0.1550  0.5067
  157SAPE   C3217477   6.320   2.586   6.588 -0.3888 -0.6521 -0.0641
  157SAPE   H2X17478   6.430   2.595   6.575 -0.6128 -0.3343 -1.9516
  157SAPE   H2Y17479   6.294   2.483   6.555  1.0142 -1.3240  0.8899
  157SAPE   C2317480   5.743   2.552   6.602  0.4624  0.5685  0.2304
  157SAPE   H3R17481   5.824   2.573   6.675 -0.6537  1.4436  1.2389
  157SAPE   H3S17482   5.773   2.464   6.541 -0.5752  1.0105 -0.9327
  157SAPE   C2417483   5.613   2.520   6.675  0.4186  1.4214 -0.4799
  157SAPE   H4R17484   5.634   2.423   6.726  0.0248  0.8450 -1.4008
  157SAPE   H4S17485   5.547   2.495   6.589  1.1773 -0.1504 -0.6200
  157SAPE   C2517486   5.545   2.622   6.761 -0.0287 -0.2774  0.0527
  157SAPE   H5R17487   5.481   2.702   6.721  2.1944  1.4935 -0.0498
  157SAPE   C2617488   5.566   2.626   6.891  0.8188  0.2335  0.0797
  157SAPE   H6R17489   5.508   2.694   6.955  2.2129  0.8727  0.6845
  157SAPE   C2717490   5.667   2.532   6.958  0.0202 -0.0840  0.1605
  157SAPE   H7R17491   5.765   2.528   6.905  0.0023 -1.1057  0.1976
  157SAPE   H7S17492   5.639   2.426   6.968  0.7546 -0.1396  1.7961
  157SAPE   C2817493   5.697   2.578   7.099 -0.9466 -0.2729  0.5620
  157SAPE   H8R17494   5.716   2.686   7.105 -1.1803 -0.2222  0.3401
  157SAPE   C2917495   5.686   2.508   7.209  0.6270  0.4399  0.8389
  157SAPE   H9R17496   5.684   2.573   7.298 -0.2537 -2.2957  2.8771
  157SAPE  C21017497   5.638   2.369   7.238 -0.4312 -0.0171  0.5989
  157SAPE  H10R17498   5.635   2.321   7.138 -0.6913 -0.9250  1.0413
  157SAPE  H10S17499   5.531   2.382   7.264 -1.0137 -0.8550 -1.3157
  157SAPE  C21117500   5.722   2.289   7.342 -0.0210 -0.2265 -0.0318
  157SAPE  H11R17501   5.823   2.250   7.320 -0.7635 -1.0013 -2.2176
  157SAPE  C21217502   5.681   2.274   7.473 -1.0771  0.4838  1.4393
  157SAPE  H12R17503   5.749   2.211   7.533 -1.8637 -2.4588 -0.6082
  157SAPE  C21317504   5.563   2.318   7.555 -0.3629 -0.0652  0.7909
  157SAPE  H13R17505   5.485   2.373   7.499 -0.9475 -1.3052  0.3804
  157SAPE  H13S17506   5.611   2.387   7.628  3.3874 -0.6454 -0.9968
  157SAPE  C21417507   5.497   2.215   7.642 -0.2004  0.5587  0.4336
  157SAPE  H14R17508   5.400   2.183   7.600 -0.9379  1.4291  1.4393
  157SAPE  C21517509   5.536   2.165   7.758  0.3675 -0.1765  0.3826
  157SAPE  H15R17510   5.468   2.088   7.796  1.5538 -1.2893  0.2990
  157SAPE  C21617511   5.667   2.206   7.829  1.0336 -0.3051  0.2658
  157SAPE  H16R17512   5.678   2.317   7.823 -0.4507 -0.1981 -0.5517
  157SAPE  H16S17513   5.756   2.161   7.779 -0.8791 -0.8346 -2.7698
  157SAPE  C21717514   5.668   2.169   7.977 -0.0178 -0.2255 -0.1208
  157SAPE  H17R17515   5.576   2.211   8.024  0.8619  2.6635 -0.8605
  157SAPE  H17S17516   5.761   2.217   8.015  0.4432  2.6421 -4.5075
  157SAPE  C21817517   5.672   2.016   8.005  0.6297  0.5824  0.1707
  157SAPE  H18R17518   5.731   1.969   7.923  0.9148  0.1072  0.6429
  157SAPE  H18S17519   5.565   1.984   8.014 -0.0695  2.0799 -2.3521
  157SAPE  C21917520   5.737   1.984   8.137  0.2424 -0.0170 -0.3252
  157SAPE  H19R17521   5.691   2.035   8.224 -0.7459 -0.8398 -0.3440
  157SAPE  H19S17522   5.839   2.026   8.125 -0.1768  0.8242 -1.0444
  157SAPE  C22017523   5.738   1.828   8.153 -0.4015 -0.0894 -0.6402
  157SAPE  H20R17524   5.845   1.804   8.168 -0.8998 -2.2142 -0.3968
  157SAPE  H20S17525   5.697   1.775   8.064 -2.1302 -0.0242  0.1021
  157SAPE  H20T17526   5.683   1.790   8.241  0.8013  0.9574  0.5868
  157SAPE   C3317527   6.285   2.597   6.738  0.3393 -0.6406  0.3968
  157SAPE   H3X17528   6.290   2.694   6.791 -0.6908  0.1503 -0.8949
  157SAPE   H3Y17529   6.348   2.530   6.799 -1.0189  0.5328  3.1802
  157SAPE   C3417530   6.134   2.567   6.766 -0.7766 -0.6090  0.2616
  157SAPE   H4X17531   6.113   2.468   6.720  0.1870 -1.4787  1.6458
  157SAPE   H4Y17532   6.080   2.653   6.721  0.9482  0.7422  0.7100
  157SAPE   C3517533   6.102   2.565   6.915 -0.2230  0.1905 -0.3398
  157SAPE   H5X17534   5.991   2.559   6.919 -0.2364  0.6018 -0.0648
  157SAPE   H5Y17535   6.144   2.652   6.970 -0.3037  1.0405 -1.5865
  157SAPE   C3617536   6.148   2.446   6.995  0.5963 -0.1994  0.8954
  157SAPE   H6X17537   6.251   2.409   6.981 -0.9152 -4.8273  1.0719
  157SAPE   H6Y17538   6.069   2.368   6.988 -0.6543  1.2263 -1.9468
  157SAPE   C3717539   6.138   2.487   7.141 -0.1808 -0.4028  0.6598
  157SAPE   H7X17540   6.034   2.526   7.152 -0.6484 -1.6107  0.5535
  157SAPE   H7Y17541   6.215   2.567   7.145  0.3336 -0.8547 -0.0096
  157SAPE   C3817542   6.157   2.364   7.232  0.6868  0.1046  1.2585
  157SAPE   H8X17543   6.263   2.336   7.217  0.2235 -0.4976 -0.9400
  157SAPE   H8Y17544   6.087   2.285   7.198  0.4483  0.0091  1.9521
  157SAPE   C3917545   6.129   2.389   7.376 -0.4875 -0.1863  0.1876
  157SAPE   H9X17546   6.021   2.416   7.388 -0.2814  1.8860 -2.2997
  157SAPE   H9Y17547   6.195   2.471   7.410 -0.6381  0.4087 -0.9423
  157SAPE  C31017548   6.170   2.269   7.460 -0.2972 -0.0828  0.2052
  157SAPE  H10X17549   6.281   2.263   7.461 -0.2292  0.1783 -2.4255
  157SAPE  H10Y17550   6.122   2.179   7.415  0.6982 -1.4145  1.7669
  157SAPE  C31117551   6.138   2.290   7.613  0.5919 -0.1791 -0.6024
  157SAPE  H11X17552   6.030   2.268   7.613  0.6518 -0.5063  1.6668
  157SAPE  H11Y17553   6.142   2.395   7.649  2.2215 -0.3575 -0.2291
  157SAPE  C31217554   6.217   2.196   7.706  0.2904 -0.6422 -0.6046
  157SAPE  H12X17555   6.316   2.242   7.730  0.0694 -1.8067  2.7351
  157SAPE  H12Y17556   6.233   2.100   7.652 -1.9368 -0.8078 -0.9880
  157SAPE  C31317557   6.151   2.165   7.842 -0.5448 -0.1191 -0.4155
  157SAPE  H13X17558   6.229   2.126   7.910  0.1319  1.8314 -0.0343
  157SAPE  H13Y17559   6.070   2.091   7.822  0.1573 -0.6321 -1.4097
  157SAPE  C31417560   6.095   2.296   7.899 -0.9222  0.7875  0.8258
  157SAPE  H14X17561   6.005   2.322   7.840  1.3002  0.9034 -2.6507
  157SAPE  H14Y17562   6.164   2.383   7.887  0.2339  0.0136  1.7856
  157SAPE  C31517563   6.068   2.297   8.054  0.2934 -0.3215 -0.0374
  157SAPE  H15X17564   6.161   2.284   8.113 -0.3838 -2.0887  0.6604
  157SAPE  H15Y17565   6.003   2.213   8.085  0.0892  0.0930  0.6773
  157SAPE  C31617566   5.994   2.431   8.095  0.3412 -0.1104 -0.0194
  157SAPE  H16X17567   5.910   2.462   8.029  1.3886 -0.4179 -1.4988
  157SAPE  H16Y17568   6.066   2.515   8.086  1.2867 -0.9751 -0.5890
  157SAPE  C31717569   5.934   2.447   8.231 -0.4372 -0.1376 -0.8508
  157SAPE  H17X17570   5.909   2.554   8.248  0.7395  0.4711 -2.8752
  157SAPE  H17Y17571   6.000   2.420   8.316  0.5688  0.2825 -1.4980
  157SAPE  C31817572   5.807   2.364   8.240  0.5912 -0.1930  0.3553
  157SAPE  H18X17573   5.827   2.255   8.254  0.3900 -0.2419  0.2576
  157SAPE  H18Y17574   5.745   2.378   8.149 -0.2259  0.2404  0.9892
  157SAPE  H18Z17575   5.766   2.398   8.337 -1.4227 -0.5985 -0.3269
  158SAPE     N17576   0.841   0.072   6.442  0.1559  0.4134  0.6353
  158SAPE   HN117577   0.808   0.116   6.531 -0.1413  1.7447 -0.1322
  158SAPE   HN217578   0.755   0.020   6.414  1.2242 -0.3500 -1.2878
  158SAPE   HN317579   0.917   0.006   6.468  0.2898  0.3050 -0.0229
  158SAPE   C1217580   0.886   0.177   6.340  0.2007 -0.1536 -0.3722
  158SAPE  H12A17581   0.902   0.124   6.243  0.1419 -1.2471  0.2055
  158SAPE  H12B17582   0.979   0.218   6.384  0.2401 -1.7963  1.1493
  158SAPE   C1117583   0.789   0.297   6.319  0.6701  0.5681  0.9865
  158SAPE  H11A17584   0.834   0.360   6.240  0.5896 -1.3596 -0.6374
  158SAPE  H11B17585   0.785   0.349   6.417  0.8014  1.3684  0.5738
  158SAPE     P17586   0.539   0.342   6.271  0.3356  0.0959  0.2605
  158SAPE   O1317587   0.560   0.448   6.172 -0.7180 -0.6360 -0.2730
  158SAPE   O1417588   0.427   0.255   6.228 -0.1157 -0.1261  0.9406
  158SAPE   O1217589   0.671   0.245   6.272 -0.3264  0.2771  0.4955
  158SAPE   O1117590   0.511   0.407   6.411 -0.6686  0.6422 -0.2876
  158SAPE    C117591   0.434   0.340   6.511  0.0119 -0.7392  0.8674
  158SAPE    HA17592   0.352   0.406   6.545 -0.2997 -0.5076 -0.3121
  158SAPE    HB17593   0.383   0.249   6.472 -1.5243  0.7283 -0.5783
  158SAPE    C217594   0.513   0.287   6.634  0.2830 -0.2849 -0.9936
  158SAPE    HS17595   0.555   0.187   6.608 -0.7271 -1.1512  0.5769
  158SAPE   O2117596   0.423   0.279   6.745  0.0530  0.2888 -0.5824
  158SAPE   C2117597   0.428   0.173   6.820  0.2164  0.1351 -0.0847
  158SAPE   O2217598   0.510   0.083   6.802  0.4939  0.1565  0.2666
  158SAPE   C2217599   0.338   0.185   6.944 -1.0445 -0.2758  0.3959
  158SAPE   H2R17600   0.282   0.089   6.934 -0.4955 -0.4324 -1.2727
  158SAPE   H2S17601   0.409   0.190   7.030 -1.0877 -0.2792  0.4321
  158SAPE    C317602   0.634   0.371   6.683  0.4503  0.1077 -0.3062
  158SAPE    HX17603   0.595   0.475   6.688 -1.1779 -0.4850 -0.4381
  158SAPE    HY17604   0.696   0.383   6.592  0.9620 -0.6992 -0.0678
  158SAPE   O3117605   0.703   0.329   6.799  0.2320 -0.1465  0.0075
  158SAPE   C3117606   0.787   0.229   6.787  0.5042  0.1453  0.3727
  158SAPE   O3217607   0.807   0.170   6.683  0.5124 -0.7895 -0.0457
  158SAPE   C3217608   0.854   0.187   6.918  0.4181  0.5561 -0.1031
  158SAPE   H2X17609   0.930   0.108   6.896 -0.5188 -0.7048  1.0829
  158SAPE   H2Y17610   0.770   0.140   6.972  0.6586  2.1990  1.7376
  158SAPE   C2317611   0.229   0.297   6.937  0.7608 -0.3492 -0.4542
  158SAPE   H3R17612   0.158   0.283   6.853 -0.3093  3.2556 -0.2121
  158SAPE   H3S17613   0.271   0.397   6.913 -0.5080 -0.3841 -3.0036
  158SAPE   C2417614   0.149   0.317   7.075 -0.0966 -0.1059 -0.4081
  158SAPE   H4R17615   0.066   0.391   7.074  0.5332  0.7548  3.2758
  158SAPE   H4S17616   0.225   0.344   7.151  0.6244 -0.7703 -0.8871
  158SAPE   C2517617   0.085   0.182   7.101  0.8331 -0.1330 -0.0517
  158SAPE   H5R17618  -0.003   0.167   7.036  0.2908  1.9560  0.1531
  158SAPE   C2617619   0.092   0.098   7.205 -0.0867 -0.5325  0.0179
  158SAPE   H6R17620   0.015   0.019   7.212 -0.4662 -0.2607 -0.9579
  158SAPE   C2717621   0.183   0.130   7.312  0.2164 -0.5419 -0.1262
  158SAPE   H7R17622   0.278   0.160   7.263  0.8203 -0.8765  0.8152
  158SAPE   H7S17623   0.221   0.036   7.357 -0.9256 -1.1569 -0.4252
  158SAPE   C2817624   0.147   0.212   7.433 -0.4221  0.0360 -0.0094
  158SAPE   H8R17625   0.118   0.315   7.410  0.2317  0.6646  1.8482
  158SAPE   C2917626   0.114   0.173   7.558 -0.0936 -0.6374  0.9708
  158SAPE   H9R17627   0.089   0.257   7.624 -2.4612  0.7591 -1.6146
  158SAPE  C21017628   0.126   0.035   7.616  0.0084 -0.1739  0.6488
  158SAPE  H10R17629   0.150   0.043   7.725 -1.4642  1.0251  0.9096
  158SAPE  H10S17630   0.202  -0.028   7.565  0.1044  0.3835  0.0979
  158SAPE  C21117631  -0.000  -0.043   7.594  0.1620  0.4878 -0.4816
  158SAPE  H11R17632  -0.051  -0.015   7.500 -1.1027  0.2723  0.1327
  158SAPE  C21217633  -0.059  -0.138   7.669  0.2072 -0.4031 -0.7850
  158SAPE  H12R17634  -0.164  -0.158   7.645  0.8099 -3.1356 -1.2893
  158SAPE  C21317635  -0.014  -0.192   7.813  0.6055 -0.0337  0.0458
  158SAPE  H13R17636  -0.081  -0.141   7.886 -0.1542  0.7384 -1.1734
  158SAPE  H13S17637   0.086  -0.151   7.834  0.6806  0.3333 -1.0243
  158SAPE  C21417638  -0.000  -0.344   7.825 -0.4467  0.0344  0.5789
  158SAPE  H14R17639   0.028  -0.387   7.728 -2.5870  0.1924 -0.1453
  158SAPE  C21517640  -0.035  -0.428   7.928  0.5951  0.8115  0.2188
  158SAPE  H15R17641  -0.012  -0.535   7.918  0.6719  0.9312 -0.9991
  158SAPE  C21617642  -0.097  -0.392   8.064  0.3472  0.3363  0.3568
  158SAPE  H16R17643  -0.180  -0.464   8.079  1.0078 -0.2033  1.4577
  158SAPE  H16S17644  -0.131  -0.286   8.064  0.6503  0.4485 -0.7906
  158SAPE  C21717645   0.007  -0.411   8.178  0.8536 -0.3402 -0.2274
  158SAPE  H17R17646   0.100  -0.356   8.152 -0.0297  1.3346  0.1246
  158SAPE  H17S17647   0.027  -0.519   8.198 -0.8624 -0.3441  1.5543
  158SAPE  C21817648  -0.037  -0.354   8.307  0.1172  0.2834  0.1812
  158SAPE  H18R17649   0.028  -0.384   8.391  1.7924  1.6221 -0.5974
  158SAPE  H18S17650  -0.135  -0.392   8.342  0.4795 -1.2359 -0.4269
  158SAPE  C21917651  -0.036  -0.203   8.310 -0.4683 -0.3599  0.0018
  158SAPE  H19R17652  -0.110  -0.161   8.240 -1.0728  1.2169  1.5534
  158SAPE  H19S17653   0.065  -0.159   8.298 -1.1804  0.9302 -1.2910
  158SAPE  C22017654  -0.094  -0.149   8.452 -0.6332  0.1761  0.2553
  158SAPE  H20R17655  -0.117  -0.041   8.440  1.9582  0.4562 -2.7137
  158SAPE  H20S17656  -0.018  -0.156   8.533  0.8464  0.1326 -1.1157
  158SAPE  H20T17657  -0.185  -0.200   8.489 -0.3852  0.4789  1.3098
  158SAPE   C3317658   0.919   0.303   6.992  0.1370 -0.2870 -0.1348
  158SAPE   H3X17659   0.838   0.371   7.025 -0.3514 -0.6724 -0.5325
  158SAPE   H3Y17660   0.983   0.366   6.926  0.1566  1.8646  1.8721
  158SAPE   C3417661   1.000   0.266   7.118  0.1511  0.0933 -0.1731
  158SAPE   H4X17662   1.060   0.354   7.149  1.3110 -1.2423  1.4526
  158SAPE   H4Y17663   1.069   0.183   7.088  1.0851  0.0950  1.9143
  158SAPE   C3517664   0.920   0.229   7.242 -0.4511  0.6192  0.5940
  158SAPE   H5X17665   0.848   0.148   7.218  1.4553 -1.0175  0.2987
  158SAPE   H5Y17666   0.874   0.326   7.270  0.4358  1.2397 -0.0706
  158SAPE   C3617667   1.013   0.177   7.360 -0.1932 -0.4451 -0.5028
  158SAPE   H6X17668   1.083   0.259   7.387  1.3882 -1.1507 -2.2871
  158SAPE   H6Y17669   1.069   0.095   7.310 -0.7058  0.1705 -2.1200
  158SAPE   C3717670   0.920   0.146   7.478  0.2249 -0.1812  0.3655
  158SAPE   H7X17671   0.847   0.227   7.500  1.0224  1.0607 -1.4066
  158SAPE   H7Y17672   0.856   0.060   7.449  1.6491 -0.6386 -1.4771
  158SAPE   C3817673   1.000   0.107   7.608  0.3798  0.0967 -0.1262
  158SAPE   H8X17674   0.923   0.098   7.688  2.2479  0.6809  1.7959
  158SAPE   H8Y17675   1.065   0.191   7.642 -0.3599  0.5823  0.1016
  158SAPE   C3917676   1.079  -0.028   7.610  0.0675  0.3345  0.7623
  158SAPE   H9X17677   1.155  -0.024   7.529 -0.2949 -0.6997  0.3639
  158SAPE   H9Y17678   1.009  -0.107   7.578 -0.3944  1.5402 -1.3140
  158SAPE  C31017679   1.155  -0.070   7.733  0.1796 -0.5911 -0.2039
  158SAPE  H10X17680   1.218   0.018   7.759 -2.2705  1.8512 -2.3179
  158SAPE  H10Y17681   1.232  -0.145   7.706  0.3289  0.0699 -1.6301
  158SAPE  C31117682   1.072  -0.136   7.843  0.3520 -0.5628 -0.4570
  158SAPE  H11X17683   1.033  -0.227   7.792 -0.0596 -0.1481 -0.8949
  158SAPE  H11Y17684   0.978  -0.079   7.862  0.3148 -1.4021  2.0519
  158SAPE  C31217685   1.150  -0.169   7.967 -0.1620  0.0542 -0.2708
  158SAPE  H12X17686   1.079  -0.241   8.013  1.0810 -0.5742  0.6796
  158SAPE  H12Y17687   1.169  -0.070   8.014 -0.1328 -0.7502  1.4540
  158SAPE  C31317688   1.279  -0.239   7.964  0.3894 -0.3385  0.0394
  158SAPE  H13X17689   1.352  -0.179   7.906 -0.6136  0.9316  0.0691
  158SAPE  H13Y17690   1.280  -0.338   7.915 -0.1567  0.5471 -1.8035
  158SAPE  C31417691   1.341  -0.267   8.103 -0.1952  0.1539 -0.1585
  158SAPE  H14X17692   1.272  -0.317   8.173  1.3251  0.3190  1.4973
  158SAPE  H14Y17693   1.354  -0.171   8.159 -2.8389  0.3046  0.2586
  158SAPE  C31517694   1.479  -0.326   8.097 -0.0219  0.0264  0.1101
  158SAPE  H15X17695   1.547  -0.264   8.034  0.1446  1.1912  1.4081
  158SAPE  H15Y17696   1.483  -0.430   8.058  4.6339  0.0670  0.1987
  158SAPE  C31617697   1.537  -0.343   8.235  0.6472 -0.5463  0.5377
  158SAPE  H16X17698   1.563  -0.244   8.280 -2.1140 -0.7585  2.7352
  158SAPE  H16Y17699   1.634  -0.394   8.220  0.6091 -1.0449  1.8803
  158SAPE  C31717700   1.463  -0.418   8.349  0.7894  0.0757 -0.9111
  158SAPE  H17X17701   1.427  -0.513   8.305  2.7401  0.6029 -3.7454
  158SAPE  H17Y17702   1.371  -0.358   8.370  0.4101 -0.3286 -1.4059
  158SAPE  C31817703   1.558  -0.438   8.461 -0.0701  0.2355 -0.1392
  158SAPE  H18X17704   1.656  -0.466   8.417 -0.6057 -0.4842 -0.8823
  158SAPE  H18Y17705   1.525  -0.512   8.538  1.4939 -1.6621 -1.2547
  158SAPE  H18Z17706   1.584  -0.345   8.516 -1.4869 -0.5195  1.8441
  159SAPE     N17707   6.768   3.548   6.057 -0.6161  0.5487 -0.0553
  159SAPE   HN117708   6.829   3.466   6.081  0.6916  1.3985 -0.4245
  159SAPE   HN217709   6.674   3.509   6.036 -0.0398 -2.2004  2.0764
  159SAPE   HN317710   6.806   3.598   5.975 -1.3244  1.4691  0.1777
  159SAPE   C1217711   6.745   3.642   6.177 -0.5642  0.2567  0.4177
  159SAPE  H12A17712   6.673   3.720   6.146  0.6437  0.6653 -1.4485
  159SAPE  H12B17713   6.848   3.682   6.189 -0.9775  1.1341  1.1068
  159SAPE   C1117714   6.704   3.558   6.303  0.1363  0.6227  0.3185
  159SAPE  H11A17715   6.713   3.616   6.397  0.3964  0.9099  0.1162
  159SAPE  H11B17716   6.779   3.479   6.324  1.4574  1.7838  0.0668
  159SAPE     P17717   6.531   3.363   6.258  0.4404  0.1797 -0.1077
  159SAPE   O1317718   6.384   3.359   6.235  0.3212 -0.0283 -0.3647
  159SAPE   O1417719   6.611   3.301   6.149 -0.2640  0.5430  0.0443
  159SAPE   O1217720   6.575   3.510   6.289  0.7803 -0.0066 -0.3604
  159SAPE   O1117721   6.567   3.293   6.396  1.0097  0.4968  0.2467
  159SAPE    C117722   6.674   3.194   6.410  0.7617 -0.6009  0.3901
  159SAPE    HA17723   6.625   3.105   6.364 -0.6078  1.0500 -1.4343
  159SAPE    HB17724   6.762   3.221   6.348 -0.3937  1.4826 -0.3961
  159SAPE    C217725   6.701   3.160   6.556 -0.2283  1.0870  0.0720
  159SAPE    HS17726   6.619   3.089   6.581  0.7197  0.1028  0.4441
  159SAPE   O2117727   6.679   3.269   6.643 -0.0253 -0.1829 -0.1519
  159SAPE   C2117728   6.764   3.372   6.631  0.3049  0.6355  0.2088
  159SAPE   O2217729   6.860   3.376   6.556  0.3082  0.2160 -0.2599
  159SAPE   C2217730   6.738   3.476   6.737 -0.4670 -0.0089  0.1662
  159SAPE   H2R17731   6.740   3.420   6.833 -1.7421  1.5604  1.1182
  159SAPE   H2S17732   6.814   3.557   6.732 -0.4368 -0.1467 -1.9021
  159SAPE    C317733   6.832   3.089   6.588 -0.3066  0.0618  0.8735
  159SAPE    HX17734   6.923   3.134   6.543 -2.6336  3.2161 -0.8847
  159SAPE    HY17735   6.821   2.986   6.547 -1.3116  0.2006  0.7789
  159SAPE   O3117736   6.853   3.072   6.735  0.1463 -0.1731 -0.0479
  159SAPE   C3117737   6.952   3.116   6.798 -0.3962 -0.7446 -0.0469
  159SAPE   O3217738   7.042   3.186   6.755 -0.3152 -0.2651  0.0916
  159SAPE   C3217739   6.952   3.062   6.938 -0.1202  0.1496 -0.2073
  159SAPE   H2X17740   7.001   2.963   6.940  1.8148  1.0655 -0.9325
  159SAPE   H2Y17741   6.847   3.063   6.973 -0.3069 -2.9782 -0.5854
  159SAPE   C2317742   6.609   3.554   6.699  0.2375  0.3124 -1.1986
  159SAPE   H3R17743   6.536   3.494   6.641  1.9389 -0.2854 -2.7586
  159SAPE   H3S17744   6.637   3.640   6.635 -1.0830  1.6175 -0.0519
  159SAPE   C2417745   6.553   3.631   6.822  0.8344  0.8868  0.8560
  159SAPE   H4R17746   6.497   3.554   6.879 -0.3986  0.3017 -1.1377
  159SAPE   H4S17747   6.487   3.703   6.769  2.2761  1.5635 -0.0459
  159SAPE   C2517748   6.667   3.703   6.895  0.3022  0.2198 -0.5206
  159SAPE   H5R17749   6.720   3.780   6.838 -0.6825  3.9107  3.2624
  159SAPE   C2617750   6.714   3.662   7.019  0.1724  0.2645  0.3421
  159SAPE   H6R17751   6.787   3.726   7.070 -0.6578  1.0177  0.5956
  159SAPE   C2717752   6.660   3.553   7.104 -0.7280 -1.0331  0.6021
  159SAPE   H7R17753   6.615   3.478   7.036 -1.4024  0.1323 -0.2701
  159SAPE   H7S17754   6.567   3.581   7.158 -1.1021  3.0706 -1.9264
  159SAPE   C2817755   6.758   3.490   7.191  0.0885 -1.2052 -0.4455
  159SAPE   H8R17756   6.795   3.391   7.163 -1.3347 -2.1150  0.8362
  159SAPE   C2917757   6.797   3.545   7.314 -0.2936 -0.0726 -0.1302
  159SAPE   H9R17758   6.886   3.500   7.360 -1.1639 -1.3422  0.3581
  159SAPE  C21017759   6.763   3.686   7.352  0.5808  0.3142 -0.2443
  159SAPE  H10R17760   6.698   3.682   7.442  0.1685 -0.3147 -0.5619
  159SAPE  H10S17761   6.699   3.732   7.273 -0.1601  0.5158  0.4671
  159SAPE  C21117762   6.884   3.767   7.383  0.5324  0.4295  0.0742
  159SAPE  H11R17763   6.945   3.781   7.293  1.2822  0.0513  0.5097
  159SAPE  C21217764   6.927   3.813   7.504  0.0408  0.2292  1.1083
  159SAPE  H12R17765   7.021   3.869   7.508  0.4335 -0.3599  0.3284
  159SAPE  C21317766   6.860   3.790   7.639 -0.1388  0.4955 -0.0316
  159SAPE  H13R17767   6.754   3.764   7.619 -0.0332  1.0811 -1.4291
  159SAPE  H13S17768   6.859   3.883   7.700  0.5351  0.7587 -0.4113
  159SAPE  C21417769   6.904   3.673   7.714 -0.4492  0.0256  0.0200
  159SAPE  H14R17770   6.923   3.584   7.653  2.2576  1.5733 -1.5074
  159SAPE  C21517771   6.917   3.673   7.853  0.1784  0.1888  0.6901
  159SAPE  H15R17772   6.955   3.578   7.892 -0.9604 -0.5361  0.0430
  159SAPE  C21617773   6.892   3.782   7.951 -0.7745 -0.1594  0.6029
  159SAPE  H16R17774   6.813   3.747   8.020  0.2944 -0.8315  1.4937
  159SAPE  H16S17775   6.850   3.876   7.910  1.3886  1.4948  2.0290
  159SAPE  C21717776   7.019   3.839   8.020 -0.2873  0.5689 -0.4238
  159SAPE  H17R17777   7.087   3.869   7.937 -2.8436  0.0276 -2.8035
  159SAPE  H17S17778   7.067   3.754   8.072 -1.1460 -0.1118 -0.7408
  159SAPE  C21817779   6.986   3.961   8.113 -0.2625 -0.2161 -0.4949
  159SAPE  H18R17780   6.900   3.934   8.179 -0.9886  0.2051 -1.2651
  159SAPE  H18S17781   6.946   4.043   8.050 -1.7908  0.6895  1.5673
  159SAPE  C21917782   7.105   4.018   8.185  0.4548 -0.0087 -0.3345
  159SAPE  H19R17783   7.160   4.062   8.099  1.0270  1.3299  0.7057
  159SAPE  H19S17784   7.157   3.936   8.238  0.4738  1.7145  2.4244
  159SAPE  C22017785   7.056   4.128   8.278 -0.0239  0.5038 -0.2435
  159SAPE  H20R17786   7.001   4.210   8.226 -0.3687  0.9298  0.7771
  159SAPE  H20S17787   7.144   4.170   8.332  0.4412 -2.8741  1.7750
  159SAPE  H20T17788   6.988   4.084   8.355  1.5530  0.1582  0.9737
  159SAPE   C3317789   7.043   3.156   7.027 -0.0845  0.7292 -0.3815
  159SAPE   H3X17790   6.995   3.254   7.047  0.5390  1.2326 -1.3691
  159SAPE   H3Y17791   7.143   3.153   6.980  0.0812 -2.2683  0.0626
  159SAPE   C3417792   7.056   3.095   7.165 -0.2291  0.5626 -0.1094
  159SAPE   H4X17793   7.137   3.141   7.225  2.0241 -0.8886 -1.9043
  159SAPE   H4Y17794   7.094   2.991   7.152 -1.6273  0.0671 -0.3165
  159SAPE   C3517795   6.931   3.082   7.248 -0.7226  0.3015  0.6689
  159SAPE   H5X17796   6.849   3.051   7.180  1.0538 -0.9492 -0.9718
  159SAPE   H5Y17797   6.911   3.178   7.299  1.9079  2.6756 -2.5582
  159SAPE   C3617798   6.944   2.973   7.359 -0.1430 -0.1244  0.1556
  159SAPE   H6X17799   7.041   2.997   7.408 -0.2585  2.3179 -0.7125
  159SAPE   H6Y17800   6.941   2.871   7.315  2.8356 -0.5082  0.7024
  159SAPE   C3717801   6.841   2.988   7.469  0.3779 -0.9661  0.8838
  159SAPE   H7X17802   6.738   2.981   7.429 -0.3556 -0.0977  2.5732
  159SAPE   H7Y17803   6.849   3.092   7.508  0.5267 -0.5042 -0.3687
  159SAPE   C3817804   6.861   2.884   7.589  0.8325 -0.2932  0.4236
  159SAPE   H8X17805   6.968   2.864   7.613  1.0717  1.6267  1.0097
  159SAPE   H8Y17806   6.816   2.785   7.565  2.6874 -0.9407 -0.5138
  159SAPE   C3917807   6.788   2.939   7.706  0.5606  0.4926 -0.1158
  159SAPE   H9X17808   6.678   2.942   7.687  0.5052  0.4178  0.1957
  159SAPE   H9Y17809   6.829   3.040   7.729  0.1236  1.0458 -1.7055
  159SAPE  C31017810   6.822   2.843   7.824  0.2609  0.5019 -0.0482
  159SAPE  H10X17811   6.930   2.835   7.845  0.0356 -3.5447 -0.1654
  159SAPE  H10Y17812   6.783   2.744   7.793  1.6432  0.1621 -0.7319
  159SAPE  C31117813   6.734   2.880   7.948  0.3432 -0.1944 -0.2324
  159SAPE  H11X17814   6.628   2.903   7.928  0.2814 -1.1276 -1.0003
  159SAPE  H11Y17815   6.775   2.970   7.999  0.4274 -0.6492  0.5109
  159SAPE  C31217816   6.739   2.772   8.054  0.0812 -0.2892  0.2227
  159SAPE  H12X17817   6.847   2.769   8.080 -0.1840  1.2933  1.5856
  159SAPE  H12Y17818   6.701   2.674   8.017 -0.7102  0.0992  0.0198
  159SAPE  C31317819   6.666   2.814   8.189 -0.1658  0.5843 -0.0512
  159SAPE  H13X17820   6.563   2.814   8.148 -0.3287 -0.1315  0.3537
  159SAPE  H13Y17821   6.685   2.918   8.223 -0.7762  1.5353 -2.5390
  159SAPE  C31417822   6.707   2.721   8.299  0.6249  0.2421 -1.0541
  159SAPE  H14X17823   6.813   2.751   8.311  1.0119 -1.6024  0.3591
  159SAPE  H14Y17824   6.706   2.615   8.265  0.4072 -0.0368 -0.1994
  159SAPE  C31517825   6.625   2.740   8.430  0.3650  0.0875 -0.3372
  159SAPE  H15X17826   6.524   2.701   8.406  0.7617 -1.5693  0.6058
  159SAPE  H15Y17827   6.618   2.849   8.448  1.3013  0.0983 -0.0268
  159SAPE  C31617828   6.670   2.661   8.558 -0.2225 -0.5626 -0.6109
  159SAPE  H16X17829   6.653   2.552   8.549 -2.2231 -0.3741  0.6524
  159SAPE  H16Y17830   6.603   2.691   8.641  0.9735 -0.5187  0.3532
  159SAPE  C31717831   6.803   2.708   8.603 -0.1589  0.4707  0.5784
  159SAPE  H17X17832   6.827   2.816   8.598 -1.2897  0.7166  0.3513
  159SAPE  H17Y17833   6.884   2.673   8.535 -0.7283  1.0540 -0.3957
  159SAPE  C31817834   6.831   2.658   8.746  0.4458 -0.3539 -0.1774
  159SAPE  H18X17835   6.832   2.548   8.758  1.7015 -0.1910  1.3611
  159SAPE  H18Y17836   6.769   2.706   8.826  1.0663 -1.7309  1.1546
  159SAPE  H18Z17837   6.938   2.683   8.765  0.5668 -1.5952  0.8404
  160SAPE     N17838   0.887   1.248   6.575 -0.2552  0.0837 -0.6609
  160SAPE   HN117839   0.902   1.156   6.529  2.8813 -0.9107  2.1426
  160SAPE   HN217840   0.918   1.325   6.513  0.6661  0.8782  0.7429
  160SAPE   HN317841   0.952   1.238   6.655 -1.2660 -2.8068 -0.1126
  160SAPE   C1217842   0.746   1.286   6.614  0.2425  0.1738 -0.0334
  160SAPE  H12A17843   0.699   1.215   6.685 -1.0909  1.3189  0.2571
  160SAPE  H12B17844   0.693   1.286   6.517 -0.4373  4.3663  0.2548
  160SAPE   C1117845   0.746   1.429   6.669 -0.7951 -0.3000  0.4902
  160SAPE  H11A17846   0.790   1.425   6.771 -0.9354 -0.5868  0.5393
  160SAPE  H11B17847   0.639   1.456   6.680 -0.4208  0.9313  1.2097
  160SAPE     P17848   0.767   1.611   6.466  0.0813 -0.4101  0.0263
  160SAPE   O1317849   0.877   1.648   6.370 -0.1917 -0.1936 -0.1321
  160SAPE   O1417850   0.651   1.549   6.400 -0.7310 -0.0672  0.3141
  160SAPE   O1217851   0.832   1.514   6.585  0.3706  0.7236  0.1466
  160SAPE   O1117852   0.715   1.735   6.546  0.1796  0.0062  0.5121
  160SAPE    C117853   0.784   1.841   6.612  0.0638 -0.4390  0.1141
  160SAPE    HA17854   0.877   1.871   6.560  0.9206 -1.6298  0.9226
  160SAPE    HB17855   0.718   1.931   6.615  1.0451  0.2580  2.1284
  160SAPE    C217856   0.831   1.811   6.764  0.6341  0.1084 -0.5696
  160SAPE    HS17857   0.889   1.716   6.762  0.6417  0.0340  1.8976
  160SAPE   O2117858   0.709   1.808   6.841 -1.3021 -0.1438  0.0300
  160SAPE   C2117859   0.700   1.722   6.943 -0.2468  0.3620 -0.1504
  160SAPE   O2217860   0.789   1.645   6.976 -0.6375 -0.0541 -0.6075
  160SAPE   C2217861   0.560   1.737   7.012  0.3046  0.0062  0.0096
  160SAPE   H2R17862   0.541   1.843   7.039 -1.3630 -0.7507  1.9359
  160SAPE   H2S17863   0.484   1.710   6.936  0.7603 -3.0103  0.5743
  160SAPE    C317864   0.921   1.919   6.824  0.1577  0.0010  0.0284
  160SAPE    HX17865   0.855   2.007   6.808  0.0175 -0.2921 -1.0962
  160SAPE    HY17866   1.012   1.924   6.760 -0.1769  0.3742 -0.4200
  160SAPE   O3117867   0.960   1.897   6.963  0.4726  0.3056  0.0560
  160SAPE   C3117868   1.037   1.794   7.003  0.4899 -0.0160  0.0761
  160SAPE   O3217869   1.082   1.707   6.929 -0.3901  0.7527  0.2907
  160SAPE   C3217870   1.050   1.796   7.147  0.1727  0.1466  0.5489
  160SAPE   H2X17871   0.955   1.762   7.193  0.3947 -0.8891  0.2551
  160SAPE   H2Y17872   1.079   1.901   7.167  2.1129  0.1890 -2.2082
  160SAPE   C2317873   0.527   1.641   7.134 -0.0196 -0.0884  0.7869
  160SAPE   H3R17874   0.603   1.661   7.212 -1.4472  0.4573  2.0717
  160SAPE   H3S17875   0.525   1.535   7.102  0.5719  0.0170  0.4036
  160SAPE   C2417876   0.391   1.687   7.195  0.3062  0.7281  0.7248
  160SAPE   H4R17877   0.323   1.721   7.113 -0.7964  0.4157  1.4911
  160SAPE   H4S17878   0.395   1.780   7.255 -0.4091  1.6442 -0.6099
  160SAPE   C2517879   0.319   1.571   7.262 -0.0757  1.1342 -0.9666
  160SAPE   H5R17880   0.255   1.502   7.206 -1.0835  1.0520  0.2590
  160SAPE   C2617881   0.337   1.544   7.398  0.3839 -0.5682  0.3056
  160SAPE   H6R17882   0.282   1.462   7.445 -0.5449 -1.1253 -1.7364
  160SAPE   C2717883   0.430   1.624   7.484 -0.2348  0.0083 -0.0149
  160SAPE   H7R17884   0.388   1.616   7.587  0.6332 -1.4465  0.2372
  160SAPE   H7S17885   0.431   1.730   7.449 -0.1612  0.0109 -0.0030
  160SAPE   C2817886   0.570   1.570   7.480 -0.0548 -0.1672  0.0302
  160SAPE   H8R17887   0.599   1.553   7.375  1.1445  3.4335 -0.2687
  160SAPE   C2917888   0.660   1.565   7.581  0.1687 -0.1545  0.3515
  160SAPE   H9R17889   0.759   1.522   7.561  0.0975 -0.1138 -0.0966
  160SAPE  C21017890   0.640   1.609   7.725  0.4205 -0.5450  0.0119
  160SAPE  H10R17891   0.608   1.716   7.727  1.9244 -0.0668 -0.6683
  160SAPE  H10S17892   0.740   1.602   7.773  0.1699  0.9288  0.7892
  160SAPE  C21117893   0.554   1.515   7.809  0.1371 -0.2894 -0.0250
  160SAPE  H11R17894   0.498   1.436   7.756  2.5913 -1.0812 -1.4900
  160SAPE  C21217895   0.554   1.525   7.943 -0.0350 -0.5146  0.0676
  160SAPE  H12R17896   0.511   1.446   8.007  0.0125 -0.5223  0.0910
  160SAPE  C21317897   0.633   1.628   8.024  0.0062 -0.0349  0.0500
  160SAPE  H13R17898   0.701   1.690   7.961  2.7190 -1.0000  1.9350
  160SAPE  H13S17899   0.709   1.578   8.087  0.2663 -2.7434 -2.2670
  160SAPE  C21417900   0.543   1.711   8.110  0.0910 -0.3928 -0.5341
  160SAPE  H14R17901   0.461   1.765   8.059 -1.6360 -1.0525  1.4468
  160SAPE  C21517902   0.527   1.710   8.248  0.6519  0.0999  0.1714
  160SAPE  H15R17903   0.459   1.779   8.301  0.1386  0.1841 -0.5828
  160SAPE  C21617904   0.613   1.625   8.337  0.2865 -0.4057 -0.4170
  160SAPE  H16R17905   0.700   1.679   8.382 -0.6209  2.0062 -1.4837
  160SAPE  H16S17906   0.643   1.534   8.280 -0.7018 -1.0949  0.1409
  160SAPE  C21717907   0.540   1.570   8.458  0.0468 -0.4196  0.3145
  160SAPE  H17R17908   0.437   1.554   8.420  0.7452  1.8693 -2.7677
  160SAPE  H17S17909   0.537   1.632   8.549  0.8550  1.8481 -1.1570
  160SAPE  C21817910   0.595   1.425   8.490  0.0526 -0.5145 -0.3169
  160SAPE  H18R17911   0.700   1.441   8.524 -0.3331  0.2055  0.5717
  160SAPE  H18S17912   0.600   1.371   8.393  1.0021 -2.7419  0.9206
  160SAPE  C21917913   0.516   1.361   8.597  0.2688  0.1808  0.6724
  160SAPE  H19R17914   0.422   1.316   8.559 -0.1284  0.3308  1.4664
  160SAPE  H19S17915   0.493   1.451   8.658 -1.5461  1.5548 -1.9140
  160SAPE  C22017916   0.592   1.264   8.687  0.5300 -0.5597  0.4287
  160SAPE  H20R17917   0.523   1.229   8.767 -1.8464  2.4749 -0.1505
  160SAPE  H20S17918   0.681   1.319   8.725  1.2098 -1.4475  0.1439
  160SAPE  H20T17919   0.627   1.179   8.624 -0.4751 -0.2426 -0.5861
  160SAPE   C3317920   1.174   1.707   7.191 -0.0493 -0.1706 -0.4683
  160SAPE   H3X17921   1.261   1.735   7.128  0.9090  1.4599  1.5021
  160SAPE   H3Y17922   1.150   1.599   7.182 -0.4128 -0.2516  1.2953
  160SAPE   C3417923   1.206   1.712   7.340  0.6711 -0.0365  0.0172
  160SAPE   H4X17924   1.231   1.818   7.365 -0.1966  0.3917 -0.8861
  160SAPE   H4Y17925   1.289   1.643   7.364  0.2049 -0.1121  1.4834
  160SAPE   C3517926   1.091   1.667   7.432 -0.0663  0.3292  0.0631
  160SAPE   H5X17927   1.052   1.568   7.401 -0.0514 -0.6478  3.0212
  160SAPE   H5Y17928   1.016   1.750   7.431 -1.0542 -0.5450  0.6572
  160SAPE   C3617929   1.140   1.646   7.577 -0.0001 -0.6578  0.4730
  160SAPE   H6X17930   1.219   1.719   7.606 -1.4730  1.4481 -0.7379
  160SAPE   H6Y17931   1.184   1.544   7.586  0.5329 -0.3743  1.1192
  160SAPE   C3717932   1.020   1.661   7.680 -0.4047 -0.1899  0.3296
  160SAPE   H7X17933   0.945   1.580   7.666  0.1173 -0.9922  2.0612
  160SAPE   H7Y17934   0.964   1.750   7.644  1.3421  0.4516 -0.8924
  160SAPE   C3817935   1.075   1.659   7.820  0.5224  0.4787 -0.1877
  160SAPE   H8X17936   1.144   1.573   7.834  0.2850  0.2843 -0.2115
  160SAPE   H8Y17937   0.987   1.646   7.887 -1.0670 -0.0957 -2.3455
  160SAPE   C3917938   1.122   1.803   7.868 -0.4545  0.6176  0.2227
  160SAPE   H9X17939   1.090   1.880   7.794 -1.9266 -0.1868  0.0148
  160SAPE   H9Y17940   1.232   1.797   7.878 -0.7003 -0.0023  3.0022
  160SAPE  C31017941   1.074   1.835   8.012 -0.0827 -0.4528 -0.4801
  160SAPE  H10X17942   1.113   1.750   8.072 -2.3870 -2.0031 -1.1202
  160SAPE  H10Y17943   0.964   1.840   8.026  0.1078  1.0622  0.6143
  160SAPE  C31117944   1.137   1.968   8.049  0.0168  0.0659  0.3651
  160SAPE  H11X17945   1.088   2.048   7.988 -0.6943  0.8463  1.9082
  160SAPE  H11Y17946   1.244   1.966   8.023  0.3968  0.4400  1.8424
  160SAPE  C31217947   1.093   2.003   8.197 -0.4450 -0.2335 -0.0996
  160SAPE  H12X17948   1.062   1.912   8.252  0.8408  0.4839  1.8697
  160SAPE  H12Y17949   1.007   2.072   8.185 -0.0623 -0.2004 -3.0578
  160SAPE  C31317950   1.211   2.073   8.271 -0.9945  0.8615  0.3743
  160SAPE  H13X17951   1.230   2.167   8.215  1.8590  1.2086  1.8618
  160SAPE  H13Y17952   1.302   2.015   8.243 -1.2105  0.8380 -0.3059
  160SAPE  C31417953   1.184   2.125   8.413  0.2804 -0.4205  0.2850
  160SAPE  H14X17954   1.151   2.047   8.485 -1.6389 -0.3140 -0.4525
  160SAPE  H14Y17955   1.101   2.197   8.405  1.5519  1.1820  1.2368
  160SAPE  C31517956   1.306   2.204   8.467 -0.4673 -0.3481 -0.0694
  160SAPE  H15X17957   1.319   2.295   8.403  0.7995 -1.0898 -0.8799
  160SAPE  H15Y17958   1.386   2.129   8.451  0.8886  0.7989  1.2323
  160SAPE  C31617959   1.288   2.245   8.612  0.3467  0.1637 -1.1592
  160SAPE  H16X17960   1.291   2.153   8.674 -0.3447  1.1402  0.3539
  160SAPE  H16Y17961   1.195   2.306   8.624  1.7181  2.1832 -0.5534
  160SAPE  C31717962   1.407   2.332   8.644  0.1954  0.2607  0.2676
  160SAPE  H17X17963   1.399   2.419   8.576 -0.0950 -0.1952 -0.2865
  160SAPE  H17Y17964   1.506   2.283   8.633 -0.0800 -0.7626  2.0493
  160SAPE  C31817965   1.412   2.390   8.787 -0.4250  0.4246 -0.0086
  160SAPE  H18X17966   1.504   2.452   8.798 -0.3414  0.0800  1.3885
  160SAPE  H18Y17967   1.418   2.309   8.863 -0.0986 -0.5420 -1.0546
  160SAPE  H18Z17968   1.322   2.452   8.807 -0.2520 -0.0594  2.4145
  161SOPE     N17969   6.278   3.147  10.813  0.4429  0.0071  0.2411
  161SOPE   HN117970   6.347   3.189  10.878  0.7132 -0.4995  0.2828
  161SOPE   HN217971   6.189   3.199  10.802 -0.0480 -0.9129 -0.1852
  161SOPE   HN317972   6.254   3.053  10.851 -1.9120 -0.0990 -1.4220
  161SOPE   C1217973   6.342   3.150  10.684 -0.2209 -0.0804  0.1971
  161SOPE  H12A17974   6.411   3.064  10.673 -0.6384 -0.3746 -0.1367
  161SOPE  H12B17975   6.394   3.248  10.679 -2.3560  1.0389 -0.9162
  161SOPE   C1117976   6.237   3.131  10.571  0.5706 -0.1700 -0.6054
  161SOPE  H11A17977   6.175   3.041  10.587  2.2926 -0.8902  2.2215
  161SOPE  H11B17978   6.296   3.116  10.477  1.0147  1.5142 -0.6160
  161SOPE     P17979   6.023   3.280  10.614  0.2319 -0.0472 -0.2140
  161SOPE   O1317980   6.011   3.422  10.589  0.3473 -0.1212 -0.3348
  161SOPE   O1417981   6.029   3.233  10.755  0.1848  0.1559 -0.5277
  161SOPE   O1217982   6.163   3.250  10.545  0.6101  0.2599 -0.3788
  161SOPE   O1117983   5.910   3.186  10.538  0.3477 -0.0139 -0.0172
  161SOPE    C117984   5.906   3.214  10.401  0.2628  0.0260 -0.1629
  161SOPE    HA17985   5.906   3.117  10.347  1.0553 -0.5694  0.8964
  161SOPE    HB17986   5.999   3.256  10.359 -0.5437  2.3013  0.2662
  161SOPE    C217987   5.781   3.294  10.359  0.5512 -0.4976  0.7196
  161SOPE    HS17988   5.764   3.376  10.431 -1.3054 -0.1879 -0.0547
  161SOPE   O2117989   5.674   3.205  10.343  0.0812 -0.4319  0.5067
  161SOPE   C2117990   5.554   3.258  10.366 -0.6168 -0.4263  0.0563
  161SOPE   O2217991   5.541   3.376  10.404  0.0854 -0.7455  0.4380
  161SOPE   C2217992   5.445   3.165  10.329  0.5743 -0.0639 -0.2011
  161SOPE   H2R17993   5.407   3.145  10.431  1.8359  0.1548  0.3121
  161SOPE   H2S17994   5.475   3.063  10.294 -2.6977 -0.7625 -1.1429
  161SOPE    C317995   5.801   3.379  10.226 -0.5753 -0.8872  0.2807
  161SOPE    HX17996   5.876   3.460  10.236  0.2128 -1.6508  0.6705
  161SOPE    HY17997   5.709   3.428  10.189 -0.5569 -0.3925  0.8756
  161SOPE   O3117998   5.841   3.288  10.128 -0.2394 -0.4882 -0.2361
  161SOPE   C3117999   5.860   3.338  10.006 -0.0985 -0.3204 -0.3853
  161SOPE   O3218000   5.861   3.454   9.976  0.2704 -0.5089 -0.6797
  161SOPE   C3218001   5.860   3.219   9.908  0.0986 -0.3810  0.7822
  161SOPE   H2X18002   5.769   3.162   9.938  0.7661 -0.9844  1.6776
  161SOPE   H2Y18003   5.948   3.154   9.926  0.4301 -0.2427 -0.3077
  161SOPE   C2318004   5.336   3.230  10.245 -0.3630 -0.1497 -0.0156
  161SOPE   H3R18005   5.319   3.333  10.285  3.5149  0.7201 -0.3708
  161SOPE   H3S18006   5.238   3.177  10.244 -0.4518 -0.0016 -2.3817
  161SOPE   C2418007   5.383   3.240  10.102 -0.5404  0.3477 -0.0234
  161SOPE   H4R18008   5.305   3.298  10.049  0.2325  1.0831 -0.3630
  161SOPE   H4S18009   5.484   3.287  10.095 -0.2729 -0.3861 -1.0351
  161SOPE   C2518010   5.376   3.099  10.029 -0.6338  0.4199 -0.1096
  161SOPE   H5R18011   5.438   3.027  10.086  2.1666  1.5144 -1.6421
  161SOPE   H5S18012   5.275   3.058  10.047 -0.4272  0.3204  0.8489
  161SOPE   C2618013   5.424   3.106   9.881 -0.1059 -0.0237  0.0158
  161SOPE   H6R18014   5.350   3.174   9.835 -1.7746 -1.2649  0.7930
  161SOPE   H6S18015   5.528   3.144   9.880 -0.1710  0.1416 -1.9609
  161SOPE   C2718016   5.415   2.972   9.806 -0.2349 -0.8181  0.4672
  161SOPE   H7R18017   5.478   2.905   9.869  1.1967  1.5533  1.6453
  161SOPE   H7S18018   5.313   2.929   9.813  0.8919 -3.9751 -1.5094
  161SOPE   C2818019   5.465   2.977   9.663 -0.4311 -0.0051  0.6179
  161SOPE   H8R18020   5.565   3.024   9.670  0.8352 -2.3271 -0.8462
  161SOPE   H8S18021   5.471   2.870   9.630  1.0455 -0.6018  2.7217
  161SOPE   C2918022   5.383   3.066   9.576 -0.6039 -0.7363 -0.5412
  161SOPE   H9118023   5.348   3.160   9.621  0.8145 -0.2369 -0.4742
  161SOPE  C21018024   5.344   3.040   9.448  0.6252 -0.4141  0.0754
  161SOPE  H10118025   5.276   3.112   9.400  0.9084  0.2019  0.5927
  161SOPE  C21118026   5.380   2.917   9.370  0.6344  0.4941 -0.2350
  161SOPE  H11R18027   5.301   2.887   9.297 -1.0402  2.5157  0.6653
  161SOPE  H11S18028   5.384   2.834   9.443  0.7593  0.3869 -0.3655
  161SOPE  C21218029   5.520   2.920   9.307 -0.0283 -0.0833 -0.2596
  161SOPE  H12R18030   5.597   2.921   9.387 -0.8619  1.0232  0.5556
  161SOPE  H12S18031   5.550   3.021   9.274  0.9265 -0.3504 -0.2223
  161SOPE  C21318032   5.559   2.829   9.187  0.5970  0.5044 -0.3056
  161SOPE  H13R18033   5.670   2.830   9.178  0.4484 -0.6180 -2.8311
  161SOPE  H13S18034   5.535   2.868   9.086  0.1151  1.3242  0.1246
  161SOPE  C21418035   5.502   2.685   9.196  0.1265  0.1622  0.3317
  161SOPE  H14R18036   5.391   2.686   9.204 -0.0953  1.2392 -2.3089
  161SOPE  H14S18037   5.552   2.641   9.285 -0.4762 -0.9444  0.1366
  161SOPE  C21518038   5.516   2.589   9.078  0.0031 -0.0221 -0.0688
  161SOPE  H15R18039   5.467   2.492   9.103  2.6822 -1.4706 -0.3204
  161SOPE  H15S18040   5.619   2.569   9.044 -0.2549  1.4580 -1.7866
  161SOPE  C21618041   5.432   2.647   8.959 -0.2759 -0.0678  0.7245
  161SOPE  H16R18042   5.469   2.750   8.940 -1.1981  0.5989  2.4078
  161SOPE  H16S18043   5.325   2.656   8.990 -0.5329  1.3941 -0.5400
  161SOPE  C21718044   5.425   2.562   8.833  0.6454  0.6620  0.2053
  161SOPE  H17R18045   5.375   2.465   8.852 -1.6239  1.4467 -1.6785
  161SOPE  H17S18046   5.532   2.537   8.813  1.0797  2.6079  0.0464
  161SOPE  C21818047   5.349   2.630   8.715 -0.0885  0.0611  0.1240
  161SOPE  H18R18048   5.362   2.573   8.621 -2.1927 -1.0355  0.4633
  161SOPE  H18S18049   5.380   2.736   8.716  1.3768 -0.3533 -0.5456
  161SOPE  H18T18050   5.239   2.632   8.734 -0.3091 -2.9774 -0.5661
  161SOPE   C3318051   5.850   3.274   9.765  0.3838  0.4575 -0.5304
  161SOPE   H3X18052   5.950   3.319   9.746  1.0159  0.1858  1.9666
  161SOPE   H3Y18053   5.766   3.348   9.767 -1.5876 -1.6963 -1.7296
  161SOPE   C3418054   5.837   3.164   9.662 -0.0155  0.4578  0.5066
  161SOPE   H4X18055   5.758   3.096   9.700 -1.6365  2.3847  0.6380
  161SOPE   H4Y18056   5.936   3.114   9.655  0.0428  0.4838  1.1246
  161SOPE   C3518057   5.789   3.211   9.522 -0.6474  0.6914 -0.1087
  161SOPE   H5X18058   5.693   3.260   9.551  1.1795  4.1202  0.4695
  161SOPE   H5Y18059   5.771   3.113   9.474  0.9683  0.2688  0.1223
  161SOPE   C3618060   5.887   3.305   9.459  0.0294  0.5220 -0.3267
  161SOPE   H6X18061   5.987   3.259   9.444 -1.2848 -2.3130 -0.7348
  161SOPE   H6Y18062   5.889   3.400   9.516 -0.4121 -0.2452  0.9884
  161SOPE   C3718063   5.841   3.353   9.317 -0.0014  0.4057  0.0456
  161SOPE   H7X18064   5.922   3.419   9.279  1.7168 -0.9228  1.2727
  161SOPE   H7Y18065   5.754   3.421   9.326  1.7774  2.6506  0.7411
  161SOPE   C3818066   5.814   3.245   9.218  0.4088  0.5584  0.0317
  161SOPE   H8X18067   5.730   3.182   9.253  0.1805  1.0160  0.3045
  161SOPE   H8Y18068   5.902   3.178   9.201 -1.1723 -1.4997 -0.2943
  161SOPE   C3918069   5.773   3.299   9.085  1.0073 -0.9852 -0.4606
  161SOPE   H9X18070   5.860   3.354   9.043  0.0035  0.9765 -0.0674
  161SOPE   H9Y18071   5.693   3.376   9.095  1.5996  0.0152 -2.9650
  161SOPE  C31018072   5.738   3.178   8.983 -0.5064  0.2938 -0.3384
  161SOPE  H10X18073   5.708   3.248   8.903 -0.6609  0.1077 -0.4418
  161SOPE  H10Y18074   5.657   3.114   9.023  0.4442  0.5000  2.0346
  161SOPE  C31118075   5.856   3.089   8.937  0.1265 -0.0882 -0.3001
  161SOPE  H11X18076   5.882   2.999   8.997  0.5482  0.2109 -0.0284
  161SOPE  H11Y18077   5.943   3.158   8.939  0.2213 -0.2325  2.0092
  161SOPE  C31218078   5.831   3.044   8.794  0.2324 -0.9094 -0.8535
  161SOPE  H12X18079   5.922   2.985   8.769  1.1116  0.9518 -2.1082
  161SOPE  H12Y18080   5.818   3.134   8.731  0.6899  0.1945  0.6030
  161SOPE  C31318081   5.701   2.959   8.771 -0.8758  0.3001  0.3563
  161SOPE  H13X18082   5.619   3.027   8.802 -2.5615 -0.8435 -1.4782
  161SOPE  H13Y18083   5.718   2.870   8.835  0.2648  0.0515 -0.2712
  161SOPE  C31418084   5.669   2.920   8.621 -0.5691 -0.3973  0.0977
  161SOPE  H14X18085   5.649   3.015   8.567  0.9692  0.0859  0.3310
  161SOPE  H14Y18086   5.572   2.867   8.618 -0.2560 -0.8697 -3.6857
  161SOPE  C31518087   5.784   2.845   8.554 -0.5227 -0.6704  0.0708
  161SOPE  H15X18088   5.799   2.752   8.613 -0.9446 -2.3568 -2.4336
  161SOPE  H15Y18089   5.885   2.892   8.546 -0.9984  0.0382 -2.0552
  161SOPE  C31618090   5.744   2.798   8.417 -0.0458  0.5994 -0.7377
  161SOPE  H16X18091   5.635   2.776   8.412 -0.0939  0.1907  1.5178
  161SOPE  H16Y18092   5.802   2.706   8.393 -0.4366  0.8709 -2.8058
  161SOPE  C31718093   5.798   2.889   8.302  0.1301 -0.3861  0.2821
  161SOPE  H17X18094   5.906   2.878   8.282  0.2723  0.9240  0.3077
  161SOPE  H17Y18095   5.782   2.993   8.338 -1.5463 -0.7524  0.6272
  161SOPE  C31818096   5.718   2.885   8.175  0.3605 -0.8042 -0.0642
  161SOPE  H18X18097   5.781   2.825   8.107  1.0389 -0.9701  0.7080
  161SOPE  H18Y18098   5.704   2.989   8.136 -0.3018 -0.4147  1.1885
  161SOPE  H18Z18099   5.616   2.844   8.191 -0.1184  0.0421 -0.8765
  162SOPE     N18100   4.445   2.842  11.023 -0.0784 -0.6557 -0.3278
  162SOPE   HN118101   4.511   2.783  11.078  1.4752  2.1753  0.9888
  162SOPE   HN218102   4.462   2.821  10.923  1.2266 -1.1044 -0.0267
  162SOPE   HN318103   4.466   2.942  11.042  3.2190 -1.7608  2.2994
  162SOPE   C1218104   4.303   2.816  11.074  0.7474  0.2258  0.5217
  162SOPE  H12A18105   4.306   2.834  11.184 -3.2233 -0.9481  0.8942
  162SOPE  H12B18106   4.287   2.707  11.057  1.3458  0.1740  0.3001
  162SOPE   C1118107   4.197   2.903  10.999 -0.2234 -0.1000 -0.4602
  162SOPE  H11A18108   4.103   2.857  11.036 -0.3759  0.1474 -0.5421
  162SOPE  H11B18109   4.202   2.881  10.890  1.8329  0.5073 -0.5072
  162SOPE     P18110   4.279   3.144  10.940 -0.1561  0.1832  0.1735
  162SOPE   O1318111   4.420   3.108  10.935 -0.9285  0.0719 -0.0491
  162SOPE   O1418112   4.243   3.280  10.977  0.2110 -0.3332 -0.5183
  162SOPE   O1218113   4.209   3.039  11.042 -0.0759  0.1704  0.0481
  162SOPE   O1118114   4.216   3.106  10.797 -0.0191 -0.3891  0.0584
  162SOPE    C118115   4.073   3.130  10.785  0.1582  0.4147  0.5247
  162SOPE    HA18116   4.052   3.235  10.814 -1.9087 -0.9806  4.4229
  162SOPE    HB18117   4.013   3.068  10.854  0.7000  1.2836  1.7910
  162SOPE    C218118   4.035   3.107  10.636  0.8484 -0.0919 -0.1505
  162SOPE    HS18119   4.067   3.001  10.626  0.7191 -0.3305  1.7935
  162SOPE   O2118120   4.099   3.194  10.540  1.1227  0.6145 -0.3634
  162SOPE   C2118121   4.122   3.131  10.423  0.3357  0.7717 -0.4848
  162SOPE   O2218122   4.092   3.018  10.402  0.3199  0.1262  0.1793
  162SOPE   C2218123   4.196   3.224  10.323 -0.0920  0.3678  0.0734
  162SOPE   H2R18124   4.216   3.159  10.235 -1.2175 -1.3031  1.0285
  162SOPE   H2S18125   4.292   3.254  10.369  0.2856  1.8076 -1.6213
  162SOPE    C318126   3.883   3.123  10.625  0.9670  0.6311  0.6495
  162SOPE    HX18127   3.864   3.229  10.653 -2.0649  0.0482  0.9063
  162SOPE    HY18128   3.823   3.063  10.696 -0.2594  2.2079  0.9924
  162SOPE   O3118129   3.826   3.114  10.493  1.1024  0.1255 -0.1287
  162SOPE   C3118130   3.793   2.992  10.445  0.7056 -0.2392  0.1999
  162SOPE   O3218131   3.812   2.891  10.506  0.5033 -0.4996 -0.3538
  162SOPE   C3218132   3.716   3.006  10.311  0.2549 -0.4436  0.5248
  162SOPE   H2X18133   3.732   3.106  10.266  2.3905 -0.4211  1.3124
  162SOPE   H2Y18134   3.608   3.002  10.339 -0.5144 -1.5280 -2.3875
  162SOPE   C2318135   4.111   3.355  10.298  0.0425 -0.0687 -0.5546
  162SOPE   H3R18136   4.177   3.420  10.238  1.8743 -0.9195  0.5137
  162SOPE   H3S18137   4.078   3.402  10.393 -1.1176 -2.9665  0.5482
  162SOPE   C2418138   3.986   3.328  10.207 -0.7032 -0.7031 -0.7513
  162SOPE   H4R18139   3.976   3.218  10.194  0.3481 -1.3138  2.9682
  162SOPE   H4S18140   3.895   3.363  10.260  0.9986  1.3049  0.8828
  162SOPE   C2518141   4.003   3.387  10.065  0.8443  0.3274 -0.5254
  162SOPE   H5R18142   4.003   3.497  10.078 -1.0025  0.4856 -1.7524
  162SOPE   H5S18143   4.105   3.350  10.040  2.4881  2.3010  2.8597
  162SOPE   C2618144   3.902   3.338   9.964 -0.2672  0.0505  0.0228
  162SOPE   H6R18145   3.894   3.227   9.963 -1.9790  0.1837 -1.0361
  162SOPE   H6S18146   3.803   3.376   9.996  0.8054  0.2849  3.2423
  162SOPE   C2718147   3.936   3.380   9.818 -0.1056  0.1769  0.7337
  162SOPE   H7R18148   3.938   3.491   9.820 -0.0930  0.1694  1.0623
  162SOPE   H7S18149   4.043   3.356   9.799 -0.7533 -1.6268 -0.8372
  162SOPE   C2818150   3.841   3.322   9.707  1.0596  0.2607  0.3018
  162SOPE   H8R18151   3.737   3.349   9.735  1.3567  2.0373 -0.2851
  162SOPE   H8S18152   3.873   3.382   9.620  2.2515  0.9442  1.1910
  162SOPE   C2918153   3.845   3.171   9.695  0.1336 -0.0037  0.7133
  162SOPE   H9118154   3.837   3.121   9.793  2.6216 -1.7891  0.0578
  162SOPE  C21018155   3.862   3.097   9.588  0.6867  0.3372  0.7490
  162SOPE  H10118156   3.847   2.988   9.597  0.7090  0.2766  0.0800
  162SOPE  C21118157   3.878   3.155   9.451  0.4684 -0.8380 -0.4108
  162SOPE  H11R18158   3.972   3.213   9.451  0.4288 -0.7676  1.4298
  162SOPE  H11S18159   3.786   3.213   9.427 -0.3382 -1.5952  0.8025
  162SOPE  C21218160   3.893   3.045   9.351 -0.3795  0.1095 -0.3321
  162SOPE  H12R18161   3.795   2.993   9.346 -0.5562  0.4300 -0.2523
  162SOPE  H12S18162   3.967   2.969   9.384 -2.0605 -1.9834 -1.2841
  162SOPE  C21318163   3.922   3.090   9.212 -0.6153  0.1486 -0.4946
  162SOPE  H13R18164   3.991   3.176   9.226 -1.4669  0.6147  0.9504
  162SOPE  H13S18165   3.835   3.121   9.150 -0.8231 -0.3602 -0.4606
  162SOPE  C21418166   3.990   2.983   9.128 -0.2221 -0.0331  0.0325
  162SOPE  H14R18167   3.929   2.890   9.122 -0.3824  0.2111 -2.7319
  162SOPE  H14S18168   4.088   2.954   9.173 -1.4118  0.6404  3.1777
  162SOPE  C21518169   4.037   3.025   8.986  0.2470  0.0892 -0.6529
  162SOPE  H15R18170   4.103   3.114   8.992 -0.0347  0.5202 -3.3073
  162SOPE  H15S18171   3.951   3.069   8.931  0.6497  3.3012  1.1888
  162SOPE  C21618172   4.078   2.900   8.904  0.9460 -0.6230 -0.0069
  162SOPE  H16R18173   3.995   2.826   8.896  0.3546  0.2496 -2.2700
  162SOPE  H16S18174   4.152   2.839   8.961 -0.5032 -1.2668  1.2552
  162SOPE  C21718175   4.112   2.928   8.763  0.2985  0.3986  0.3021
  162SOPE  H17R18176   4.203   2.990   8.765  0.0170  0.8312 -0.1164
  162SOPE  H17S18177   4.024   2.981   8.720  0.0675 -0.5204 -0.3747
  162SOPE  C21818178   4.135   2.807   8.672 -0.1244 -0.8435  0.6272
  162SOPE  H18R18179   4.208   2.734   8.714  1.6266  0.6007  0.1553
  162SOPE  H18S18180   4.160   2.836   8.567  0.2095 -3.4459 -0.0450
  162SOPE  H18T18181   4.035   2.767   8.643 -1.0161  1.3900  0.5009
  162SOPE   C3318182   3.743   2.898  10.197  0.2634  0.4385  0.5338
  162SOPE   H3X18183   3.654   2.906  10.131 -0.8360 -0.0020  1.9504
  162SOPE   H3Y18184   3.739   2.802  10.252 -2.1572  0.5262  0.5550
  162SOPE   C3418185   3.879   2.921  10.129  0.5942 -0.2300 -0.0470
  162SOPE   H4X18186   3.972   2.933  10.188  0.3029  0.9052  0.2015
  162SOPE   H4Y18187   3.859   3.020  10.082 -1.1042 -0.5541 -0.0482
  162SOPE   C3518188   3.892   2.830  10.006  0.9064 -0.1044 -0.1556
  162SOPE   H5X18189   3.790   2.837   9.962  0.8329  1.7907  0.2599
  162SOPE   H5Y18190   3.903   2.733  10.058  0.2005  0.6087  1.3785
  162SOPE   C3618191   3.994   2.864   9.896  0.0670  0.1077 -0.0256
  162SOPE   H6X18192   4.102   2.875   9.919 -0.0396  4.0246 -1.0867
  162SOPE   H6Y18193   3.971   2.961   9.847 -0.1681  0.6436  1.1072
  162SOPE   C3718194   3.994   2.757   9.788  0.1620 -0.1091 -0.1995
  162SOPE   H7X18195   3.894   2.746   9.741  2.0437 -1.7473 -4.0751
  162SOPE   H7Y18196   4.024   2.655   9.823  1.2795 -0.2263 -1.4379
  162SOPE   C3818197   4.087   2.783   9.666 -0.8879  0.1300 -0.3305
  162SOPE   H8X18198   4.194   2.805   9.686 -0.5071 -1.9712  0.0983
  162SOPE   H8Y18199   4.042   2.873   9.619  0.6910  0.4075 -1.3506
  162SOPE   C3918200   4.078   2.662   9.570  0.2788 -0.2310  0.3482
  162SOPE   H9X18201   3.973   2.637   9.546  0.9239 -3.3164  0.5211
  162SOPE   H9Y18202   4.115   2.581   9.637 -1.1349 -2.2794 -1.3039
  162SOPE  C31018203   4.151   2.684   9.436  0.1240  0.2331 -0.6703
  162SOPE  H10X18204   4.260   2.682   9.457  0.6422 -1.0322 -3.1985
  162SOPE  H10Y18205   4.127   2.777   9.381 -1.9526 -0.6373 -1.2868
  162SOPE  C31118206   4.121   2.569   9.344 -0.6828 -0.1684  0.1905
  162SOPE  H11X18207   4.012   2.547   9.344 -1.2071  2.3344 -0.1775
  162SOPE  H11Y18208   4.171   2.479   9.386  2.5837  1.7798  0.6031
  162SOPE  C31218209   4.157   2.582   9.197 -0.1283 -0.6052  0.7868
  162SOPE  H12X18210   4.267   2.588   9.210  0.0164  2.1843 -1.1961
  162SOPE  H12Y18211   4.111   2.674   9.154 -1.0615 -1.4269  0.0056
  162SOPE  C31318212   4.096   2.476   9.102  0.7026  0.3852  0.1732
  162SOPE  H13X18213   3.985   2.481   9.095  0.5322  0.6037  2.6514
  162SOPE  H13Y18214   4.119   2.376   9.145 -2.7321  0.1596  1.6950
  162SOPE  C31418215   4.163   2.479   8.966 -1.0367 -0.5372  0.8175
  162SOPE  H14X18216   4.143   2.575   8.914  0.4562  0.2726  1.7088
  162SOPE  H14Y18217   4.111   2.403   8.905 -3.1083  1.0633  0.5359
  162SOPE  C31518218   4.313   2.446   8.956 -0.8234 -0.6373 -0.7163
  162SOPE  H15X18219   4.335   2.346   9.000  1.4244 -0.0362 -0.3703
  162SOPE  H15Y18220   4.382   2.517   9.006  0.1042 -1.6668 -0.4887
  162SOPE  C31618221   4.356   2.449   8.810 -0.2378 -0.0881 -0.2226
  162SOPE  H16X18222   4.338   2.554   8.778  0.3615 -0.0021 -0.2891
  162SOPE  H16Y18223   4.290   2.403   8.734 -0.6825  0.9849 -0.4934
  162SOPE  C31718224   4.497   2.407   8.777  0.1860 -0.6882 -0.3980
  162SOPE  H17X18225   4.577   2.469   8.822  0.5728 -0.7167 -1.0345
  162SOPE  H17Y18226   4.516   2.430   8.670 -1.1923  2.1520 -0.0973
  162SOPE  C31818227   4.532   2.259   8.794 -0.2047  0.0778 -0.0992
  162SOPE  H18X18228   4.555   2.226   8.898 -3.2958 -0.4597  0.4869
  162SOPE  H18Y18229   4.612   2.232   8.722 -0.6865 -1.5101 -0.0631
  162SOPE  H18Z18230   4.448   2.189   8.769  0.2736 -0.9425  1.0694
  163SOPE     N18231   5.020   0.342  11.016 -0.0732 -0.3717 -0.5213
  163SOPE   HN118232   5.028   0.290  11.105 -1.6049  0.5673  0.1821
  163SOPE   HN218233   5.005   0.439  11.049  0.6141 -0.4525  0.0351
  163SOPE   HN318234   4.932   0.309  10.972 -2.1343  1.4551  2.1139
  163SOPE   C1218235   5.143   0.340  10.930  0.3840  0.5435 -0.4334
  163SOPE  H12A18236   5.140   0.237  10.888 -0.7323 -0.9681  3.1745
  163SOPE  H12B18237   5.226   0.360  11.001  0.2469 -0.3266 -0.0130
  163SOPE   C1118238   5.146   0.447  10.819 -0.1547 -0.0908 -0.2747
  163SOPE  H11A18239   5.056   0.422  10.759 -0.0901 -2.3820  0.5367
  163SOPE  H11B18240   5.233   0.423  10.753  0.4718  0.5620  0.2915
  163SOPE     P18241   5.293   0.659  10.871  0.2017  0.2862  0.4492
  163SOPE   O1318242   5.395   0.567  10.917  0.0024 -0.4658  0.2235
  163SOPE   O1418243   5.275   0.780  10.954 -0.3449 -0.2055  0.1818
  163SOPE   O1218244   5.152   0.584  10.865  0.3801  0.3511 -1.0877
  163SOPE   O1118245   5.323   0.693  10.717 -0.1926 -0.0115  0.4961
  163SOPE    C118246   5.227   0.770  10.646  0.3842  0.1027  0.8496
  163SOPE    HA18247   5.198   0.866  10.693  0.1913  1.4861 -1.9648
  163SOPE    HB18248   5.133   0.710  10.650 -0.2601  1.0625  0.3409
  163SOPE    C218249   5.272   0.803  10.507 -0.3956 -0.9029 -0.1257
  163SOPE    HS18250   5.202   0.864  10.447  1.1490 -2.4567 -3.6922
  163SOPE   O2118251   5.294   0.678  10.436 -0.3760  0.0410 -0.0238
  163SOPE   C2118252   5.193   0.622  10.396 -0.4493  0.0521  0.6900
  163SOPE   O2218253   5.080   0.671  10.384  0.6426 -0.3921  0.5920
  163SOPE   C2218254   5.227   0.473  10.362  0.5879 -0.5599  0.0945
  163SOPE   H2R18255   5.160   0.409  10.423  1.0989 -1.2287 -0.0397
  163SOPE   H2S18256   5.331   0.461  10.400  0.6896 -0.3982 -0.1243
  163SOPE    C318257   5.408   0.873  10.507  0.6729  0.3400  0.0045
  163SOPE    HX18258   5.482   0.826  10.575  0.0938 -0.5577  0.0362
  163SOPE    HY18259   5.391   0.964  10.569 -0.3118 -1.0296  1.8108
  163SOPE   O3118260   5.463   0.897  10.380  0.0346  0.1897  0.1131
  163SOPE   C3118261   5.569   0.823  10.343  0.3400 -0.9482  0.6301
  163SOPE   O3218262   5.630   0.742  10.410 -0.7334  0.6892  0.0848
  163SOPE   C3218263   5.608   0.868  10.199 -0.2516 -0.6669  1.0509
  163SOPE   H2X18264   5.719   0.861  10.204 -0.3682 -1.3612  2.8390
  163SOPE   H2Y18265   5.580   0.974  10.184  0.2732 -0.4563  1.5647
  163SOPE   C2318266   5.222   0.437  10.214  0.4737  0.0851 -0.0454
  163SOPE   H3R18267   5.118   0.427  10.176  1.0751 -1.6086 -1.2739
  163SOPE   H3S18268   5.268   0.336  10.208 -1.8990 -0.9920 -0.8646
  163SOPE   C2418269   5.301   0.526  10.123 -0.7793 -0.2566  0.0381
  163SOPE   H4R18270   5.257   0.628  10.129 -2.5673 -1.0076  0.1985
  163SOPE   H4S18271   5.405   0.533  10.162 -0.2804  0.6971 -1.4352
  163SOPE   C2518272   5.305   0.471   9.977 -0.7043 -0.5624 -0.2404
  163SOPE   H5R18273   5.362   0.540   9.912  1.4906  0.3730  2.5482
  163SOPE   H5S18274   5.361   0.376   9.972 -0.2487 -0.4109  1.4427
  163SOPE   C2618275   5.163   0.452   9.915  0.2818 -0.2829 -0.3170
  163SOPE   H6R18276   5.125   0.348   9.927  3.0119 -1.0974  1.7740
  163SOPE   H6S18277   5.104   0.512   9.987  1.5080  0.1075  0.3750
  163SOPE   C2718278   5.150   0.504   9.772 -0.5708 -0.1320 -1.1518
  163SOPE   H7R18279   5.196   0.605   9.766 -0.7899 -0.0263 -1.0382
  163SOPE   H7S18280   5.209   0.439   9.703  1.8992  0.3844  0.4079
  163SOPE   C2818281   5.009   0.530   9.719 -0.2302  0.2130 -0.0417
  163SOPE   H8R18282   4.972   0.610   9.787 -0.3046  1.2736 -1.2973
  163SOPE   H8S18283   5.009   0.572   9.616 -3.2173 -0.6964 -0.4640
  163SOPE   C2918284   4.916   0.413   9.709 -1.2541 -0.2885  0.4074
  163SOPE   H9118285   4.901   0.367   9.808  1.1189  0.6086  1.2125
  163SOPE  C21018286   4.842   0.373   9.606 -0.2294 -1.1843 -0.2925
  163SOPE  H10118287   4.781   0.282   9.614  0.8135 -1.8991 -0.4205
  163SOPE  C21118288   4.835   0.429   9.463  0.5416  0.6504 -0.3433
  163SOPE  H11R18289   4.933   0.411   9.415  0.3428  1.0477 -0.9058
  163SOPE  H11S18290   4.824   0.539   9.479 -2.0453 -0.0385  3.3192
  163SOPE  C21218291   4.720   0.383   9.373 -0.5834  0.0313 -0.5953
  163SOPE  H12R18292   4.720   0.441   9.279  0.0474  2.2744  0.7483
  163SOPE  H12S18293   4.621   0.397   9.423 -1.1592  0.2900 -1.7987
  163SOPE  C21318294   4.732   0.236   9.356 -0.2208  0.5266  0.1221
  163SOPE  H13R18295   4.740   0.188   9.456  2.1878  1.3010  0.3401
  163SOPE  H13S18296   4.826   0.211   9.304  0.0652 -0.7391  1.2384
  163SOPE  C21418297   4.615   0.173   9.278 -0.3856 -0.7248  0.4715
  163SOPE  H14R18298   4.587   0.238   9.193  1.3568  0.4421  0.7561
  163SOPE  H14S18299   4.527   0.173   9.346 -0.5395  1.2142  0.3054
  163SOPE  C21518300   4.650   0.032   9.223 -0.6828 -0.2509  0.1501
  163SOPE  H15R18301   4.664  -0.039   9.307 -1.5391  1.4161  1.7343
  163SOPE  H15S18302   4.743   0.055   9.168 -0.5418  0.0901  0.5268
  163SOPE  C21618303   4.538  -0.024   9.129  0.1759  0.4729 -0.0494
  163SOPE  H16R18304   4.492   0.055   9.066 -3.7909 -1.4674  0.2679
  163SOPE  H16S18305   4.464  -0.060   9.204  0.4284 -3.5116 -1.5662
  163SOPE  C21718306   4.585  -0.143   9.052  0.2405  0.6478  0.4058
  163SOPE  H17R18307   4.588  -0.236   9.112  0.8537 -0.5134 -1.3934
  163SOPE  H17S18308   4.684  -0.116   9.010  0.7145 -0.9778  0.4374
  163SOPE  C21818309   4.487  -0.179   8.946 -0.5820 -0.4156  0.0710
  163SOPE  H18R18310   4.537  -0.237   8.865  3.4250  1.5403  1.0110
  163SOPE  H18S18311   4.428  -0.089   8.919 -2.7655 -1.3742  1.4367
  163SOPE  H18T18312   4.403  -0.245   8.975 -2.5217  1.3699 -1.3301
  163SOPE   C3318313   5.561   0.759  10.083 -0.2571 -0.2169  0.0077
  163SOPE   H3X18314   5.452   0.770  10.064 -0.5984 -1.0116  1.4691
  163SOPE   H3Y18315   5.575   0.661  10.134  0.1049 -1.1590 -1.8449
  163SOPE   C3418316   5.636   0.770   9.951  0.0014  0.0028 -0.0717
  163SOPE   H4X18317   5.743   0.758   9.980  0.7949  1.3744 -2.3001
  163SOPE   H4Y18318   5.629   0.873   9.909 -1.1538 -0.2862 -0.6070
  163SOPE   C3518319   5.600   0.683   9.837  0.1851 -0.3595 -0.2285
  163SOPE   H5X18320   5.579   0.587   9.888 -2.2775  0.8357  1.1034
  163SOPE   H5Y18321   5.686   0.660   9.771 -0.0623 -1.3504 -0.2134
  163SOPE   C3618322   5.488   0.737   9.752  0.3929 -0.2894  0.1079
  163SOPE   H6X18323   5.523   0.833   9.708 -1.7940  0.2339 -0.5349
  163SOPE   H6Y18324   5.401   0.767   9.814 -1.2104  0.3227 -2.3457
  163SOPE   C3718325   5.449   0.634   9.648  1.1260 -0.4360  0.8244
  163SOPE   H7X18326   5.351   0.664   9.606  2.7229  2.5914 -0.9562
  163SOPE   H7Y18327   5.433   0.537   9.701 -1.0437 -2.2507 -2.9989
  163SOPE   C3818328   5.544   0.619   9.527 -0.0571 -0.0867 -0.4734
  163SOPE   H8X18329   5.641   0.574   9.556  0.2485  0.8135 -0.0746
  163SOPE   H8Y18330   5.569   0.722   9.494 -2.5899  1.2465  1.5371
  163SOPE   C3918331   5.473   0.545   9.409  0.0903 -0.7206  0.3305
  163SOPE   H9X18332   5.376   0.592   9.383  0.7179 -0.2223 -1.1781
  163SOPE   H9Y18333   5.458   0.442   9.446  1.0897 -0.7017  0.8092
  163SOPE  C31018334   5.559   0.563   9.291 -0.1149  0.6306 -0.3866
  163SOPE  H10X18335   5.643   0.491   9.297  0.7801  1.6236 -0.8931
  163SOPE  H10Y18336   5.609   0.662   9.290  2.4710 -0.6359 -1.6112
  163SOPE  C31118337   5.480   0.543   9.163 -0.9889 -0.1313 -0.3014
  163SOPE  H11X18338   5.405   0.625   9.153  0.2661  0.9047 -1.5340
  163SOPE  H11Y18339   5.426   0.447   9.151  0.3725 -0.9619  0.0937
  163SOPE  C31218340   5.563   0.555   9.033 -0.0827  0.2411 -1.1734
  163SOPE  H12X18341   5.619   0.459   9.026 -2.1862 -1.0118 -1.2558
  163SOPE  H12Y18342   5.633   0.641   9.031  1.5980 -1.1087 -0.9693
  163SOPE  C31318343   5.466   0.563   8.913 -0.1044 -0.1333 -0.2599
  163SOPE  H13X18344   5.416   0.662   8.913  1.8453  0.8836  0.5702
  163SOPE  H13Y18345   5.394   0.480   8.932  0.9928 -0.5757  2.2228
  163SOPE  C31418346   5.531   0.552   8.766 -0.0048 -0.3482 -0.3193
  163SOPE  H14X18347   5.620   0.485   8.768 -0.4814 -0.9723  0.1837
  163SOPE  H14Y18348   5.592   0.644   8.746  0.1939 -0.5083 -0.4562
  163SOPE  C31518349   5.441   0.521   8.654 -0.4738 -1.0620 -0.1239
  163SOPE  H15X18350   5.379   0.433   8.681  0.1493 -1.3587  0.3830
  163SOPE  H15Y18351   5.498   0.486   8.566  2.7318  3.7735 -0.1961
  163SOPE  C31618352   5.351   0.641   8.609 -0.0358  0.6289 -0.8853
  163SOPE  H16X18353   5.311   0.701   8.694  2.6726 -0.5351  1.2663
  163SOPE  H16Y18354   5.275   0.598   8.541  1.8033 -2.2768 -1.1747
  163SOPE  C31718355   5.425   0.744   8.511 -0.3371 -0.2205  0.9392
  163SOPE  H17X18356   5.459   0.688   8.422  0.0893 -0.8383  1.4814
  163SOPE  H17Y18357   5.521   0.781   8.552  0.9607  0.1847 -2.3767
  163SOPE  C31818358   5.347   0.867   8.463  0.8101  0.4309 -0.3067
  163SOPE  H18X18359   5.322   0.925   8.555 -1.2686  0.5959 -0.9519
  163SOPE  H18Y18360   5.248   0.842   8.418  0.0932  0.2552  1.3189
  163SOPE  H18Z18361   5.416   0.933   8.407  0.6550  0.5162 -0.3971
  164SOPE     N18362   0.554   5.711  10.785 -0.5362  0.1929  0.0450
  164SOPE   HN118363   0.509   5.782  10.846  0.1196  1.3659 -0.8174
  164SOPE   HN218364   0.501   5.730  10.697 -0.5477  0.5476  0.1261
  164SOPE   HN318365   0.533   5.614  10.815 -0.4624 -0.2330 -1.2517
  164SOPE   C1218366   0.694   5.746  10.749 -0.4921 -0.1187  0.0776
  164SOPE  H12A18367   0.719   5.844  10.795 -1.7721  0.8365 -1.1977
  164SOPE  H12B18368   0.704   5.741  10.639  0.8351  0.8783  0.1412
  164SOPE   C1118369   0.795   5.638  10.793  0.0988 -0.3275  0.0291
  164SOPE  H11A18370   0.764   5.541  10.748 -0.2808  0.6655 -1.8734
  164SOPE  H11B18371   0.790   5.634  10.904  1.8823 -1.6401  0.0797
  164SOPE     P18372   1.045   5.697  10.830 -0.0148 -0.2000  0.1245
  164SOPE   O1318373   1.114   5.568  10.838 -0.4543 -0.0961 -0.4546
  164SOPE   O1418374   1.022   5.760  10.955  0.1272 -0.1957  0.5026
  164SOPE   O1218375   0.918   5.686  10.743  0.7034  0.8130  0.3576
  164SOPE   O1118376   1.131   5.796  10.747  0.2099  0.5139  0.0713
  164SOPE    C118377   1.094   5.875  10.632 -0.3834  0.1053 -0.4611
  164SOPE    HA18378   1.168   5.956  10.624 -0.5585  0.9554  4.6240
  164SOPE    HB18379   1.001   5.929  10.660 -0.4704 -1.2797  2.1620
  164SOPE    C218380   1.093   5.802  10.489 -0.2212 -0.1473 -0.3513
  164SOPE    HS18381   1.026   5.714  10.503 -0.6357  0.0257 -1.1764
  164SOPE   O2118382   1.226   5.749  10.458 -0.3716  0.2267  0.7108
  164SOPE   C2118383   1.232   5.640  10.373  0.4728  0.5967  0.1890
  164SOPE   O2218384   1.136   5.577  10.340  0.5191 -1.0160  0.2873
  164SOPE   C2218385   1.374   5.591  10.344  0.9192 -0.0916  0.2609
  164SOPE   H2R18386   1.356   5.530  10.252 -2.4063  1.5934 -0.2970
  164SOPE   H2S18387   1.407   5.527  10.428  0.7007 -0.2945  0.1933
  164SOPE    C318388   1.038   5.897  10.380  0.1859 -0.7690  0.4046
  164SOPE    HX18389   1.113   5.977  10.366  0.7751 -1.4021 -0.0973
  164SOPE    HY18390   0.944   5.949  10.410  0.3126 -0.7194  0.7265
  164SOPE   O3118391   1.038   5.837  10.256 -0.0652  0.3016 -0.1869
  164SOPE   C3118392   0.937   5.760  10.220  0.4310 -0.0068 -0.0177
  164SOPE   O3218393   0.832   5.741  10.274  0.0546  0.7615  0.3737
  164SOPE   C3218394   0.973   5.707  10.078 -0.4395  0.1595  0.1424
  164SOPE   H2X18395   0.900   5.741  10.002 -0.1043  0.7661  0.0895
  164SOPE   H2Y18396   0.962   5.596  10.086 -1.1201  0.1703 -0.5880
  164SOPE   C2318397   1.478   5.697  10.320 -0.2657  0.5442 -0.0366
  164SOPE   H3R18398   1.575   5.643  10.314 -0.5455 -0.0148  0.3929
  164SOPE   H3S18399   1.490   5.764  10.408  2.2010 -0.0150  0.1019
  164SOPE   C2418400   1.457   5.763  10.183 -0.8287  0.0675  0.0595
  164SOPE   H4R18401   1.461   5.682  10.106 -0.9453  0.3874 -0.2845
  164SOPE   H4S18402   1.370   5.832  10.178 -0.1873  0.8348 -0.5921
  164SOPE   C2518403   1.576   5.860  10.162  0.2458 -0.2135  0.7956
  164SOPE   H5R18404   1.585   5.925  10.252  1.2415 -0.0988  0.6207
  164SOPE   H5S18405   1.675   5.808  10.161  0.2663 -0.3480  4.2041
  164SOPE   C2618406   1.558   5.941  10.036  0.8828 -0.2176 -0.5578
  164SOPE   H6R18407   1.520   5.879   9.952 -0.5575 -0.9875  0.6413
  164SOPE   H6S18408   1.488   6.026  10.055 -0.8613 -2.0712  1.5588
  164SOPE   C2718409   1.689   6.013   9.996 -0.2670  0.2670 -0.0660
  164SOPE   H7R18410   1.744   6.046  10.086 -1.4128  1.7528  0.1232
  164SOPE   H7S18411   1.747   5.937   9.940 -2.7751 -0.0750 -2.3399
  164SOPE   C2818412   1.667   6.139   9.910  0.5345  0.6731  0.4093
  164SOPE   H8R18413   1.599   6.211   9.961 -3.5521 -3.0251  0.4922
  164SOPE   H8S18414   1.770   6.176   9.890  0.0521  1.5730 -0.4367
  164SOPE   C2918415   1.619   6.095   9.777 -0.1152 -0.7616  0.3031
  164SOPE   H9118416   1.555   6.006   9.770 -1.2052 -0.0145  0.7294
  164SOPE  C21018417   1.655   6.145   9.657  1.1892  0.3610  0.8977
  164SOPE  H10118418   1.609   6.109   9.564  1.4294 -1.2340  1.3763
  164SOPE  C21118419   1.757   6.253   9.651 -0.1965 -0.1534 -0.1910
  164SOPE  H11R18420   1.857   6.204   9.644 -0.1293 -0.0676  0.1881
  164SOPE  H11S18421   1.757   6.324   9.736  0.0945  0.5405 -0.7653
  164SOPE  C21218422   1.745   6.337   9.518  0.5204  0.1031  0.2575
  164SOPE  H12R18423   1.790   6.439   9.520  0.3422  0.1959 -0.2977
  164SOPE  H12S18424   1.637   6.355   9.499  0.3949 -0.8995  0.0036
  164SOPE  C21318425   1.810   6.274   9.397  0.0072  0.9417  0.8180
  164SOPE  H13R18426   1.785   6.166   9.386  2.2549  0.3130  1.5358
  164SOPE  H13S18427   1.920   6.286   9.412  0.5025 -2.4177  0.2511
  164SOPE  C21418428   1.765   6.339   9.265  0.2424 -0.7014  0.3621
  164SOPE  H14R18429   1.833   6.426   9.251  0.7579 -1.0575  0.6328
  164SOPE  H14S18430   1.658   6.367   9.262  0.2587 -0.8285 -2.6648
  164SOPE  C21518431   1.792   6.251   9.143  0.2561  0.5973  0.3529
  164SOPE  H15R18432   1.733   6.158   9.155 -1.0213  1.4387  0.7373
  164SOPE  H15S18433   1.892   6.205   9.129 -1.1292 -1.7681 -2.3229
  164SOPE  C21618434   1.763   6.317   9.003 -0.9438 -0.5046 -0.0633
  164SOPE  H16R18435   1.656   6.345   9.004 -0.2799  2.1648 -0.1497
  164SOPE  H16S18436   1.778   6.242   8.922  0.6661 -0.9146  0.5830
  164SOPE  C21718437   1.855   6.430   8.965  0.4668  0.2635  0.1580
  164SOPE  H17R18438   1.959   6.408   8.997  0.4486  0.1314  0.1262
  164SOPE  H17S18439   1.819   6.525   9.011  1.3681 -0.1784  1.8284
  164SOPE  C21818440   1.874   6.432   8.813  0.2596  0.4161 -0.0304
  164SOPE  H18R18441   1.889   6.334   8.764 -2.3009 -1.6708  3.1995
  164SOPE  H18S18442   1.963   6.494   8.788 -0.1780  0.7335 -0.8074
  164SOPE  H18T18443   1.793   6.488   8.762  0.0398  1.4254  1.3803
  164SOPE   C3318444   1.111   5.751  10.029 -0.3085  0.4472  1.0378
  164SOPE   H3X18445   1.189   5.711  10.097  0.0665  1.1241  1.0070
  164SOPE   H3Y18446   1.121   5.861  10.033  1.2338  0.3362  0.3216
  164SOPE   C3418447   1.135   5.711   9.885 -0.3105  0.5943  0.0702
  164SOPE   H4X18448   1.052   5.752   9.825 -1.1605  0.4191  1.1185
  164SOPE   H4Y18449   1.145   5.600   9.882 -1.6382  0.4687  0.0944
  164SOPE   C3518450   1.264   5.768   9.832 -0.0490 -0.2170  0.5416
  164SOPE   H5X18451   1.348   5.745   9.902 -1.5938 -0.4679  2.3534
  164SOPE   H5Y18452   1.246   5.878   9.826  0.3216 -0.1497  0.6437
  164SOPE   C3618453   1.305   5.704   9.696 -0.6824 -0.2431  0.5071
  164SOPE   H6X18454   1.230   5.710   9.614 -1.6505 -0.5460  1.3628
  164SOPE   H6Y18455   1.327   5.597   9.716 -0.6266 -0.5151 -0.9643
  164SOPE   C3718456   1.432   5.769   9.639  0.2668  0.8466  0.1675
  164SOPE   H7X18457   1.520   5.753   9.706  1.2228 -0.0451 -1.2595
  164SOPE   H7Y18458   1.411   5.878   9.638  0.0595  0.8859  3.1924
  164SOPE   C3818459   1.467   5.730   9.494  0.2885 -0.0292  0.0714
  164SOPE   H8X18460   1.378   5.763   9.435  0.0746  0.7891  0.8377
  164SOPE   H8Y18461   1.476   5.620   9.488 -0.5752 -0.2415  2.1306
  164SOPE   C3918462   1.592   5.801   9.434  0.3808 -0.1859  0.4560
  164SOPE   H9X18463   1.670   5.775   9.508 -0.6849 -0.5871  1.4654
  164SOPE   H9Y18464   1.573   5.910   9.445 -1.2427 -0.3955 -0.0559
  164SOPE  C31018465   1.614   5.759   9.293 -0.4678  0.0575 -0.1827
  164SOPE  H10X18466   1.615   5.648   9.286  0.4538  0.1266 -1.3124
  164SOPE  H10Y18467   1.709   5.799   9.252 -0.9523  3.0450  1.4340
  164SOPE  C31118468   1.499   5.817   9.210 -0.2626  0.2287 -1.0213
  164SOPE  H11X18469   1.506   5.927   9.217  0.3116  0.1926 -0.9580
  164SOPE  H11Y18470   1.401   5.774   9.238 -0.9580  3.5078  1.7897
  164SOPE  C31218471   1.506   5.762   9.069 -0.7248  0.6645 -0.4704
  164SOPE  H12X18472   1.487   5.653   9.075  4.8114 -0.4386  0.4611
  164SOPE  H12Y18473   1.604   5.772   9.017  0.2432  1.7747  1.5104
  164SOPE  C31318474   1.400   5.827   8.984 -0.4910 -0.6458  0.5951
  164SOPE  H13X18475   1.433   5.933   8.999 -0.8088 -0.3040 -1.0905
  164SOPE  H13Y18476   1.303   5.804   9.033 -1.6860 -0.2104 -1.5084
  164SOPE  C31418477   1.406   5.772   8.843  0.2182  0.0753 -0.1172
  164SOPE  H14X18478   1.374   5.667   8.852  0.1319  0.0670 -0.5081
  164SOPE  H14Y18479   1.509   5.783   8.802  0.3912  1.2691  0.5985
  164SOPE  C31518480   1.307   5.852   8.757 -0.0805 -0.7142  0.3456
  164SOPE  H15X18481   1.324   5.960   8.773  0.1621 -0.4349 -1.6701
  164SOPE  H15Y18482   1.205   5.839   8.798  0.0536 -0.4153  0.7739
  164SOPE  C31618483   1.312   5.821   8.608  0.5336 -0.9077  0.0488
  164SOPE  H16X18484   1.267   5.720   8.594 -1.7286 -0.0818  1.1965
  164SOPE  H16Y18485   1.417   5.798   8.579 -0.3722 -3.1073 -1.6528
  164SOPE  C31718486   1.255   5.930   8.520 -0.0461  0.4032 -0.0893
  164SOPE  H17X18487   1.285   6.032   8.553  0.4674  0.8779 -1.9853
  164SOPE  H17Y18488   1.147   5.933   8.547 -0.0802  2.8198 -0.3510
  164SOPE  C31818489   1.264   5.914   8.370  0.1383 -0.5183 -0.2108
  164SOPE  H18X18490   1.195   5.830   8.346 -1.6226  0.8792 -0.2059
  164SOPE  H18Y18491   1.369   5.894   8.342  0.6418 -0.5126  1.6550
  164SOPE  H18Z18492   1.234   6.011   8.324 -1.6565  0.2815  2.5242
  165SOPE     N18493   6.369   5.766  10.913  0.6928 -0.2461 -0.8600
  165SOPE   HN118494   6.448   5.825  10.883 -0.4360  1.7259 -0.0584
  165SOPE   HN218495   6.380   5.760  11.016  1.0563  0.6353 -0.8483
  165SOPE   HN318496   6.371   5.667  10.881 -2.2061 -0.9206  0.8314
  165SOPE   C1218497   6.231   5.829  10.887  0.1482  0.5034  0.5323
  165SOPE  H12A18498   6.163   5.767  10.948  1.3163 -1.3609 -0.0348
  165SOPE  H12B18499   6.212   5.817  10.778  0.1730 -0.6023  0.6489
  165SOPE   C1118500   6.213   5.977  10.919  0.3955 -0.4457  0.0184
  165SOPE  H11A18501   6.250   5.975  11.024  0.5420  3.2458  0.0990
  165SOPE  H11B18502   6.107   6.011  10.915  0.8804  0.8972 -3.3101
  165SOPE     P18503   6.286   6.209  10.798 -0.0556  0.0937  0.0483
  165SOPE   O1318504   6.397   6.243  10.699  0.4357 -0.3436  0.3077
  165SOPE   O1418505   6.271   6.297  10.920 -0.1010  0.1446  0.0003
  165SOPE   O1218506   6.300   6.060  10.846 -0.3166  0.0863  0.3680
  165SOPE   O1118507   6.153   6.203  10.720  0.1097  0.1570 -0.1354
  165SOPE    C118508   6.136   6.111  10.610 -0.0108 -0.9741 -0.2565
  165SOPE    HA18509   6.032   6.073  10.617 -0.3187  0.1072  1.2767
  165SOPE    HB18510   6.211   6.030  10.614 -0.2667 -1.1759  0.5022
  165SOPE    C218511   6.150   6.183  10.472 -0.4856 -0.5391 -0.0034
  165SOPE    HS18512   6.255   6.217  10.461 -0.7180  0.6624  1.4007
  165SOPE   O2118513   6.047   6.287  10.457  0.1267 -0.0412  0.3250
  165SOPE   C2118514   6.076   6.390  10.376 -0.0255  0.7436 -0.0635
  165SOPE   O2218515   6.183   6.419  10.334 -0.6325  0.0716  0.6838
  165SOPE   C2218516   5.954   6.474  10.358 -0.6107 -0.3771  0.0006
  165SOPE   H2R18517   5.941   6.516  10.459  1.6337  0.3838 -0.0018
  165SOPE   H2S18518   5.864   6.415  10.331 -0.1140 -1.0177 -0.2829
  165SOPE    C318519   6.126   6.071  10.364 -0.1473  0.8645 -0.8335
  165SOPE    HX18520   6.033   6.014  10.384 -0.1307  1.1950  0.1917
  165SOPE    HY18521   6.211   6.001  10.377  0.4430  1.4344 -1.5566
  165SOPE   O3118522   6.135   6.126  10.229 -0.4391  0.0352  0.1900
  165SOPE   C3118523   6.045   6.090  10.137 -0.2552  0.5982 -0.1363
  165SOPE   O3218524   5.959   6.011  10.158  0.3277  0.3301 -0.6649
  165SOPE   C3218525   6.067   6.174  10.010 -0.7683  0.3419  0.7505
  165SOPE   H2X18526   6.162   6.229  10.023  1.0825 -2.4332 -0.5298
  165SOPE   H2Y18527   5.979   6.242  10.008  0.2351  1.6539 -0.2252
  165SOPE   C2318528   5.980   6.594  10.265 -0.9143 -0.3695  1.1333
  165SOPE   H3R18529   6.078   6.637  10.292 -0.4821  0.0067 -0.9054
  165SOPE   H3S18530   5.894   6.662  10.281 -0.6926  0.7568 -1.9903
  165SOPE   C2418531   5.976   6.540  10.119  0.0724 -0.1920 -0.5955
  165SOPE   H4R18532   6.062   6.473  10.098  0.7400  0.7298 -0.8415
  165SOPE   H4S18533   5.892   6.468  10.108  1.0240 -1.4068 -0.0209
  165SOPE   C2518534   5.965   6.658  10.027  0.0886 -0.8704  0.1522
  165SOPE   H5R18535   5.882   6.725  10.058  1.4351  1.7218 -1.6631
  165SOPE   H5S18536   6.051   6.728  10.032 -0.3297 -0.3465  0.0391
  165SOPE   C2618537   5.942   6.618   9.880 -0.4653 -0.3035 -0.6797
  165SOPE   H6R18538   5.845   6.564   9.889  0.2068 -1.5559 -0.8444
  165SOPE   H6S18539   5.936   6.698   9.804 -1.1308  2.7862  2.5180
  165SOPE   C2718540   6.033   6.507   9.822  0.1767 -0.0613 -0.2141
  165SOPE   H7R18541   6.136   6.523   9.861 -0.3953  1.2112  0.8104
  165SOPE   H7S18542   5.989   6.411   9.856 -0.4778 -0.2972 -1.7080
  165SOPE   C2818543   6.044   6.503   9.663 -0.0033  0.6841  0.1690
  165SOPE   H8R18544   6.054   6.607   9.626  4.4810  0.0382 -0.7222
  165SOPE   H8S18545   6.144   6.468   9.628 -0.2025 -0.6058  0.8914
  165SOPE   C2918546   5.934   6.433   9.583 -0.3976 -0.3584 -0.3543
  165SOPE   H9118547   5.894   6.343   9.631 -0.2879 -0.0401  0.3434
  165SOPE  C21018548   5.894   6.472   9.462 -0.2194 -0.2028 -0.8736
  165SOPE  H10118549   5.802   6.427   9.423  0.0983  0.3163 -2.2627
  165SOPE  C21118550   5.938   6.582   9.372 -0.3543  0.4550 -0.1843
  165SOPE  H11R18551   5.994   6.547   9.283 -1.4521 -1.8399 -0.0091
  165SOPE  H11S18552   6.002   6.657   9.424  0.5355  0.4205 -1.1967
  165SOPE  C21218553   5.816   6.649   9.306 -0.3338  1.0557  0.2865
  165SOPE  H12R18554   5.755   6.684   9.392 -1.8958 -0.2595 -0.2503
  165SOPE  H12S18555   5.763   6.567   9.253  2.1199 -0.9233  0.7848
  165SOPE  C21318556   5.843   6.772   9.216  0.3364 -1.0793 -0.1611
  165SOPE  H13R18557   5.931   6.757   9.149  0.4471 -2.4079  0.2695
  165SOPE  H13S18558   5.859   6.863   9.278  1.4466 -0.8727 -0.7218
  165SOPE  C21418559   5.724   6.810   9.123 -0.0245  0.1454  0.2695
  165SOPE  H14R18560   5.642   6.855   9.183 -3.9599 -3.6632 -1.9511
  165SOPE  H14S18561   5.674   6.719   9.084  0.8752  0.3262 -1.3671
  165SOPE  C21518562   5.762   6.899   9.007  0.9149  0.6843  0.3371
  165SOPE  H15R18563   5.848   6.857   8.952 -0.6492 -2.1100 -0.0363
  165SOPE  H15S18564   5.785   7.005   9.032 -0.2432  1.4231 -1.6100
  165SOPE  C21618565   5.637   6.906   8.906 -0.4179  0.1875  0.2308
  165SOPE  H16R18566   5.541   6.941   8.951  0.4871  1.0396  1.5127
  165SOPE  H16S18567   5.620   6.802   8.870  0.6169  0.1688 -0.2273
  165SOPE  C21718568   5.673   6.991   8.789 -0.5936 -0.1441  0.4374
  165SOPE  H17R18569   5.765   6.954   8.739  0.7842  3.9014 -0.2437
  165SOPE  H17S18570   5.694   7.097   8.815  1.8222 -0.6105  0.5099
  165SOPE  C21818571   5.553   6.996   8.690  0.0022  0.8769 -0.5446
  165SOPE  H18R18572   5.523   6.895   8.655  0.6883  1.1373 -1.9264
  165SOPE  H18S18573   5.572   7.048   8.594  4.0119  1.2184  0.3436
  165SOPE  H18T18574   5.460   7.031   8.739  0.0893 -1.5262  1.4502
  165SOPE   C3318575   6.086   6.094   9.879  0.1390  0.5771 -0.0633
  165SOPE   H3X18576   6.073   6.164   9.793 -1.0744 -1.4856 -1.6112
  165SOPE   H3Y18577   6.007   6.016   9.870 -0.3447  1.1735 -1.0667
  165SOPE   C3418578   6.221   6.032   9.855  0.2913 -0.8074 -0.5141
  165SOPE   H4X18579   6.244   5.968   9.943  0.9858  1.3096  0.8851
  165SOPE   H4Y18580   6.295   6.115   9.854  0.2087 -0.7172  0.4341
  165SOPE   C3518581   6.243   5.969   9.713 -0.1189  0.2894  0.0923
  165SOPE   H5X18582   6.186   5.875   9.700 -3.3219  2.1788  0.0922
  165SOPE   H5Y18583   6.352   5.944   9.713 -0.2813 -0.4457  0.5289
  165SOPE   C3618584   6.211   6.056   9.592  0.2970  0.8665  0.0798
  165SOPE   H6X18585   6.107   6.094   9.579  0.7161  0.9920 -3.2712
  165SOPE   H6Y18586   6.220   5.983   9.509 -3.2151  0.5300 -0.1129
  165SOPE   C3718587   6.308   6.175   9.557  0.3566  0.0167  0.0876
  165SOPE   H7X18588   6.413   6.142   9.549  0.3284  0.0463 -0.4034
  165SOPE   H7Y18589   6.296   6.257   9.632 -0.7779 -0.7578  0.7677
  165SOPE   C3818590   6.276   6.227   9.414 -0.0349  0.8973 -0.9491
  165SOPE   H8X18591   6.167   6.246   9.409 -0.0170  0.7478 -1.8883
  165SOPE   H8Y18592   6.304   6.150   9.339  1.4438  0.8988 -0.4196
  165SOPE   C3918593   6.353   6.358   9.397 -0.0241 -0.8006  0.3751
  165SOPE   H9X18594   6.463   6.341   9.397  0.1279 -0.1136 -3.2146
  165SOPE   H9Y18595   6.325   6.423   9.482 -1.8183  1.2133 -1.6938
  165SOPE  C31018596   6.327   6.437   9.266 -0.0102 -0.4397 -0.2168
  165SOPE  H10X18597   6.392   6.527   9.272 -1.0303  0.1882  2.2236
  165SOPE  H10Y18598   6.224   6.476   9.277  0.0945  0.3353 -2.0063
  165SOPE  C31118599   6.337   6.370   9.133 -0.3140 -0.2715  0.5501
  165SOPE  H11X18600   6.279   6.275   9.130 -1.3115  0.3993 -2.7896
  165SOPE  H11Y18601   6.444   6.360   9.105 -0.6383  0.4235 -1.0015
  165SOPE  C31218602   6.278   6.461   9.017 -0.5974 -0.8744  0.5989
  165SOPE  H12X18603   6.330   6.558   9.027 -1.8434 -0.0974 -0.3145
  165SOPE  H12Y18604   6.170   6.480   9.036 -0.7993 -0.7898 -0.6387
  165SOPE  C31318605   6.304   6.410   8.869 -0.0656  0.1313 -0.4438
  165SOPE  H13X18606   6.250   6.315   8.850  0.6249 -0.3078 -0.2236
  165SOPE  H13Y18607   6.414   6.404   8.855 -0.4239 -1.9540 -2.6362
  165SOPE  C31418608   6.241   6.511   8.776  0.2606 -0.2706  0.5893
  165SOPE  H14X18609   6.313   6.595   8.788  0.0530  0.1744 -1.1017
  165SOPE  H14Y18610   6.138   6.537   8.809  0.1144  0.3925 -0.3520
  165SOPE  C31518611   6.237   6.438   8.639 -0.4208  0.0568  0.1542
  165SOPE  H15X18612   6.142   6.383   8.627 -0.1975 -0.5157  1.0146
  165SOPE  H15Y18613   6.312   6.357   8.640 -0.8726 -0.4028 -1.9131
  165SOPE  C31618614   6.243   6.538   8.523 -0.5903 -0.1477 -0.0676
  165SOPE  H16X18615   6.343   6.584   8.514 -1.5374  2.1176  0.5876
  165SOPE  H16Y18616   6.168   6.620   8.531 -2.9865 -2.0765 -1.8296
  165SOPE  C31718617   6.200   6.465   8.394  0.2927  0.5929  0.4981
  165SOPE  H17X18618   6.232   6.359   8.404 -1.5537 -0.0871 -0.7084
  165SOPE  H17Y18619   6.262   6.490   8.305 -2.9243  2.9825 -1.1542
  165SOPE  C31818620   6.053   6.470   8.363 -0.5512 -0.1359  0.5318
  165SOPE  H18X18621   6.020   6.394   8.288 -0.8915 -0.8583  1.4011
  165SOPE  H18Y18622   6.024   6.567   8.318  0.1866 -0.6390 -1.0706
  165SOPE  H18Z18623   5.994   6.450   8.455 -0.0280 -1.4905  0.5925
  166SOPE     N18624   3.253   5.258  10.867 -0.5973  0.2617  0.7761
  166SOPE   HN118625   3.229   5.202  10.783 -2.0886 -0.7148  1.8320
  166SOPE   HN218626   3.350   5.225  10.882 -1.1291 -2.4951 -1.3376
  166SOPE   HN318627   3.189   5.226  10.942  0.5891 -2.5927  0.6296
  166SOPE   C1218628   3.247   5.407  10.846  0.0102 -0.5000 -0.6171
  166SOPE  H12A18629   3.258   5.442  10.951 -0.5147  1.6494 -1.2553
  166SOPE  H12B18630   3.141   5.428  10.820 -0.3678 -1.3146  0.2458
  166SOPE   C1118631   3.364   5.459  10.760 -0.0990 -0.4175 -0.4020
  166SOPE  H11A18632   3.344   5.443  10.652  1.2146 -0.6939 -0.6065
  166SOPE  H11B18633   3.455   5.403  10.789  1.5682  1.3716 -2.0760
  166SOPE     P18634   3.299   5.716  10.767  0.3481 -0.1555  0.0210
  166SOPE   O1318635   3.364   5.849  10.777 -0.4193  0.3759 -0.2467
  166SOPE   O1418636   3.188   5.698  10.860 -0.0385 -0.0863  0.0554
  166SOPE   O1218637   3.403   5.598  10.790  0.2654  0.2499 -0.0174
  166SOPE   O1118638   3.253   5.690  10.616 -0.4921  0.6104 -0.0083
  166SOPE    C118639   3.328   5.719  10.502 -0.2847  0.0316 -0.0289
  166SOPE    HA18640   3.294   5.669  10.409  1.3244 -0.7809 -0.1978
  166SOPE    HB18641   3.433   5.686  10.516 -0.3984 -1.0749 -1.7150
  166SOPE    C218642   3.329   5.870  10.463  0.0630 -0.5459  0.4799
  166SOPE    HS18643   3.361   5.926  10.554 -1.8773 -0.6995  1.2889
  166SOPE   O2118644   3.198   5.916  10.423  0.6514  0.0588 -0.0341
  166SOPE   C2118645   3.180   6.047  10.433  0.0370 -0.0539  0.1956
  166SOPE   O2218646   3.255   6.116  10.495  0.1057 -0.5377  0.2421
  166SOPE   C2218647   3.050   6.086  10.372  0.2203  0.1589  0.5933
  166SOPE   H2R18648   3.029   6.192  10.399 -1.9446 -0.3719  1.1241
  166SOPE   H2S18649   2.972   6.016  10.409  0.4975 -0.7740 -0.5726
  166SOPE    C318650   3.436   5.912  10.358  0.1176 -0.5613  0.1133
  166SOPE    HX18651   3.528   5.893  10.416 -0.3060  0.5442  1.1725
  166SOPE    HY18652   3.442   6.018  10.323 -0.5068 -1.4212 -2.7561
  166SOPE   O3118653   3.415   5.822  10.248 -0.1981  0.1646  0.0858
  166SOPE   C3118654   3.522   5.751  10.201  0.0248 -0.7885  0.7164
  166SOPE   O3218655   3.635   5.772  10.232  0.0503  0.0676  0.1537
  166SOPE   C3218656   3.468   5.635  10.123 -0.4241  0.9646 -0.0451
  166SOPE   H2X18657   3.392   5.681  10.057  0.5030  1.3527 -0.8555
  166SOPE   H2Y18658   3.420   5.565  10.194  0.6266  1.8943  1.6289
  166SOPE   C2318659   3.047   6.079  10.212 -0.2106  0.2607 -0.2507
  166SOPE   H3R18660   2.940   6.082  10.183 -0.4004  5.0755  0.5914
  166SOPE   H3S18661   3.090   5.986  10.168 -0.2688 -0.0656  0.3751
  166SOPE   C2418662   3.099   6.196  10.127  0.3530 -0.6745  0.5738
  166SOPE   H4R18663   3.031   6.284  10.133  0.0192 -0.7430 -1.6867
  166SOPE   H4S18664   3.185   6.241  10.181 -0.1544  0.3570  0.5301
  166SOPE   C2518665   3.118   6.164   9.987  0.2372  0.2043 -0.4955
  166SOPE   H5R18666   3.192   6.081   9.980 -1.3523 -1.3698  0.9340
  166SOPE   H5S18667   3.018   6.122   9.961 -0.5320  2.3197 -1.0707
  166SOPE   C2618668   3.170   6.275   9.892  0.1650 -0.2203  0.2751
  166SOPE   H6R18669   3.279   6.283   9.909  0.6631 -1.7556 -1.9985
  166SOPE   H6S18670   3.174   6.239   9.787  1.5669  0.8116 -0.0399
  166SOPE   C2718671   3.109   6.419   9.907  0.3363  0.1299 -0.2190
  166SOPE   H7R18672   3.004   6.414   9.872  0.7251  1.3570 -1.6322
  166SOPE   H7S18673   3.114   6.455  10.012 -1.5447 -0.5180  0.1054
  166SOPE   C2818674   3.171   6.513   9.796 -0.0988  0.4918  0.2773
  166SOPE   H8R18675   3.173   6.450   9.705  0.5543  0.9013  0.0097
  166SOPE   H8S18676   3.109   6.605   9.790 -0.2164  0.3298 -0.9738
  166SOPE   C2918677   3.314   6.546   9.838 -0.0326  0.1118  0.4110
  166SOPE   H9118678   3.323   6.618   9.921  1.2184 -1.4048  1.6210
  166SOPE  C21018679   3.428   6.499   9.784  0.0316 -0.5100  0.4217
  166SOPE  H10118680   3.520   6.537   9.831 -0.5983 -1.9852  2.9354
  166SOPE  C21118681   3.439   6.399   9.670 -0.1835  0.2229  0.0807
  166SOPE  H11R18682   3.342   6.348   9.655 -0.6406  1.3548 -0.9359
  166SOPE  H11S18683   3.519   6.331   9.706 -1.1988 -1.4709 -0.8118
  166SOPE  C21218684   3.476   6.474   9.546 -0.7973 -0.0795  0.0658
  166SOPE  H12R18685   3.571   6.531   9.540 -1.2972  0.5736 -2.1908
  166SOPE  H12S18686   3.394   6.548   9.529 -1.4507 -0.3313  1.9831
  166SOPE  C21318687   3.480   6.389   9.420  0.8621  0.0567  0.1800
  166SOPE  H13R18688   3.386   6.331   9.427  1.3589 -0.6571  1.0524
  166SOPE  H13S18689   3.562   6.316   9.435  1.3630  0.5343 -0.2014
  166SOPE  C21418690   3.506   6.475   9.289 -0.2810  0.2546  0.4366
  166SOPE  H14R18691   3.456   6.574   9.292 -1.3305 -0.1337 -2.2647
  166SOPE  H14S18692   3.465   6.417   9.204 -0.8706  1.7829 -0.3528
  166SOPE  C21518693   3.651   6.510   9.253 -0.4301 -0.2132 -0.7757
  166SOPE  H15R18694   3.710   6.416   9.246 -0.3389 -0.2153  0.0400
  166SOPE  H15S18695   3.695   6.567   9.338  1.4611 -1.4460 -0.9037
  166SOPE  C21618696   3.665   6.600   9.126 -0.7303  0.5018 -0.7512
  166SOPE  H16R18697   3.767   6.645   9.117  0.1193 -1.3129 -0.5053
  166SOPE  H16S18698   3.592   6.683   9.128  1.3423  2.3723 -0.5535
  166SOPE  C21718699   3.653   6.520   8.993  0.3473  0.0116  0.3467
  166SOPE  H17R18700   3.719   6.431   9.001 -1.8431 -1.5831  1.2487
  166SOPE  H17S18701   3.699   6.585   8.916 -2.7536  0.1044 -1.4852
  166SOPE  C21818702   3.508   6.494   8.940 -0.3067  0.2479  0.3665
  166SOPE  H18R18703   3.473   6.397   8.981  1.4803  0.0747  1.5535
  166SOPE  H18S18704   3.500   6.499   8.829 -2.7400 -0.9462  0.4508
  166SOPE  H18T18705   3.443   6.571   8.984 -1.2688 -1.7974  2.6267
  166SOPE   C3318706   3.584   5.564  10.044 -0.4510  0.4842  0.2244
  166SOPE   H3X18707   3.654   5.517  10.116  1.4605  0.3029 -1.6919
  166SOPE   H3Y18708   3.645   5.644   9.997  1.0017 -0.1565  1.0130
  166SOPE   C3418709   3.541   5.469   9.933  0.8620  0.1059 -0.3562
  166SOPE   H4X18710   3.461   5.401   9.969 -0.0469  0.3220 -1.9569
  166SOPE   H4Y18711   3.611   5.390   9.898  0.6587 -0.4506  0.4870
  166SOPE   C3518712   3.514   5.546   9.811  0.2773 -0.0673  0.1012
  166SOPE   H5X18713   3.595   5.620   9.790  0.0252  0.9847  2.6456
  166SOPE   H5Y18714   3.428   5.615   9.822  0.5230  0.6124 -2.1225
  166SOPE   C3618715   3.479   5.471   9.677 -0.3807  1.0133 -0.8512
  166SOPE   H6X18716   3.387   5.411   9.693  0.2131  0.0645 -0.9045
  166SOPE   H6Y18717   3.555   5.391   9.659 -2.8280 -2.1065  2.0601
  166SOPE   C3718718   3.454   5.559   9.557  0.0225  0.2001 -0.1022
  166SOPE   H7X18719   3.522   5.645   9.573  1.3668 -1.2742  2.4794
  166SOPE   H7Y18720   3.350   5.597   9.562  0.5736  1.5444  1.4929
  166SOPE   C3818721   3.480   5.482   9.425  0.1258 -0.3429  0.0575
  166SOPE   H8X18722   3.408   5.398   9.412  1.3958 -1.0620 -2.6284
  166SOPE   H8Y18723   3.583   5.443   9.414  0.7141  0.5180  2.3873
  166SOPE   C3918724   3.464   5.569   9.304 -0.5068 -0.2817  0.9012
  166SOPE   H9X18725   3.535   5.654   9.314 -0.6314 -0.0100 -0.4025
  166SOPE   H9Y18726   3.367   5.623   9.298  0.2266  1.0057  0.3681
  166SOPE  C31018727   3.496   5.486   9.178 -0.2402  0.2548 -0.1287
  166SOPE  H10X18728   3.416   5.411   9.162 -0.2102 -0.0393  1.0647
  166SOPE  H10Y18729   3.583   5.421   9.199 -1.9952 -1.9760  0.3629
  166SOPE  C31118730   3.524   5.571   9.053  0.4143  1.2137 -0.0777
  166SOPE  H11X18731   3.608   5.643   9.072  1.1896  0.5388 -0.9170
  166SOPE  H11Y18732   3.426   5.623   9.053  0.1288  0.7303  1.9319
  166SOPE  C31218733   3.561   5.489   8.927 -0.8933 -0.6057 -0.2896
  166SOPE  H12X18734   3.466   5.435   8.904 -0.9591 -0.2903 -0.7660
  166SOPE  H12Y18735   3.651   5.425   8.941 -0.7597 -0.7567 -1.7291
  166SOPE  C31318736   3.586   5.575   8.792 -0.2915  0.6034  0.7752
  166SOPE  H13X18737   3.694   5.600   8.797 -0.0201 -0.8787  3.9139
  166SOPE  H13Y18738   3.522   5.665   8.800  0.7595  1.4213  0.0725
  166SOPE  C31418739   3.545   5.496   8.667  0.0208  0.3486 -0.2462
  166SOPE  H14X18740   3.616   5.413   8.645 -2.0525 -0.7866 -2.8751
  166SOPE  H14Y18741   3.551   5.574   8.588 -3.7845  1.8455  0.8271
  166SOPE  C31518742   3.396   5.466   8.665  0.0668  0.6040  0.3686
  166SOPE  H15X18743   3.337   5.550   8.706 -0.9304  0.4825 -0.8006
  166SOPE  H15Y18744   3.382   5.384   8.739 -0.5621  0.8008  0.4669
  166SOPE  C31618745   3.337   5.424   8.530  0.1443  0.1010  0.3354
  166SOPE  H16X18746   3.407   5.353   8.483 -0.9866  0.1205 -1.4109
  166SOPE  H16Y18747   3.321   5.514   8.467  0.2441  0.1112  0.3246
  166SOPE  C31718748   3.205   5.346   8.552 -0.2339  0.0063  0.1282
  166SOPE  H17X18749   3.123   5.404   8.599 -0.9766 -1.2238  0.3702
  166SOPE  H17Y18750   3.229   5.258   8.615 -1.1690 -0.5043 -0.2267
  166SOPE  C31818751   3.155   5.290   8.410  0.4468  0.9721  0.9473
  166SOPE  H18X18752   3.054   5.249   8.432  1.0501  0.0282  2.0121
  166SOPE  H18Y18753   3.223   5.206   8.383 -0.1255  0.2921  1.5851
  166SOPE  H18Z18754   3.172   5.368   8.333  1.5489  0.7287  0.9346
  167SOPE     N18755   4.648   5.063   6.556  0.4191 -0.2805 -0.1932
  167SOPE   HN118756   4.591   5.107   6.632  0.6830 -0.5841  0.1868
  167SOPE   HN218757   4.668   4.967   6.592 -0.6461 -0.2994  0.3949
  167SOPE   HN318758   4.733   5.121   6.543 -0.8901  1.5505 -0.6812
  167SOPE   C1218759   4.582   5.061   6.421 -0.6694  0.3716 -0.2222
  167SOPE  H12A18760   4.475   5.032   6.428 -0.2612 -1.7709 -2.3540
  167SOPE  H12B18761   4.632   4.975   6.372  1.9310  2.3401 -1.2054
  167SOPE   C1118762   4.593   5.197   6.347 -0.4143 -0.0996  1.1621
  167SOPE  H11A18763   4.547   5.279   6.407 -1.6464 -1.5253  2.2236
  167SOPE  H11B18764   4.534   5.182   6.254  1.3597 -3.1044  0.4473
  167SOPE     P18765   4.820   5.317   6.378 -0.3289 -0.5173 -0.1117
  167SOPE   O1318766   4.785   5.448   6.333  0.5033 -0.1689 -0.6183
  167SOPE   O1418767   4.957   5.270   6.345 -0.0198  0.1022 -0.2127
  167SOPE   O1218768   4.726   5.221   6.305  0.3960 -0.8481 -0.3252
  167SOPE   O1118769   4.786   5.289   6.528  0.6486  0.2895 -0.3791
  167SOPE    C118770   4.887   5.290   6.626 -0.1882  0.4660 -0.1186
  167SOPE    HA18771   4.935   5.391   6.623 -2.9099  1.7481 -4.9993
  167SOPE    HB18772   4.969   5.219   6.602  0.5321  1.0557  0.5615
  167SOPE    C218773   4.824   5.279   6.767  0.1337 -0.4153 -0.0045
  167SOPE    HS18774   4.912   5.295   6.834  1.0068  0.2555 -1.2859
  167SOPE   O2118775   4.761   5.152   6.781 -0.3170 -0.3515  0.0891
  167SOPE   C2118776   4.761   5.110   6.901 -0.4946  0.5392  0.9851
  167SOPE   O2218777   4.823   5.154   6.994  0.3929 -0.7339 -0.6287
  167SOPE   C2218778   4.679   4.980   6.900  0.9649 -0.9847 -0.2911
  167SOPE   H2R18779   4.746   4.893   6.919 -0.4355 -1.7179  1.3886
  167SOPE   H2S18780   4.624   4.969   6.805  0.1396 -1.3040  0.2255
  167SOPE    C318781   4.727   5.397   6.801  0.2926 -0.1265 -0.2248
  167SOPE    HX18782   4.667   5.418   6.710  0.0806 -1.1073 -0.3126
  167SOPE    HY18783   4.787   5.486   6.830 -0.1413  0.3822 -0.8781
  167SOPE   O3118784   4.640   5.360   6.912  0.5612 -0.1017 -0.4035
  167SOPE   C3118785   4.602   5.466   6.982  0.8763 -0.1004 -0.2902
  167SOPE   O3218786   4.623   5.583   6.960  0.3577 -0.5166  0.8436
  167SOPE   C3218787   4.518   5.419   7.095 -0.0704  0.4392  0.1975
  167SOPE   H2X18788   4.455   5.329   7.078 -0.5538  0.9113 -0.5181
  167SOPE   H2Y18789   4.446   5.498   7.126 -2.3019 -0.9483 -1.3513
  167SOPE   C2318790   4.574   4.983   7.019  0.2676 -0.1267  1.1746
  167SOPE   H3R18791   4.504   4.899   6.999  2.2865 -1.4451 -0.5241
  167SOPE   H3S18792   4.511   5.075   7.023 -0.8888 -0.7380 -1.8701
  167SOPE   C2418793   4.638   4.970   7.159  0.5916 -0.3589 -0.3266
  167SOPE   H4R18794   4.723   4.899   7.144  2.0516  1.3998 -0.6367
  167SOPE   H4S18795   4.687   5.068   7.176 -0.6232  0.0666  0.7570
  167SOPE   C2518796   4.548   4.913   7.269  0.3052 -0.5820 -0.1285
  167SOPE   H5R18797   4.474   4.995   7.268  0.1993 -0.6771 -0.3512
  167SOPE   H5S18798   4.519   4.813   7.229  1.3670 -1.4733  1.2802
  167SOPE   C2618799   4.623   4.894   7.394 -0.1760 -0.0119  0.1435
  167SOPE   H6R18800   4.702   4.819   7.371 -0.4808 -0.3851  0.3209
  167SOPE   H6S18801   4.669   4.990   7.428  2.3050 -0.8998 -0.6213
  167SOPE   C2718802   4.546   4.842   7.517  0.5648 -0.6370 -0.3808
  167SOPE   H7R18803   4.468   4.917   7.544  1.1643 -0.0035 -0.3850
  167SOPE   H7S18804   4.509   4.740   7.493 -0.2560  0.1154 -2.4425
  167SOPE   C2818805   4.648   4.845   7.631  0.3809  0.1379  0.1893
  167SOPE   H8R18806   4.730   4.780   7.594  0.2429  0.9264 -1.5455
  167SOPE   H8S18807   4.686   4.946   7.657  2.2390 -0.5392  0.1755
  167SOPE   C2918808   4.595   4.764   7.752  0.1044  0.4287  0.2767
  167SOPE   H9118809   4.543   4.674   7.717 -0.4325  0.4347  1.0448
  167SOPE  C21018810   4.616   4.793   7.879  0.2777  0.4514 -0.0730
  167SOPE  H10118811   4.586   4.719   7.956 -2.7975  1.7549  0.0236
  167SOPE  C21118812   4.701   4.900   7.940 -1.0864 -0.0170  0.3188
  167SOPE  H11R18813   4.639   4.955   8.014  2.5677  2.5221  1.6168
  167SOPE  H11S18814   4.725   4.975   7.862  0.9106  1.3463  2.2083
  167SOPE  C21218815   4.832   4.854   8.013 -0.3515  0.2344  0.0540
  167SOPE  H12R18816   4.872   4.949   8.054  2.7697 -0.0758 -2.1000
  167SOPE  H12S18817   4.907   4.818   7.940  0.8148  0.6781  1.0097
  167SOPE  C21318818   4.800   4.754   8.122 -0.2125  0.5038 -0.3304
  167SOPE  H13R18819   4.749   4.660   8.092 -1.3661  1.2106 -0.5849
  167SOPE  H13S18820   4.741   4.805   8.200  1.2522  0.7330  0.6541
  167SOPE  C21418821   4.930   4.725   8.209  0.6837 -0.1148  0.0450
  167SOPE  H14R18822   4.995   4.813   8.231 -1.8187  0.7015  5.0092
  167SOPE  H14S18823   4.991   4.667   8.137 -0.3435  0.2548 -1.1249
  167SOPE  C21518824   4.905   4.634   8.331 -0.0851 -0.5476 -0.4039
  167SOPE  H15R18825   4.996   4.577   8.359  1.2572  1.9749  0.5212
  167SOPE  H15S18826   4.824   4.563   8.301  0.5078 -1.3907 -0.0335
  167SOPE  C21618827   4.850   4.712   8.456 -0.3301  0.4977  0.6217
  167SOPE  H16R18828   4.751   4.755   8.429  0.6103  1.1112 -2.0495
  167SOPE  H16S18829   4.922   4.797   8.463  1.6371 -1.0860  0.2240
  167SOPE  C21718830   4.854   4.629   8.584 -0.3888 -0.5025 -0.4786
  167SOPE  H17R18831   4.779   4.547   8.587 -0.5457 -0.2960  2.3598
  167SOPE  H17S18832   4.838   4.701   8.666  3.1091 -1.9297  1.5578
  167SOPE  C21818833   4.988   4.570   8.618  0.1003 -0.7409 -0.5128
  167SOPE  H18R18834   5.063   4.651   8.610 -2.4211  1.4511 -2.4379
  167SOPE  H18S18835   5.024   4.488   8.552  0.2965 -2.1414  1.2827
  167SOPE  H18T18836   4.985   4.527   8.721 -0.4765 -0.0030 -0.2187
  167SOPE   C3318837   4.605   5.383   7.215 -0.3175  0.1191  0.6074
  167SOPE   H3X18838   4.657   5.472   7.258  4.0891 -2.0379  0.0452
  167SOPE   H3Y18839   4.678   5.305   7.185  0.4938  0.9742  0.3201
  167SOPE   C3418840   4.527   5.321   7.328 -0.5626 -0.1307 -0.4120
  167SOPE   H4X18841   4.506   5.215   7.301  0.8101 -1.2111  2.5179
  167SOPE   H4Y18842   4.449   5.395   7.353 -0.2134  0.0239  0.2297
  167SOPE   C3518843   4.610   5.315   7.454  0.7840  0.2569  0.4012
  167SOPE   H5X18844   4.654   5.415   7.474  0.6712  0.2379  0.7501
  167SOPE   H5Y18845   4.697   5.247   7.449 -0.3238 -1.2628  1.3665
  167SOPE   C3618846   4.531   5.271   7.577  0.2042 -0.4301 -0.4698
  167SOPE   H6X18847   4.516   5.161   7.577  0.2289 -0.4306  0.8228
  167SOPE   H6Y18848   4.433   5.323   7.571 -0.2296 -1.2449 -0.4250
  167SOPE   C3718849   4.614   5.314   7.699 -0.5561  0.5188  0.9950
  167SOPE   H7X18850   4.645   5.420   7.690 -1.3528  0.6117 -0.9987
  167SOPE   H7Y18851   4.708   5.255   7.690 -1.4467 -0.8937  0.7220
  167SOPE   C3818852   4.555   5.262   7.831  0.7504  0.6095 -0.3036
  167SOPE   H8X18853   4.519   5.157   7.821  3.7813 -0.2356 -2.7173
  167SOPE   H8Y18854   4.464   5.325   7.839  0.1306 -0.2679 -0.3298
  167SOPE   C3918855   4.650   5.279   7.951 -0.4220  0.3943 -0.1506
  167SOPE   H9X18856   4.674   5.387   7.957  1.3569 -0.0146  0.5494
  167SOPE   H9Y18857   4.752   5.248   7.920 -0.7173 -1.2114  0.4083
  167SOPE  C31018858   4.603   5.236   8.094 -0.9082  0.1056  0.4597
  167SOPE  H10X18859   4.552   5.139   8.079  1.7408 -1.5169  1.6343
  167SOPE  H10Y18860   4.527   5.311   8.127 -2.3910 -1.2323  0.1258
  167SOPE  C31118861   4.712   5.227   8.197  0.6262 -0.5031  0.7923
  167SOPE  H11X18862   4.780   5.314   8.206 -0.3369  0.4698 -0.9944
  167SOPE  H11Y18863   4.782   5.150   8.156  2.1690  0.5986  1.3349
  167SOPE  C31218864   4.650   5.179   8.329 -0.2174 -0.8589  0.1202
  167SOPE  H12X18865   4.569   5.105   8.308 -1.4859  0.5966 -0.2209
  167SOPE  H12Y18866   4.596   5.266   8.373 -2.0598 -2.5392  1.2960
  167SOPE  C31318867   4.752   5.130   8.432 -0.4179 -0.4986  0.2648
  167SOPE  H13X18868   4.807   5.212   8.484 -2.3859 -0.3176  2.0884
  167SOPE  H13Y18869   4.826   5.054   8.399  1.2412  0.8030  0.8811
  167SOPE  C31418870   4.681   5.066   8.547  0.0558 -0.6182  0.0654
  167SOPE  H14X18871   4.615   4.984   8.511 -2.7027  1.2317  0.7625
  167SOPE  H14Y18872   4.605   5.139   8.581  0.9512  0.4203 -0.1466
  167SOPE  C31518873   4.767   5.027   8.666  0.4644 -0.5831 -0.3879
  167SOPE  H15X18874   4.859   5.089   8.654  0.6193 -1.0606 -1.8430
  167SOPE  H15Y18875   4.804   4.922   8.666  1.5404 -0.2630  3.0072
  167SOPE  C31618876   4.699   5.050   8.808  0.2450 -0.1757  0.4549
  167SOPE  H16X18877   4.678   5.159   8.808  1.1718  0.0258 -1.0807
  167SOPE  H16Y18878   4.778   5.037   8.885  2.6113 -0.3630 -1.9298
  167SOPE  C31718879   4.568   4.971   8.838  0.6015 -0.0300  0.2949
  167SOPE  H17X18880   4.482   4.999   8.774 -0.1129  0.6895  1.5569
  167SOPE  H17Y18881   4.537   4.981   8.944  1.7670 -1.8303  0.8229
  167SOPE  C31818882   4.574   4.820   8.805 -0.1443  0.1616  0.1185
  167SOPE  H18X18883   4.579   4.801   8.696  1.4936 -1.7091  0.5006
  167SOPE  H18Y18884   4.482   4.782   8.854  0.1007  1.1063  1.3528
  167SOPE  H18Z18885   4.653   4.767   8.862 -1.1457  0.1362  1.5025
  168SOPE     N18886   4.982   2.018   6.111  0.2084 -0.1532 -0.1231
  168SOPE   HN118887   5.018   2.104   6.064  0.4992 -0.8061 -1.1215
  168SOPE   HN218888   4.969   2.050   6.209 -2.1425 -0.8873 -0.1701
  168SOPE   HN318889   5.049   1.939   6.097  1.7280  0.8843  1.1005
  168SOPE   C1218890   4.852   1.994   6.038 -0.0304 -0.2451 -0.7097
  168SOPE  H12A18891   4.803   1.912   6.096 -2.1524  0.4962 -1.4192
  168SOPE  H12B18892   4.885   1.962   5.937 -0.3284 -1.2849 -0.4844
  168SOPE   C1118893   4.768   2.120   6.044  0.3790  0.0091 -0.1650
  168SOPE  H11A18894   4.678   2.105   5.981  1.1083 -2.0719 -0.7511
  168SOPE  H11B18895   4.826   2.200   5.994 -1.1665  1.6524  0.6205
  168SOPE     P18896   4.612   2.092   6.253  0.1171 -0.2147  0.1855
  168SOPE   O1318897   4.664   1.957   6.285  0.1525 -0.2329 -0.7084
  168SOPE   O1418898   4.487   2.100   6.172 -0.1378  0.2119  0.2331
  168SOPE   O1218899   4.738   2.166   6.179 -0.1355 -0.1731  0.0128
  168SOPE   O1118900   4.596   2.178   6.389  0.2607  0.2059  0.1806
  168SOPE    C118901   4.724   2.232   6.439 -0.3715  1.3817 -0.3122
  168SOPE    HA18902   4.752   2.320   6.377 -0.3629 -0.0014 -2.3226
  168SOPE    HB18903   4.803   2.154   6.443 -1.0722  0.6275 -1.0316
  168SOPE    C218904   4.715   2.281   6.586  0.7117  0.6881  0.2710
  168SOPE    HS18905   4.807   2.334   6.618  1.2352 -0.1442  0.1800
  168SOPE   O2118906   4.695   2.160   6.664  0.0561 -0.7960 -0.2824
  168SOPE   C2118907   4.801   2.104   6.708  0.0042 -0.0608  0.3987
  168SOPE   O2218908   4.915   2.145   6.683  0.2956  0.1552  0.1231
  168SOPE   C2218909   4.768   1.977   6.790 -0.0858  0.0368  0.0711
  168SOPE   H2R18910   4.867   1.944   6.829  0.3819  1.1283 -0.1917
  168SOPE   H2S18911   4.733   1.894   6.725  3.1806  0.4959 -2.4082
  168SOPE    C318912   4.595   2.378   6.610  0.8609 -0.5568  0.6226
  168SOPE    HX18913   4.505   2.339   6.558  0.3482  0.8127  0.4708
  168SOPE    HY18914   4.619   2.473   6.558  0.4820  0.2718  1.9460
  168SOPE   O3118915   4.570   2.413   6.744 -0.0962 -0.5194 -0.2591
  168SOPE   C3118916   4.488   2.327   6.809 -0.1760  0.2295 -0.0925
  168SOPE   O3218917   4.430   2.229   6.763 -0.1612 -0.3396  0.0867
  168SOPE   C3218918   4.497   2.372   6.956 -0.3668  1.0623  0.2409
  168SOPE   H2X18919   4.466   2.478   6.961 -0.4425  1.1475 -1.4819
  168SOPE   H2Y18920   4.601   2.368   6.996  0.0361  1.0242 -0.7762
  168SOPE   C2318921   4.672   2.007   6.900 -0.2764 -0.3917 -0.9919
  168SOPE   H3R18922   4.566   2.026   6.873  0.0086  2.2050 -0.4017
  168SOPE   H3S18923   4.710   2.090   6.964  0.0397 -0.3514 -1.2314
  168SOPE   C2418924   4.663   1.882   6.998  0.2201 -0.3313 -0.1256
  168SOPE   H4R18925   4.642   1.792   6.935  2.3037 -0.3658 -0.8127
  168SOPE   H4S18926   4.770   1.871   7.023 -0.0316  0.9003  1.5664
  168SOPE   C2518927   4.585   1.909   7.124 -0.3970 -0.7021 -0.4806
  168SOPE   H5R18928   4.640   1.989   7.178 -1.1372 -0.5347  0.0333
  168SOPE   H5S18929   4.484   1.946   7.097 -1.3763 -1.9081  1.3691
  168SOPE   C2618930   4.595   1.784   7.208  0.1761 -0.5285  0.4079
  168SOPE   H6R18931   4.539   1.705   7.153 -1.8273  0.1794  1.4068
  168SOPE   H6S18932   4.702   1.754   7.210  0.3639 -0.1034 -1.8718
  168SOPE   C2718933   4.530   1.796   7.344  0.5615  0.1928 -0.2453
  168SOPE   H7R18934   4.589   1.872   7.399  0.0260  0.5926 -0.2161
  168SOPE   H7S18935   4.429   1.837   7.322  0.6425 -1.1415 -3.3802
  168SOPE   C2818936   4.518   1.665   7.420 -0.3640  0.2896 -0.5977
  168SOPE   H8R18937   4.444   1.604   7.364 -1.5683 -1.4904  2.7707
  168SOPE   H8S18938   4.610   1.601   7.419  0.4201  1.4075 -1.3940
  168SOPE   C2918939   4.470   1.699   7.556 -0.1999 -0.0928  0.0061
  168SOPE   H9118940   4.386   1.770   7.562 -0.8944 -0.7565 -1.7919
  168SOPE  C21018941   4.516   1.657   7.675  0.2006  0.4361  0.5833
  168SOPE  H10118942   4.457   1.678   7.766  0.9468  1.4578  0.8299
  168SOPE  C21118943   4.634   1.560   7.703 -0.0322  0.1038  0.0294
  168SOPE  H11R18944   4.729   1.613   7.724  0.2560 -0.5352  0.3271
  168SOPE  H11S18945   4.673   1.508   7.613 -1.4631 -1.9210  0.5485
  168SOPE  C21218946   4.608   1.447   7.804 -0.0965 -0.0135  0.6816
  168SOPE  H12R18947   4.559   1.353   7.770  0.3075 -0.6375  1.7905
  168SOPE  H12S18948   4.557   1.492   7.892 -0.6476  0.0787  0.3233
  168SOPE  C21318949   4.740   1.400   7.867 -0.6942 -0.4056 -0.6879
  168SOPE  H13R18950   4.794   1.491   7.899 -0.5018 -1.3312  1.7070
  168SOPE  H13S18951   4.807   1.373   7.783 -0.7585  1.6608 -1.4080
  168SOPE  C21418952   4.723   1.298   7.983  0.0325  0.4667 -0.2250
  168SOPE  H14R18953   4.825   1.276   8.022  0.3701  1.1071 -0.7487
  168SOPE  H14S18954   4.682   1.205   7.937 -1.8553  0.7786  0.7739
  168SOPE  C21518955   4.627   1.339   8.101 -1.0486  0.5836  0.3914
  168SOPE  H15R18956   4.522   1.330   8.066 -1.1839  1.2318  0.6226
  168SOPE  H15S18957   4.648   1.440   8.140 -0.0230  0.4003  0.3173
  168SOPE  C21618958   4.646   1.241   8.222 -0.0434  0.2045  0.2627
  168SOPE  H16R18959   4.752   1.253   8.253 -0.0576  0.2694  0.2848
  168SOPE  H16S18960   4.645   1.136   8.184  1.1396 -0.0959  1.0134
  168SOPE  C21718961   4.557   1.283   8.335  0.1937  0.5388  0.3388
  168SOPE  H17R18962   4.559   1.206   8.415 -0.3387 -1.6463 -1.6983
  168SOPE  H17S18963   4.451   1.278   8.302 -0.1595  1.3098  1.3064
  168SOPE  C21818964   4.578   1.419   8.404  0.0515  0.4091  0.4567
  168SOPE  H18R18965   4.514   1.424   8.495 -0.6345 -3.0261  0.2077
  168SOPE  H18S18966   4.572   1.512   8.344 -2.3349  0.5431  0.8681
  168SOPE  H18T18967   4.682   1.419   8.444  0.0756 -1.0637  0.4075
  168SOPE   C3318968   4.412   2.273   7.040 -0.5983  0.0293 -0.0436
  168SOPE   H3X18969   4.437   2.167   7.018  0.9675  0.6266 -1.2627
  168SOPE   H3Y18970   4.306   2.282   7.008  0.0817  1.9872 -1.7834
  168SOPE   C3418971   4.431   2.311   7.185 -0.0141  0.3879  0.1803
  168SOPE   H4X18972   4.388   2.411   7.208  0.2740  1.2382 -2.7229
  168SOPE   H4Y18973   4.539   2.328   7.206  0.4108  0.9543 -2.3237
  168SOPE   C3518974   4.363   2.204   7.280 -0.3871 -0.7631  0.4270
  168SOPE   H5X18975   4.425   2.112   7.285 -0.5671 -0.8742  0.6621
  168SOPE   H5Y18976   4.265   2.185   7.231 -0.6117  0.9043  0.2056
  168SOPE   C3618977   4.350   2.274   7.415 -0.0357  0.0118  0.1318
  168SOPE   H6X18978   4.276   2.356   7.406  0.6610  0.5758 -0.5296
  168SOPE   H6Y18979   4.445   2.309   7.460  0.0907 -3.9238  3.1650
  168SOPE   C3718980   4.286   2.167   7.505 -0.2890 -0.2992  0.2647
  168SOPE   H7X18981   4.351   2.077   7.504 -1.0265 -0.8247 -0.9890
  168SOPE   H7Y18982   4.188   2.139   7.461  0.5117 -1.5611 -0.7661
  168SOPE   C3818983   4.276   2.217   7.649 -0.0022 -0.0005 -0.3747
  168SOPE   H8X18984   4.247   2.324   7.658  1.3964  0.2640  1.1451
  168SOPE   H8Y18985   4.378   2.236   7.690 -1.3454  0.7826  2.7510
  168SOPE   C3918986   4.191   2.134   7.739 -0.1055 -0.2961 -0.6591
  168SOPE   H9X18987   4.091   2.108   7.697 -0.8147  3.5816 -1.5922
  168SOPE   H9Y18988   4.174   2.188   7.835 -1.3224 -1.3954 -0.2255
  168SOPE  C31018989   4.254   1.996   7.779 -0.6420  0.3409  1.1364
  168SOPE  H10X18990   4.362   2.018   7.794 -0.6341 -0.6479  2.6084
  168SOPE  H10Y18991   4.256   1.936   7.685  0.8320  1.7307  0.2495
  168SOPE  C31118992   4.182   1.929   7.894 -0.2144 -0.0264 -0.1874
  168SOPE  H11X18993   4.211   1.821   7.898 -0.4738 -0.0220  2.9975
  168SOPE  H11Y18994   4.072   1.921   7.881 -0.2681 -4.2584  1.9460
  168SOPE  C31218995   4.197   1.997   8.029 -0.2095  0.1640  0.6989
  168SOPE  H12X18996   4.170   2.104   8.026 -0.0655  0.2697  2.7462
  168SOPE  H12Y18997   4.305   1.989   8.056 -0.3593  0.9790  1.5447
  168SOPE  C31318998   4.110   1.932   8.139  0.7771  0.1876  0.2943
  168SOPE  H13X18999   4.175   1.847   8.169 -0.9212 -0.1873  3.0932
  168SOPE  H13Y19000   4.013   1.891   8.106  1.1773 -0.4100 -0.1628
  168SOPE  C31419001   4.102   2.022   8.257 -0.0610 -0.0065 -0.3557
  168SOPE  H14X19002   4.026   2.101   8.238 -1.1008 -0.6980  0.8189
  168SOPE  H14Y19003   4.198   2.067   8.288 -0.6542 -0.0684  1.6635
  168SOPE  C31519004   4.064   1.949   8.388 -0.5451  0.2018  0.0860
  168SOPE  H15X19005   4.075   2.015   8.477 -1.3679 -1.8491  1.7465
  168SOPE  H15Y19006   4.131   1.863   8.407  1.1418  1.7831  1.3677
  168SOPE  C31619007   3.912   1.903   8.380  0.0080 -0.7737 -0.3641
  168SOPE  H16X19008   3.908   1.832   8.295  0.8696 -1.4879  0.1891
  168SOPE  H16Y19009   3.842   1.981   8.344 -2.5202 -3.2860 -1.1054
  168SOPE  C31719010   3.866   1.843   8.502 -0.1243  1.2580  0.5733
  168SOPE  H17X19011   3.863   1.919   8.583  0.6354  0.1675  1.6453
  168SOPE  H17Y19012   3.942   1.767   8.532  0.9388  2.5918  1.3444
  168SOPE  C31819013   3.725   1.780   8.482 -0.5735  0.0267  0.3291
  168SOPE  H18X19014   3.688   1.736   8.577  0.3187  0.6394  0.9746
  168SOPE  H18Y19015   3.737   1.698   8.407  1.7770  2.3081 -1.9009
  168SOPE  H18Z19016   3.652   1.854   8.444 -0.5924 -0.3955 -0.4573
  169SOPE     N19017   6.775   4.505   6.151 -0.7470 -0.3590 -0.2702
  169SOPE   HN119018   6.771   4.600   6.111 -0.0538  0.4465  1.5344
  169SOPE   HN219019   6.680   4.472   6.180 -0.0219  0.4572  3.2022
  169SOPE   HN319020   6.819   4.527   6.242  2.1307  0.0461 -1.7205
  169SOPE   C1219021   6.854   4.411   6.069  0.4546  0.6638  0.1516
  169SOPE  H12A19022   6.949   4.466   6.048  0.5017  1.3536  2.0060
  169SOPE  H12B19023   6.803   4.404   5.971  0.6083  0.6139  0.0745
  169SOPE   C1119024   6.874   4.286   6.149  0.1595  0.6153 -0.0956
  169SOPE  H11A19025   6.916   4.218   6.072  1.3670  0.0048  1.0697
  169SOPE  H11B19026   6.779   4.252   6.196 -0.5691  0.4928 -1.6351
  169SOPE     P19027   7.035   4.222   6.363 -0.2341 -0.1393  0.2077
  169SOPE   O1319028   7.060   4.310   6.476 -0.3178  0.5521 -0.2537
  169SOPE   O1419029   7.153   4.140   6.314 -0.3935 -0.0957 -0.2137
  169SOPE   O1219030   6.979   4.311   6.247 -0.4435 -0.2608 -0.4156
  169SOPE   O1119031   6.918   4.121   6.387  0.2259 -0.0258 -0.2695
  169SOPE    C119032   6.820   4.143   6.487  0.7275  0.2483 -0.5105
  169SOPE    HA19033   6.744   4.063   6.474 -1.2648  1.5194  2.9710
  169SOPE    HB19034   6.776   4.244   6.472  1.2702  0.4565 -0.7312
  169SOPE    C219035   6.864   4.118   6.636  0.3903 -0.0680 -0.8928
  169SOPE    HS19036   6.944   4.190   6.666  0.5133 -1.0082  1.0824
  169SOPE   O2119037   6.910   3.980   6.649 -0.2275  0.0144 -0.5183
  169SOPE   C2119038   7.020   3.954   6.706 -0.1027  1.1456  0.1700
  169SOPE   O2219039   7.097   4.034   6.757 -0.3706  0.0767  0.2171
  169SOPE   C2219040   7.043   3.804   6.712 -0.7866  0.1509 -0.0400
  169SOPE   H2R19041   7.051   3.777   6.605  1.2722  0.6816 -0.0401
  169SOPE   H2S19042   6.957   3.754   6.761 -1.5502  0.0661 -1.4366
  169SOPE    C319043   6.745   4.138   6.731  0.1591 -0.2484 -0.7653
  169SOPE    HX19044   6.662   4.063   6.727  1.1854 -1.5320  1.1110
  169SOPE    HY19045   6.689   4.231   6.708 -2.2174 -1.3732  0.3221
  169SOPE   O3119046   6.792   4.142   6.862 -0.7906  0.6742  0.2430
  169SOPE   C3119047   6.825   4.270   6.897  0.7702 -0.4900 -0.7027
  169SOPE   O3219048   6.826   4.368   6.828  0.7869  0.0792  0.2564
  169SOPE   C3219049   6.840   4.273   7.054 -0.1315 -0.1619 -0.7589
  169SOPE   H2X19050   6.742   4.248   7.100 -0.5886  0.5732 -1.3184
  169SOPE   H2Y19051   6.856   4.379   7.086  0.5963  0.0645 -1.8611
  169SOPE   C2319052   7.167   3.752   6.793  0.1928 -0.3856  0.1852
  169SOPE   H3R19053   7.167   3.808   6.889  1.2573  0.3081 -0.2087
  169SOPE   H3S19054   7.263   3.791   6.755 -0.3661  0.5666 -0.2820
  169SOPE   C2419055   7.170   3.598   6.793  0.3928 -0.2499 -0.7778
  169SOPE   H4R19056   7.063   3.567   6.797 -0.6931  3.1616 -1.4000
  169SOPE   H4S19057   7.217   3.558   6.700  0.6306 -0.0887 -0.7254
  169SOPE   C2519058   7.250   3.541   6.912 -0.0416 -0.5481 -0.4999
  169SOPE   H5R19059   7.289   3.439   6.891  0.1982 -0.0018 -2.9194
  169SOPE   H5S19060   7.332   3.612   6.939 -0.2237 -0.2281 -0.7803
  169SOPE   C2619061   7.156   3.532   7.038 -0.4467 -0.0839  0.8295
  169SOPE   H6R19062   7.120   3.633   7.066 -2.4402 -1.1123  2.1352
  169SOPE   H6S19063   7.074   3.461   7.014  1.4101 -1.9471 -0.2563
  169SOPE   C2719064   7.234   3.465   7.154 -0.3668  0.8256  0.5201
  169SOPE   H7R19065   7.257   3.358   7.138  0.8018  0.8125  2.1297
  169SOPE   H7S19066   7.336   3.507   7.165  2.1189 -4.5272 -0.4604
  169SOPE   C2819067   7.158   3.492   7.284  0.6774  0.2872  0.0364
  169SOPE   H8R19068   7.106   3.588   7.267  0.3641  0.7312  3.1391
  169SOPE   H8S19069   7.083   3.411   7.299  1.4567  0.0052  2.7227
  169SOPE   C2919070   7.244   3.495   7.411  0.4376  0.5009 -0.0917
  169SOPE   H9119071   7.301   3.588   7.424 -0.3343  1.0613 -0.6389
  169SOPE  C21019072   7.248   3.408   7.513 -0.1618 -0.1606 -0.2063
  169SOPE  H10119073   7.314   3.437   7.596  1.3825 -0.2043 -1.3921
  169SOPE  C21119074   7.169   3.278   7.527 -0.1209 -0.7392 -0.3941
  169SOPE  H11R19075   7.243   3.196   7.524 -0.3871 -1.0268  0.9430
  169SOPE  H11S19076   7.097   3.260   7.444 -2.5339 -1.9733  1.9180
  169SOPE  C21219077   7.076   3.276   7.645 -0.2865 -0.3639 -0.3717
  169SOPE  H12R19078   6.983   3.219   7.623 -1.1502  1.6293 -2.0787
  169SOPE  H12S19079   7.027   3.369   7.681 -2.2164 -0.8324 -1.6842
  169SOPE  C21319080   7.125   3.210   7.779  0.0141 -0.4752  0.2564
  169SOPE  H13R19081   7.170   3.114   7.748 -0.4045 -0.0883 -1.5677
  169SOPE  H13S19082   7.043   3.197   7.854  1.9456 -1.4185  2.2676
  169SOPE  C21419083   7.234   3.298   7.847  0.4098 -0.3001  0.1435
  169SOPE  H14R19084   7.181   3.385   7.892 -1.5447 -1.8362  0.9250
  169SOPE  H14S19085   7.312   3.329   7.775 -0.1555  0.6394 -0.0689
  169SOPE  C21519086   7.297   3.212   7.960  0.2368  0.5717 -0.1622
  169SOPE  H15R19087   7.369   3.137   7.921 -0.5117  0.1493 -0.7445
  169SOPE  H15S19088   7.213   3.169   8.018  1.1398 -1.4437 -0.2770
  169SOPE  C21619089   7.381   3.306   8.044 -0.4009 -0.0348 -0.1547
  169SOPE  H16R19090   7.334   3.402   8.016 -1.9577 -0.9251 -0.6949
  169SOPE  H16S19091   7.490   3.298   8.026 -0.2535 -0.3242  0.8034
  169SOPE  C21719092   7.365   3.288   8.194  0.3343 -0.7860 -0.6762
  169SOPE  H17R19093   7.256   3.288   8.216  0.1881  3.3689 -1.0682
  169SOPE  H17S19094   7.392   3.388   8.234 -1.0131 -0.0226 -1.6313
  169SOPE  C21819095   7.440   3.171   8.266  0.6819 -0.1410 -0.1246
  169SOPE  H18R19096   7.394   3.161   8.367 -1.6113 -0.5859 -1.1928
  169SOPE  H18S19097   7.549   3.188   8.279  0.3553  0.5268  1.9238
  169SOPE  H18T19098   7.416   3.078   8.210 -0.6793  0.0963  0.0396
  169SOPE   C3319099   6.945   4.167   7.104 -0.3340 -0.8333  0.3408
  169SOPE   H3X19100   7.042   4.218   7.124  0.1232 -1.8989  0.8943
  169SOPE   H3Y19101   6.967   4.088   7.029 -0.4450 -0.0587 -0.5103
  169SOPE   C3419102   6.915   4.119   7.249 -0.2245  0.7126 -0.8859
  169SOPE   H4X19103   6.983   4.036   7.279 -0.7032  0.8542  0.6341
  169SOPE   H4Y19104   6.816   4.069   7.248  0.8829 -1.5963  0.4432
  169SOPE   C3519105   6.916   4.219   7.362  0.4508  0.2765 -0.5539
  169SOPE   H5X19106   6.891   4.325   7.341  0.9651  0.6471  0.6470
  169SOPE   H5Y19107   7.015   4.231   7.410 -0.3965 -2.6825  2.1828
  169SOPE   C3619108   6.819   4.178   7.469 -0.3579 -0.1077  0.1472
  169SOPE   H6X19109   6.815   4.067   7.476  1.8647 -0.3233 -1.6342
  169SOPE   H6Y19110   6.720   4.212   7.431 -0.7863 -3.5845 -2.1645
  169SOPE   C3719111   6.849   4.236   7.609  0.0242 -0.6061  0.1691
  169SOPE   H7X19112   6.832   4.345   7.603  1.1196 -0.3876  0.9569
  169SOPE   H7Y19113   6.952   4.212   7.643  0.1276  1.6973  1.5854
  169SOPE   C3819114   6.761   4.178   7.721 -0.1161 -0.1056 -0.4983
  169SOPE   H8X19115   6.657   4.182   7.680  0.5903 -1.1514 -2.4653
  169SOPE   H8Y19116   6.777   4.068   7.724 -2.8300 -0.5066  1.1925
  169SOPE   C3919117   6.789   4.240   7.862 -0.4864  0.0145 -0.4721
  169SOPE   H9X19118   6.777   4.350   7.853  0.0468  0.1604  0.5386
  169SOPE   H9Y19119   6.896   4.226   7.890 -0.1725 -1.1484 -2.1699
  169SOPE  C31019120   6.695   4.178   7.965  0.3748 -0.4084  0.0818
  169SOPE  H10X19121   6.733   4.076   7.991 -1.9116 -0.6470  2.7814
  169SOPE  H10Y19122   6.593   4.168   7.920  0.8917 -1.7812 -0.8276
  169SOPE  C31119123   6.687   4.260   8.101  0.2599 -0.5718  0.1449
  169SOPE  H11X19124   6.626   4.350   8.077 -1.1670 -1.1044  1.6056
  169SOPE  H11Y19125   6.792   4.275   8.132  0.2091 -0.8849  0.4741
  169SOPE  C31219126   6.607   4.182   8.205  0.5227  0.6054 -0.7667
  169SOPE  H12X19127   6.666   4.091   8.226 -1.8934 -0.7307  0.4976
  169SOPE  H12Y19128   6.508   4.163   8.158  0.5321 -1.0438 -0.1290
  169SOPE  C31319129   6.599   4.262   8.332 -0.2199  0.2628  0.5665
  169SOPE  H13X19130   6.547   4.357   8.308  1.0066  1.1575  1.3378
  169SOPE  H13Y19131   6.701   4.297   8.362 -0.0558  0.4947 -0.2424
  169SOPE  C31419132   6.536   4.199   8.454  0.0977 -0.0464  0.7789
  169SOPE  H14X19133   6.549   4.270   8.538 -0.3143  1.6702 -0.5754
  169SOPE  H14Y19134   6.591   4.105   8.478  0.8077  0.3281  0.6453
  169SOPE  C31519135   6.392   4.164   8.448 -0.3108 -0.0253 -0.0647
  169SOPE  H15X19136   6.371   4.121   8.348 -0.8594  0.8790 -0.3439
  169SOPE  H15Y19137   6.330   4.253   8.472 -0.1802  0.7728 -2.4998
  169SOPE  C31619138   6.352   4.050   8.544 -0.5338 -0.2876 -0.1584
  169SOPE  H16X19139   6.397   3.950   8.526 -0.3990 -0.6858  2.1700
  169SOPE  H16Y19140   6.243   4.036   8.528 -0.6774  0.1532  0.4204
  169SOPE  C31719141   6.377   4.085   8.691 -0.3439 -0.3410 -0.1135
  169SOPE  H17X19142   6.329   4.184   8.702 -2.0144 -1.0287 -0.9715
  169SOPE  H17Y19143   6.483   4.112   8.706 -0.6291  0.7121  0.0667
  169SOPE  C31819144   6.325   3.987   8.796 -1.0162 -0.5410 -0.2719
  169SOPE  H18X19145   6.227   3.956   8.754  0.6747 -3.3196 -2.4137
  169SOPE  H18Y19146   6.331   4.026   8.900  0.8541 -0.5948 -0.3356
  169SOPE  H18Z19147   6.380   3.891   8.787 -2.8512 -1.5158 -1.3241
  170SOPE     N19148   1.016   2.494   6.178 -0.6209 -0.8024  0.3182
  170SOPE   HN119149   1.119   2.487   6.188 -0.8554 -0.7231  3.1993
  170SOPE   HN219150   0.982   2.396   6.167  0.3858 -1.0039 -1.1745
  170SOPE   HN319151   0.988   2.555   6.099 -2.7774 -0.8921  0.9676
  170SOPE   C1219152   0.959   2.546   6.306 -0.6917 -0.3666 -0.7121
  170SOPE  H12A19153   0.848   2.553   6.298 -0.5662  1.0006 -1.3950
  170SOPE  H12B19154   1.019   2.632   6.342 -1.4755 -0.4184  0.7438
  170SOPE   C1119155   0.982   2.425   6.396 -0.1442 -0.3059 -0.1837
  170SOPE  H11A19156   0.967   2.450   6.504  4.2277 -0.7320  0.5947
  170SOPE  H11B19157   1.089   2.396   6.398 -0.1163 -0.3077 -1.5271
  170SOPE     P19158   0.852   2.193   6.441 -0.3339  0.1646 -0.0399
  170SOPE   O1319159   0.954   2.092   6.422  0.1209 -0.2209  0.3553
  170SOPE   O1419160   0.719   2.148   6.412 -0.3557 -0.3546  0.3747
  170SOPE   O1219161   0.892   2.319   6.356  1.1131 -0.4084  0.3485
  170SOPE   O1119162   0.855   2.249   6.581  0.3664 -0.0513 -0.2155
  170SOPE    C119163   0.753   2.351   6.623 -0.1653  0.2418  0.5445
  170SOPE    HA19164   0.719   2.416   6.540 -0.2953  0.1876  0.5541
  170SOPE    HB19165   0.807   2.418   6.693 -0.3605  2.5220 -1.4475
  170SOPE    C219166   0.638   2.302   6.719  0.1067  0.1094  0.3852
  170SOPE    HS19167   0.596   2.399   6.753  1.0898  1.0908 -1.1228
  170SOPE   O2119168   0.708   2.229   6.824 -0.2262 -0.1811 -0.0365
  170SOPE   C2119169   0.658   2.239   6.944  0.6628  0.5061  0.5534
  170SOPE   O2219170   0.557   2.305   6.973  0.2649  0.0221  0.7037
  170SOPE   C2219171   0.721   2.134   7.033  0.1015 -0.1600 -0.4842
  170SOPE   H2R19172   0.831   2.139   7.016 -0.1159  0.6181 -1.6916
  170SOPE   H2S19173   0.690   2.036   6.991  1.1695 -1.2248  1.1306
  170SOPE    C319174   0.544   2.212   6.650 -0.2760 -0.0809  0.1564
  170SOPE    HX19175   0.580   2.109   6.630 -2.2595 -0.9568  0.9466
  170SOPE    HY19176   0.530   2.267   6.555  1.3732  0.7909  0.4049
  170SOPE   O3119177   0.426   2.207   6.724  0.2381  0.9600  0.1483
  170SOPE   C3119178   0.394   2.104   6.804 -0.6249 -0.5908  0.1725
  170SOPE   O3219179   0.446   1.996   6.797  0.4810 -0.8418 -0.2328
  170SOPE   C3219180   0.271   2.135   6.880  0.5179 -0.3218 -0.8432
  170SOPE   H2X19181   0.192   2.158   6.805 -1.5254  2.0613  1.9206
  170SOPE   H2Y19182   0.281   2.226   6.943 -3.2245  0.1611 -0.8334
  170SOPE   C2319183   0.686   2.147   7.188 -0.4481 -0.5247 -0.3180
  170SOPE   H3R19184   0.575   2.154   7.195 -0.7171 -1.7494 -2.8030
  170SOPE   H3S19185   0.732   2.236   7.236  0.0654 -0.4300 -0.9872
  170SOPE   C2419186   0.736   2.016   7.257  0.2591  0.4314  0.0278
  170SOPE   H4R19187   0.710   1.932   7.189  1.1071 -1.0344  1.4820
  170SOPE   H4S19188   0.847   2.014   7.260  0.3394  0.1390 -2.0078
  170SOPE   C2519189   0.679   1.982   7.393  0.6118  0.4451  0.4877
  170SOPE   H5R19190   0.568   1.977   7.383  0.6346  1.3848 -0.4432
  170SOPE   H5S19191   0.714   1.880   7.420 -1.7288 -0.1906  1.2222
  170SOPE   C2619192   0.730   2.065   7.506  0.5104 -0.1273  0.5652
  170SOPE   H6R19193   0.841   2.067   7.500  0.6843 -0.4993  3.2040
  170SOPE   H6S19194   0.686   2.166   7.491  0.7645 -0.2156 -0.9089
  170SOPE   C2719195   0.681   2.010   7.643  0.2698  0.2886  0.6068
  170SOPE   H7R19196   0.581   2.055   7.660 -1.1129 -2.5573  0.2517
  170SOPE   H7S19197   0.682   1.899   7.642  0.9519  0.2867  1.3061
  170SOPE   C2819198   0.770   2.059   7.764  0.3775  0.2648  0.0171
  170SOPE   H8R19199   0.871   2.016   7.746  0.0091  0.8835 -4.0241
  170SOPE   H8S19200   0.786   2.169   7.770 -0.4961  0.3681  0.5184
  170SOPE   C2919201   0.727   2.002   7.897  0.9685  0.1527 -0.4534
  170SOPE   H9119202   0.713   1.893   7.887  1.7554  0.0787 -0.7280
  170SOPE  C21019203   0.713   2.062   8.017 -0.4919 -0.1456 -0.8365
  170SOPE  H10119204   0.689   2.011   8.111 -1.5302 -1.6687 -1.9040
  170SOPE  C21119205   0.720   2.215   8.038  0.9388  0.8187 -0.0687
  170SOPE  H11R19206   0.714   2.263   7.938 -1.1793 -1.4118 -1.0636
  170SOPE  H11S19207   0.814   2.244   8.089 -2.0488  1.6842  5.2899
  170SOPE  C21219208   0.599   2.271   8.120  0.3568 -0.0671  0.8003
  170SOPE  H12R19209   0.514   2.273   8.049  1.9690  0.1911 -1.1430
  170SOPE  H12S19210   0.624   2.375   8.147 -2.6070  1.2587 -1.3172
  170SOPE  C21319211   0.575   2.208   8.264  0.3164  0.2838 -0.4378
  170SOPE  H13R19212   0.547   2.102   8.249  1.0883  0.0755 -0.4100
  170SOPE  H13S19213   0.489   2.268   8.303 -0.5218  0.3647 -2.3315
  170SOPE  C21419214   0.694   2.221   8.351  0.1978 -0.2145  0.1393
  170SOPE  H14R19215   0.727   2.327   8.355 -1.3311  0.2559  0.5007
  170SOPE  H14S19216   0.765   2.151   8.302  0.2773 -1.6921  2.2633
  170SOPE  C21519217   0.690   2.177   8.504  0.5579  0.7901 -0.0684
  170SOPE  H15R19218   0.653   2.073   8.505 -4.0846  2.3199 -0.9072
  170SOPE  H15S19219   0.615   2.246   8.548  0.4870  1.2809 -0.9373
  170SOPE  C21619220   0.821   2.179   8.569  0.3060  0.0367 -0.7094
  170SOPE  H16R19221   0.857   2.284   8.582 -1.9749  0.5123  2.2545
  170SOPE  H16S19222   0.898   2.123   8.513  0.0057 -1.0789 -0.0075
  170SOPE  C21719223   0.830   2.119   8.710 -0.1685  0.2820  1.0633
  170SOPE  H17R19224   0.729   2.132   8.756 -1.0042  0.0882 -0.6670
  170SOPE  H17S19225   0.907   2.172   8.770  0.7423  0.2635 -0.0918
  170SOPE  C21819226   0.851   1.970   8.693  0.5057  0.2622  0.4366
  170SOPE  H18R19227   0.837   1.923   8.792  1.2457 -1.4333 -0.2555
  170SOPE  H18S19228   0.954   1.951   8.656  0.3597 -0.5413  0.4357
  170SOPE  H18T19229   0.772   1.928   8.627 -0.3145 -0.2542  1.7343
  170SOPE   C3319230   0.225   2.013   6.972 -0.6799 -0.5616  0.2483
  170SOPE   H3X19231   0.308   1.979   7.038  0.4291  0.8360 -0.3952
  170SOPE   H3Y19232   0.200   1.934   6.899 -1.4219  0.6964 -0.8797
  170SOPE   C3419233   0.101   2.034   7.065 -0.0463  0.1160  0.1266
  170SOPE   H4X19234   0.016   1.978   7.020  0.8431 -1.0311 -0.1568
  170SOPE   H4Y19235   0.070   2.141   7.068 -0.2019  0.0467  2.5669
  170SOPE   C3519236   0.141   1.997   7.207  0.2878  0.8619 -0.4063
  170SOPE   H5X19237   0.179   1.895   7.227 -0.0715  0.9838  0.9832
  170SOPE   H5Y19238   0.054   1.996   7.277 -0.7533 -0.2323 -1.6995
  170SOPE   C3619239   0.237   2.098   7.278  0.2305 -0.0272  0.5832
  170SOPE   H6X19240   0.181   2.194   7.269  0.7339  0.1036 -1.3632
  170SOPE   H6Y19241   0.322   2.110   7.207  1.0515  1.3522  1.7475
  170SOPE   C3719242   0.292   2.063   7.417 -0.1120 -0.1106 -0.3663
  170SOPE   H7X19243   0.380   2.130   7.429  0.7089 -0.3161 -4.3409
  170SOPE   H7Y19244   0.314   1.955   7.426 -0.6164 -0.1198  0.7363
  170SOPE   C3819245   0.196   2.091   7.527 -0.0281 -0.1826 -0.5641
  170SOPE   H8X19246   0.103   2.030   7.523  0.4572 -0.8772 -1.3056
  170SOPE   H8Y19247   0.171   2.199   7.532  1.3698  0.1173  0.4217
  170SOPE   C3919248   0.256   2.060   7.668 -0.6645 -0.5161 -0.2029
  170SOPE   H9X19249   0.307   2.154   7.697  3.4436 -2.5874 -0.3061
  170SOPE   H9Y19250   0.333   1.980   7.668  1.3362  1.3469  2.2687
  170SOPE  C31019251   0.152   2.033   7.778  0.2091 -0.2688 -0.6089
  170SOPE  H10X19252   0.082   1.953   7.746 -1.2603  0.9460 -0.4936
  170SOPE  H10Y19253   0.081   2.117   7.793 -2.5133 -2.1800 -2.4040
  170SOPE  C31119254   0.216   2.000   7.912  0.3688  0.3224 -0.3051
  170SOPE  H11X19255   0.287   2.080   7.943  1.5599 -0.8360  0.0172
  170SOPE  H11Y19256   0.277   1.908   7.907  2.0825  1.3106  1.4828
  170SOPE  C31219257   0.109   1.987   8.022 -0.2414  0.3926  0.0704
  170SOPE  H12X19258   0.054   1.896   7.991  1.7789 -0.9699  0.3914
  170SOPE  H12Y19259   0.040   2.074   8.024 -0.3317  0.3403 -0.7168
  170SOPE  C31319260   0.176   1.976   8.165  0.0937 -0.2368 -0.3734
  170SOPE  H13X19261   0.238   2.066   8.180  0.8265 -0.7270 -0.4608
  170SOPE  H13Y19262   0.252   1.895   8.164  1.9184  1.4595 -1.1279
  170SOPE  C31419263   0.072   1.949   8.276  0.2668 -0.7651  0.2740
  170SOPE  H14X19264   0.047   1.841   8.284  1.1868 -1.1861 -2.0484
  170SOPE  H14Y19265  -0.029   1.995   8.265 -0.1078 -1.8980 -1.2423
  170SOPE  C31519266   0.127   1.993   8.418  0.4662 -0.8842  0.2749
  170SOPE  H15X19267   0.046   1.982   8.493  0.6424  2.0987  0.9385
  170SOPE  H15Y19268   0.150   2.101   8.407 -3.3846  0.3336  3.2809
  170SOPE  C31619269   0.261   1.929   8.460  0.6290 -0.2626  1.0181
  170SOPE  H16X19270   0.341   1.931   8.383 -0.8372 -1.2619 -0.5846
  170SOPE  H16Y19271   0.240   1.820   8.471 -0.6973 -0.1607 -0.3650
  170SOPE  C31719272   0.309   1.975   8.599  0.1807  0.9555  0.3346
  170SOPE  H17X19273   0.215   1.977   8.658 -0.5755  1.9720 -0.8723
  170SOPE  H17Y19274   0.336   2.081   8.619 -2.7128  1.1287  3.8953
  170SOPE  C31819275   0.416   1.886   8.652 -0.0425 -0.1593 -0.0484
  170SOPE  H18X19276   0.381   1.785   8.680  0.3534 -0.0206  0.9600
  170SOPE  H18Y19277   0.474   1.938   8.731 -2.1252  1.6731  0.2880
  170SOPE  H18Z19278   0.486   1.876   8.566  0.3653  0.5315  0.1989
  171SOPE     N19279   1.836   5.104   6.450  0.0664 -0.2794  0.3018
  171SOPE   HN119280   1.795   5.023   6.399 -1.2435  0.3712  0.2830
  171SOPE   HN219281   1.883   5.169   6.385 -0.4928  1.5255  1.6460
  171SOPE   HN319282   1.908   5.064   6.513  0.4056  0.6889  0.5267
  171SOPE   C1219283   1.728   5.182   6.523  0.1456  0.0974  0.1048
  171SOPE  H12A19284   1.764   5.283   6.550 -1.1076  0.3942  0.6865
  171SOPE  H12B19285   1.709   5.133   6.621 -1.2509 -1.7089 -1.0292
  171SOPE   C1119286   1.604   5.200   6.438  0.0966  0.4191 -0.1975
  171SOPE  H11A19287   1.618   5.286   6.368  1.4294 -0.9714 -1.6758
  171SOPE  H11B19288   1.516   5.215   6.504  0.3425 -2.5275  0.8623
  171SOPE     P19289   1.449   5.002   6.337 -0.2859  0.1383  0.1324
  171SOPE   O1319290   1.478   4.858   6.314  0.3352  0.4151 -0.3593
  171SOPE   O1419291   1.374   5.068   6.225 -1.2100  0.4181 -0.6068
  171SOPE   O1219292   1.588   5.079   6.364 -0.2023 -0.3113 -0.1146
  171SOPE   O1119293   1.373   5.010   6.481 -1.1645 -0.4394 -0.3754
  171SOPE    C119294   1.231   5.032   6.477  0.1246 -0.9110 -0.4658
  171SOPE    HA19295   1.171   4.943   6.447  0.6682 -1.5824  0.4223
  171SOPE    HB19296   1.203   5.110   6.403  0.4638  0.1352  0.4910
  171SOPE    C219297   1.174   5.064   6.618 -0.0519 -0.4046  0.2367
  171SOPE    HS19298   1.075   5.112   6.601 -0.0402  0.7972  3.2824
  171SOPE   O2119299   1.255   5.144   6.705 -0.6453  1.4273  0.4513
  171SOPE   C2119300   1.262   5.278   6.672  0.1073  0.5487  0.4223
  171SOPE   O2219301   1.194   5.319   6.578  0.1536 -0.1777 -0.3506
  171SOPE   C2219302   1.378   5.359   6.730 -0.2293  0.0316 -0.0828
  171SOPE   H2R19303   1.337   5.456   6.763  1.7553  0.8861 -0.0433
  171SOPE   H2S19304   1.458   5.372   6.653  0.9243  1.3298  1.2989
  171SOPE    C319305   1.133   4.931   6.695 -0.0830 -0.3633 -0.2281
  171SOPE    HX19306   1.223   4.866   6.699  0.9738  1.1668  1.5703
  171SOPE    HY19307   1.056   4.880   6.633  1.4532 -1.3169 -1.3962
  171SOPE   O3119308   1.071   4.955   6.825  0.7307  0.0732 -0.4604
  171SOPE   C3119309   1.161   4.957   6.920  0.2842 -0.1792 -0.9289
  171SOPE   O3219310   1.279   4.940   6.904 -0.0145 -0.1242  0.4536
  171SOPE   C3219311   1.099   5.014   7.048  0.2524  0.2615 -0.2558
  171SOPE   H2X19312   0.990   5.021   7.030  0.3870  2.2146 -0.4078
  171SOPE   H2Y19313   1.142   5.115   7.063  0.6260 -0.0130  0.5624
  171SOPE   C2319314   1.432   5.287   6.851  0.9281 -0.4328  0.0223
  171SOPE   H3R19315   1.530   5.336   6.871  0.1484  0.5871  1.4515
  171SOPE   H3S19316   1.448   5.178   6.843 -0.7083 -0.7928  1.4074
  171SOPE   C2419317   1.350   5.321   6.980 -0.2803  0.4415 -0.1423
  171SOPE   H4R19318   1.327   5.429   6.996  0.6183  0.5094  0.7982
  171SOPE   H4S19319   1.258   5.263   6.957 -0.0724  0.5215 -1.1763
  171SOPE   C2519320   1.423   5.255   7.099  0.1856  0.0390  0.3850
  171SOPE   H5R19321   1.464   5.155   7.073  2.5444  1.2442 -0.7398
  171SOPE   H5S19322   1.517   5.308   7.123  0.7373 -1.1667  0.9520
  171SOPE   C2619323   1.336   5.262   7.227  0.0514 -0.0136 -0.3304
  171SOPE   H6R19324   1.237   5.312   7.218 -0.9234 -1.4406  1.9659
  171SOPE   H6S19325   1.321   5.157   7.258 -0.0243 -0.1161 -0.7180
  171SOPE   C2719326   1.401   5.332   7.347 -0.0563  1.0351 -0.1103
  171SOPE   H7R19327   1.504   5.294   7.360 -0.2595  0.7357  0.6625
  171SOPE   H7S19328   1.410   5.436   7.310 -1.1157  0.3671 -2.3687
  171SOPE   C2819329   1.331   5.320   7.479 -0.3487 -0.5814 -0.3135
  171SOPE   H8R19330   1.240   5.383   7.471  0.5430  0.9814  1.5574
  171SOPE   H8S19331   1.309   5.212   7.499 -0.9288 -0.4357 -0.1418
  171SOPE   C2919332   1.407   5.384   7.596 -0.6489 -0.2980  0.4904
  171SOPE   H9119333   1.434   5.489   7.576 -2.2298 -0.0790 -0.6053
  171SOPE  C21019334   1.440   5.327   7.711 -0.0214 -0.0354  0.3685
  171SOPE  H10119335   1.500   5.380   7.787  1.7898 -2.1226  0.4629
  171SOPE  C21119336   1.413   5.181   7.748 -0.5820 -0.2515 -0.7555
  171SOPE  H11R19337   1.469   5.146   7.838 -1.6242  0.2311  0.0993
  171SOPE  H11S19338   1.439   5.111   7.666  1.8659 -0.3187  0.0319
  171SOPE  C21219339   1.268   5.156   7.795  0.0304 -0.0426  0.2637
  171SOPE  H12R19340   1.278   5.059   7.847 -2.9659 -0.3437  0.3604
  171SOPE  H12S19341   1.202   5.155   7.705 -0.6086  3.3131  0.6235
  171SOPE  C21319342   1.199   5.251   7.889 -0.4599 -0.5784 -0.0943
  171SOPE  H13R19343   1.092   5.224   7.896 -0.2786 -0.7672  2.9106
  171SOPE  H13S19344   1.205   5.360   7.866  0.5482 -0.6995 -0.4170
  171SOPE  C21419345   1.258   5.217   8.024 -0.8723 -0.3241 -0.3958
  171SOPE  H14R19346   1.368   5.234   8.021 -1.0071  0.4636 -1.7858
  171SOPE  H14S19347   1.234   5.112   8.049  3.0616 -1.2201 -0.0985
  171SOPE  C21519348   1.197   5.299   8.140 -0.0732 -0.0422 -0.3592
  171SOPE  H15R19349   1.233   5.254   8.235 -1.4168  1.4841  0.9031
  171SOPE  H15S19350   1.087   5.312   8.139  0.0811  1.3984 -2.0268
  171SOPE  C21619351   1.249   5.439   8.142  0.3740  0.2705  0.3599
  171SOPE  H16R19352   1.213   5.473   8.042  0.1275  0.3618  0.4801
  171SOPE  H16S19353   1.359   5.424   8.153  0.4955  0.7104 -0.2246
  171SOPE  C21719354   1.186   5.530   8.247 -0.1120  0.3771  0.5961
  171SOPE  H17R19355   1.256   5.610   8.279  2.5990 -0.9444 -1.8192
  171SOPE  H17S19356   1.152   5.466   8.331 -1.3723 -0.9014 -0.8420
  171SOPE  C21819357   1.052   5.600   8.197  0.1825  0.1407  0.0593
  171SOPE  H18R19358   1.071   5.670   8.113  1.5252 -3.7144 -3.0270
  171SOPE  H18S19359   0.995   5.651   8.277  0.2110  0.3033 -0.0243
  171SOPE  H18T19360   0.977   5.524   8.165 -0.1308  0.6015 -0.3051
  171SOPE   C3319361   1.128   4.927   7.174 -0.6436 -0.2835  0.6867
  171SOPE   H3X19362   1.239   4.926   7.181 -0.7131  1.8367  2.8126
  171SOPE   H3Y19363   1.083   4.825   7.173  0.2052 -0.6872 -2.6369
  171SOPE   C3419364   1.075   4.990   7.307 -0.3201  0.0970  1.0804
  171SOPE   H4X19365   0.964   4.996   7.311 -0.4724 -0.1910 -1.6388
  171SOPE   H4Y19366   1.110   5.094   7.326 -0.0757  0.1445  0.3595
  171SOPE   C3519367   1.120   4.905   7.427 -0.4794  0.4000  0.4312
  171SOPE   H5X19368   1.230   4.912   7.434 -0.5158 -1.0110  2.5788
  171SOPE   H5Y19369   1.120   4.798   7.395 -1.1280  0.3512  0.5936
  171SOPE   C3619370   1.032   4.936   7.552 -0.4861  0.0720 -0.0586
  171SOPE   H6X19371   0.922   4.927   7.541 -0.8520  2.6322  1.0036
  171SOPE   H6Y19372   1.027   5.047   7.564 -1.1618  0.0716 -0.3259
  171SOPE   C3719373   1.093   4.864   7.676  0.0289  0.5382  0.0736
  171SOPE   H7X19374   1.075   4.931   7.762  1.6985  2.3410 -0.9504
  171SOPE   H7Y19375   1.199   4.845   7.651  0.0758 -0.5738  1.0829
  171SOPE   C3819376   1.029   4.725   7.685  0.0573 -0.2426  0.0296
  171SOPE   H8X19377   1.062   4.659   7.602  1.3703 -0.5283  0.7562
  171SOPE   H8Y19378   0.919   4.725   7.671 -0.0349  0.1648  0.7324
  171SOPE   C3919379   1.069   4.652   7.810 -0.3681 -0.7176 -0.0922
  171SOPE   H9X19380   1.010   4.558   7.813 -2.5535  0.6498  0.6415
  171SOPE   H9Y19381   1.033   4.713   7.896 -1.3255 -3.3647  1.4130
  171SOPE  C31019382   1.220   4.636   7.832 -0.2766  0.4204 -0.3006
  171SOPE  H10X19383   1.268   4.734   7.851 -2.1860  1.3893 -0.3263
  171SOPE  H10Y19384   1.271   4.601   7.739 -0.2818  0.5050 -0.3352
  171SOPE  C31119385   1.260   4.524   7.933  0.1134  0.2154  0.1156
  171SOPE  H11X19386   1.366   4.508   7.904 -0.7399  0.1432 -3.1451
  171SOPE  H11Y19387   1.201   4.437   7.897 -0.1845 -0.1254  1.3991
  171SOPE  C31219388   1.241   4.556   8.081  0.7441  0.3336 -0.3810
  171SOPE  H12X19389   1.277   4.475   8.147 -2.8753  1.1949  2.8149
  171SOPE  H12Y19390   1.130   4.560   8.093  0.7977 -0.7599  0.5689
  171SOPE  C31319391   1.315   4.682   8.118 -0.1274 -0.4164  0.1779
  171SOPE  H13X19392   1.258   4.775   8.095 -1.8783 -1.7483 -1.0492
  171SOPE  H13Y19393   1.407   4.690   8.058 -0.8009 -2.0759 -1.1263
  171SOPE  C31419394   1.358   4.689   8.263  0.0369  0.5496 -0.2265
  171SOPE  H14X19395   1.420   4.600   8.286 -0.2899  0.6569  1.1202
  171SOPE  H14Y19396   1.268   4.680   8.328 -0.0009 -1.2013 -0.5002
  171SOPE  C31519397   1.438   4.813   8.311 -1.1951 -0.7792 -0.4176
  171SOPE  H15X19398   1.397   4.907   8.269  1.6087  1.1888  1.1130
  171SOPE  H15Y19399   1.540   4.802   8.268 -1.2774 -1.3975 -0.4700
  171SOPE  C31619400   1.442   4.821   8.468 -0.4963 -0.6130 -0.1227
  171SOPE  H16X19401   1.518   4.746   8.499  1.3082  0.9051 -0.7381
  171SOPE  H16Y19402   1.340   4.801   8.505 -0.4477 -1.2920 -0.3581
  171SOPE  C31719403   1.496   4.952   8.517 -0.5026  0.3382  0.5612
  171SOPE  H17X19404   1.602   4.961   8.484 -0.6276  1.1815  0.3800
  171SOPE  H17Y19405   1.509   4.934   8.626 -0.8586 -1.3690  0.3458
  171SOPE  C31819406   1.417   5.078   8.506  0.3769 -0.3694 -0.2791
  171SOPE  H18X19407   1.412   5.116   8.401  0.5055  0.6013  0.0564
  171SOPE  H18Y19408   1.463   5.151   8.576  0.1575  0.4530 -0.9856
  171SOPE  H18Z19409   1.313   5.055   8.538  0.1719 -0.4448 -0.9989
  172SOPE     N19410   1.668   0.376   6.238  0.3571 -0.4902  0.0209
  172SOPE   HN119411   1.673   0.359   6.136 -0.9861 -1.3595  0.0889
  172SOPE   HN219412   1.611   0.460   6.262  1.0479 -0.0972  0.2967
  172SOPE   HN319413   1.767   0.389   6.265  0.1520 -0.4774  0.7976
  172SOPE   C1219414   1.612   0.256   6.314  1.3097 -0.4836  0.4291
  172SOPE  H12A19415   1.680   0.171   6.291 -1.0958 -2.3012 -0.1590
  172SOPE  H12B19416   1.513   0.221   6.280  0.1113  1.3398  1.9215
  172SOPE   C1119417   1.613   0.289   6.464  0.8683 -0.8314 -0.4940
  172SOPE  H11A19418   1.704   0.349   6.485  0.2146 -0.1046  0.2407
  172SOPE  H11B19419   1.621   0.197   6.525 -0.4950 -1.9205 -1.9153
  172SOPE     P19420   1.425   0.367   6.638  0.4306 -0.4713 -0.1253
  172SOPE   O1319421   1.385   0.229   6.674 -0.6517  0.7574 -0.0069
  172SOPE   O1419422   1.327   0.475   6.639  0.2158 -0.8135 -0.1818
  172SOPE   O1219423   1.489   0.359   6.490  0.4145  0.4867 -0.0267
  172SOPE   O1119424   1.552   0.395   6.725  0.2527 -0.1101 -0.1936
  172SOPE    C119425   1.634   0.508   6.712  0.3009 -0.7086  0.0345
  172SOPE    HA19426   1.604   0.572   6.627  0.6130 -0.9732 -0.2800
  172SOPE    HB19427   1.739   0.476   6.692  0.1734  0.6110 -3.0103
  172SOPE    C219428   1.645   0.595   6.839 -0.5882  0.2117 -0.8834
  172SOPE    HS19429   1.738   0.571   6.895 -1.4963 -0.0519  0.5238
  172SOPE   O2119430   1.522   0.596   6.912 -0.2157  0.1296  0.0904
  172SOPE   C2119431   1.521   0.500   6.999  0.0769 -0.2080  0.1254
  172SOPE   O2219432   1.612   0.439   7.043  0.1227  0.3012  0.2329
  172SOPE   C2219433   1.373   0.482   7.048 -0.0727  0.1329 -0.0472
  172SOPE   H2R19434   1.330   0.401   6.985  0.2736  0.6081 -0.8989
  172SOPE   H2S19435   1.318   0.578   7.034 -2.3540 -1.5573 -3.4971
  172SOPE    C319436   1.677   0.740   6.793  1.0350 -0.4816 -0.3320
  172SOPE    HX19437   1.588   0.768   6.732  1.4277  5.3711  1.4616
  172SOPE    HY19438   1.758   0.742   6.717 -0.3379  0.1629 -1.8292
  172SOPE   O3119439   1.691   0.839   6.895  0.0580  0.6043 -0.1885
  172SOPE   C3119440   1.808   0.838   6.960 -0.0135  0.3163 -0.7908
  172SOPE   O3219441   1.903   0.767   6.935  0.0624  0.0780 -0.3252
  172SOPE   C3219442   1.792   0.946   7.068 -0.3160 -0.1846 -0.4677
  172SOPE   H2X19443   1.732   0.911   7.154 -0.8134  1.8769  0.0549
  172SOPE   H2Y19444   1.732   1.026   7.020  2.5860  2.2382 -0.2356
  172SOPE   C2319445   1.366   0.463   7.198  0.3129 -0.0060  0.3395
  172SOPE   H3R19446   1.259   0.473   7.224 -0.1466  1.3028 -1.9199
  172SOPE   H3S19447   1.425   0.540   7.254  0.5064 -0.2237  0.4364
  172SOPE   C2419448   1.412   0.332   7.251  0.0715  0.0417 -0.3643
  172SOPE   H4R19449   1.384   0.248   7.184  1.6929  0.1277 -1.1726
  172SOPE   H4S19450   1.522   0.342   7.243  0.4729 -4.1103 -1.2937
  172SOPE   C2519451   1.385   0.315   7.397 -0.2296 -0.7318 -0.3428
  172SOPE   H5R19452   1.403   0.403   7.463  1.4609 -0.0481 -1.6964
  172SOPE   H5S19453   1.277   0.290   7.403 -0.6804  1.1329 -0.4788
  172SOPE   C2619454   1.478   0.211   7.462 -0.0964  0.2386  0.1429
  172SOPE   H6R19455   1.469   0.116   7.406  3.1326  0.0060 -0.0661
  172SOPE   H6S19456   1.585   0.240   7.467 -0.5749  2.3507 -1.0693
  172SOPE   C2719457   1.416   0.181   7.602 -0.2850  0.4829  0.2644
  172SOPE   H7R19458   1.396   0.279   7.652 -2.0656 -0.5391  1.6169
  172SOPE   H7S19459   1.316   0.141   7.575 -0.2287  0.4641  0.0842
  172SOPE   C2819460   1.507   0.076   7.671 -0.0730 -0.1720  0.4397
  172SOPE   H8R19461   1.449   0.022   7.748  0.3303 -1.8832 -0.4414
  172SOPE   H8S19462   1.543   0.001   7.597 -1.2295 -1.8245  1.5309
  172SOPE   C2919463   1.627   0.143   7.735 -0.2978  0.1171  0.0577
  172SOPE   H9119464   1.710   0.173   7.670 -0.3203  0.6953  0.2951
  172SOPE  C21019465   1.643   0.174   7.865 -1.1831 -1.0926  0.0352
  172SOPE  H10119466   1.733   0.223   7.904 -2.8652  0.1903  2.4259
  172SOPE  C21119467   1.558   0.153   7.988 -0.1460 -0.0300 -0.2174
  172SOPE  H11R19468   1.490   0.068   7.967 -0.0378  0.3109 -2.0652
  172SOPE  H11S19469   1.483   0.232   8.011  1.0457  0.7625  1.0705
  172SOPE  C21219470   1.645   0.115   8.115 -0.1938 -0.9656  0.0042
  172SOPE  H12R19471   1.700   0.209   8.137 -2.0825  0.4733 -1.2614
  172SOPE  H12S19472   1.716   0.034   8.087 -0.0260 -1.2598  1.2441
  172SOPE  C21319473   1.575   0.076   8.243  0.3222 -0.4440 -0.0536
  172SOPE  H13R19474   1.651   0.042   8.317  1.3062 -1.3285 -1.4345
  172SOPE  H13S19475   1.522  -0.019   8.223  2.4930 -1.7959  0.4476
  172SOPE  C21419476   1.483   0.191   8.294  0.4211  0.6070  0.2005
  172SOPE  H14R19477   1.394   0.199   8.228  0.6245  0.5185 -0.0812
  172SOPE  H14S19478   1.544   0.284   8.291  2.2202 -0.4919  1.4466
  172SOPE  C21519479   1.439   0.154   8.431  0.6858 -0.3146  0.8556
  172SOPE  H15R19480   1.385   0.238   8.480 -0.8067 -0.9524  0.3495
  172SOPE  H15S19481   1.533   0.135   8.486  1.5610 -1.0985 -0.8625
  172SOPE  C21619482   1.344   0.036   8.442  0.0679  0.4231  0.1463
  172SOPE  H16R19483   1.312   0.028   8.548  0.8469 -1.1386  0.2739
  172SOPE  H16S19484   1.404  -0.055   8.418  0.5776  0.4023  1.4992
  172SOPE  C21719485   1.216   0.030   8.354 -0.2742  0.3062  0.4058
  172SOPE  H17R19486   1.248   0.047   8.249  0.5983 -1.0838  0.4406
  172SOPE  H17S19487   1.149   0.116   8.380 -2.5061 -1.0957 -0.5202
  172SOPE  C21819488   1.138  -0.099   8.371  0.2154 -0.6416 -0.4195
  172SOPE  H18R19489   1.202  -0.189   8.354  2.2947  1.1747 -2.5825
  172SOPE  H18S19490   1.054  -0.103   8.297  0.9850 -3.7509 -1.2058
  172SOPE  H18T19491   1.102  -0.102   8.476  0.2276  0.8073 -0.3689
  172SOPE   C3319492   1.930   0.992   7.098  0.3540 -0.2192  0.0658
  172SOPE   H3X19493   1.975   1.036   7.007 -1.1515 -1.7358 -1.4415
  172SOPE   H3Y19494   1.993   0.909   7.136 -0.0582 -0.5031  0.1307
  172SOPE   C3419495   1.918   1.090   7.219  0.4265 -0.1174 -0.2609
  172SOPE   H4X19496   1.852   1.176   7.193 -0.2169 -0.5459 -0.0544
  172SOPE   H4Y19497   2.018   1.134   7.242  1.5130 -2.6577  0.0916
  172SOPE   C3519498   1.866   1.019   7.349 -0.3949 -0.2950 -0.3475
  172SOPE   H5X19499   1.915   0.920   7.361 -1.1775 -0.5873  0.4551
  172SOPE   H5Y19500   1.759   0.991   7.343 -0.6261  0.7494 -1.3410
  172SOPE   C3619501   1.878   1.103   7.475  0.3733  0.6920  0.0341
  172SOPE   H6X19502   1.828   1.199   7.450  1.6674  1.4720  0.4370
  172SOPE   H6Y19503   1.980   1.145   7.483  0.6817  0.0833 -0.6809
  172SOPE   C3719504   1.817   1.037   7.602 -1.4453  0.5126  0.7174
  172SOPE   H7X19505   1.879   0.948   7.625 -0.9774  0.1057 -2.0200
  172SOPE   H7Y19506   1.715   0.995   7.591 -0.8182 -0.7271 -0.4320
  172SOPE   C3819507   1.826   1.136   7.726  0.2684  0.1730  0.1898
  172SOPE   H8X19508   1.752   1.219   7.724  0.5906  0.5353  2.4418
  172SOPE   H8Y19509   1.928   1.178   7.741 -0.0586  0.9844  0.1760
  172SOPE   C3919510   1.787   1.059   7.852  0.1422  0.2294  0.0525
  172SOPE   H9X19511   1.824   0.955   7.860 -0.8523 -0.0958  0.4124
  172SOPE   H9Y19512   1.679   1.032   7.848  0.7265 -2.1601 -0.1544
  172SOPE  C31019513   1.812   1.128   7.990 -0.3859  0.1280  0.2959
  172SOPE  H10X19514   1.770   1.230   7.994 -0.0404  0.2481  0.9125
  172SOPE  H10Y19515   1.923   1.132   7.999 -0.3636 -2.9365  2.3872
  172SOPE  C31119516   1.751   1.051   8.108  0.1395  0.2397 -0.5028
  172SOPE  H11X19517   1.784   0.946   8.094  0.1485  0.1631  0.0954
  172SOPE  H11Y19518   1.640   1.052   8.101 -0.0451 -2.9372  1.0901
  172SOPE  C31219519   1.802   1.105   8.242 -0.6167 -0.3384  0.1032
  172SOPE  H12X19520   1.768   1.211   8.246 -1.2180 -0.3618 -2.9895
  172SOPE  H12Y19521   1.912   1.100   8.257 -0.9201  1.5026  3.3757
  172SOPE  C31319522   1.736   1.030   8.355  0.4381 -0.3164  0.4341
  172SOPE  H13X19523   1.781   0.929   8.358 -0.1351 -0.5763  0.3441
  172SOPE  H13Y19524   1.625   1.026   8.347  0.1701 -0.3350  3.4558
  172SOPE  C31419525   1.776   1.095   8.490  0.2063  0.8348  0.0107
  172SOPE  H14X19526   1.718   1.189   8.508 -0.0610  0.6247  0.2422
  172SOPE  H14Y19527   1.881   1.129   8.499  0.6268 -0.4667  0.0666
  172SOPE  C31519528   1.740   1.001   8.607 -0.6982  0.4386 -0.2443
  172SOPE  H15X19529   1.650   0.939   8.586  0.5999 -1.7339  0.4348
  172SOPE  H15Y19530   1.711   1.067   8.691 -1.0486 -0.4574  0.3486
  172SOPE  C31619531   1.859   0.909   8.639 -0.1196 -0.1070 -0.6959
  172SOPE  H16X19532   1.953   0.968   8.636 -0.1098 -0.0841  0.0926
  172SOPE  H16Y19533   1.858   0.850   8.544 -2.3631 -1.1854 -0.0423
  172SOPE  C31719534   1.845   0.820   8.766 -0.2201  0.2611 -0.4654
  172SOPE  H17X19535   1.741   0.782   8.771  0.2866 -1.3285 -1.7850
  172SOPE  H17Y19536   1.860   0.894   8.848  2.8026  0.0503 -0.7770
  172SOPE  C31819537   1.944   0.706   8.778 -0.5878 -0.4378 -0.6751
  172SOPE  H18X19538   1.919   0.627   8.703  0.1993  0.0613 -1.4715
  172SOPE  H18Y19539   1.950   0.658   8.877  0.3863  2.6507  0.8148
  172SOPE  H18Z19540   2.039   0.754   8.747 -0.9238  0.0625 -0.9417
  173SAPI   C1219541   3.750   5.084  10.624  0.2287 -0.0714  0.0993
  173SAPI    H219542   3.717   5.048  10.524  1.5989 -1.0236 -0.0197
  173SAPI    O219543   3.837   4.980  10.683 -0.4307 -0.3130  1.1189
  173SAPI   HO219544   3.779   4.904  10.687  0.5764 -1.0919  0.9959
  173SAPI   C1319545   3.817   5.213  10.599  0.4983 -0.1451  1.0055
  173SAPI    H319546   3.743   5.290  10.568  1.1023 -0.0926 -0.3798
  173SAPI    O319547   3.921   5.207  10.500 -0.4541  0.5742 -0.1255
  173SAPI   HO319548   3.951   5.297  10.485  0.0548  0.5183  0.5218
  173SAPI   C1419549   3.865   5.258  10.730  0.2608 -0.1103 -0.3133
  173SAPI    H419550   3.939   5.187  10.774 -1.7677 -1.4340  1.0611
  173SAPI    O419551   3.922   5.386  10.714 -0.1885  0.3967 -0.5570
  173SAPI   HO419552   4.017   5.382  10.724 -0.3928  0.3743  1.5513
  173SAPI   C1519553   3.755   5.265  10.830 -0.1292  0.8474 -0.0935
  173SAPI    H519554   3.690   5.347  10.791  0.1911  0.2473 -1.9330
  173SAPI    O519555   3.804   5.300  10.960 -0.0219 -0.1692  0.2974
  173SAPI   HO519556   3.790   5.395  10.970  3.4497  0.3586  1.0455
  173SAPI   C1619557   3.662   5.144  10.842 -0.5789  0.5636 -1.0381
  173SAPI    H619558   3.713   5.062  10.895  0.6877  2.6315  1.0550
  173SAPI    O619559   3.547   5.180  10.919 -0.3609  0.1178  0.0110
  173SAPI   HO619560   3.570   5.170  11.012 -0.0548 -1.9156 -0.2594
  173SAPI   C1119561   3.625   5.106  10.706  0.7502 -0.0352  0.2168
  173SAPI    H119562   3.566   5.190  10.663  1.0064  1.5482  2.8510
  173SAPI     P19563   3.393   4.982  10.631 -0.2410 -0.0077  0.3406
  173SAPI   O1319564   3.311   5.108  10.640 -0.8102  0.0224  0.1742
  173SAPI   O1419565   3.319   4.863  10.672  0.4945  0.1224 -0.0315
  173SAPI   O1219566   3.546   4.986  10.702 -0.0106  0.6907 -0.0418
  173SAPI   O1119567   3.423   4.965  10.474 -0.3458  0.4679 -0.5678
  173SAPI    C119568   3.517   4.871  10.424 -0.1806 -0.6513  0.5130
  173SAPI    HA19569   3.605   4.930  10.390  0.9351 -2.3696  0.3466
  173SAPI    HB19570   3.545   4.800  10.505  1.1265  2.0175  2.4805
  173SAPI    C219571   3.477   4.787  10.294 -0.7810  1.0559  0.0332
  173SAPI    HS19572   3.561   4.716  10.275 -1.5832  0.2120 -0.3723
  173SAPI   O2119573   3.466   4.877  10.182  0.1149  0.4685  0.2097
  173SAPI   C2119574   3.576   4.911  10.120 -0.2363  0.8435  0.4626
  173SAPI   O2219575   3.690   4.882  10.165  0.3916  1.1484 -0.1178
  173SAPI   C2219576   3.536   4.986   9.993 -0.2155 -0.1756 -0.7960
  173SAPI   H2R19577   3.429   4.962   9.972 -0.8904  1.2031  0.9197
  173SAPI   H2S19578   3.552   5.094  10.013  0.1703 -0.1264 -1.3530
  173SAPI    C319579   3.356   4.699  10.304 -0.1389  0.0621 -0.5314
  173SAPI    HX19580   3.273   4.768  10.331 -0.0519 -0.1109  0.1761
  173SAPI    HY19581   3.355   4.621  10.383 -0.0961 -0.2686 -0.8535
  173SAPI   O3119582   3.338   4.634  10.178 -0.2939  0.2864 -0.0802
  173SAPI   C3119583   3.209   4.610  10.154  0.1718  0.4681  0.2790
  173SAPI   O3219584   3.120   4.623  10.233  0.6253 -0.8489  0.0272
  173SAPI   C3219585   3.202   4.549  10.019 -0.1712 -0.1542  0.3860
  173SAPI   H2X19586   3.233   4.442  10.020 -1.1059 -0.4251  1.5269
  173SAPI   H2Y19587   3.264   4.611   9.951  1.1693  0.7858  2.4173
  173SAPI   C2319588   3.635   4.957   9.883 -0.8348  0.6148 -0.0650
  173SAPI   H3R19589   3.607   4.863   9.830  1.4508 -0.0914 -0.0551
  173SAPI   H3S19590   3.738   4.938   9.919 -0.0058  3.0023 -1.0912
  173SAPI   C2419591   3.632   5.054   9.763 -0.3766  0.4503  0.0254
  173SAPI   H4R19592   3.714   5.016   9.697 -1.8482 -0.7818 -1.1273
  173SAPI   H4S19593   3.669   5.147   9.811 -1.6727  1.0904 -0.2100
  173SAPI   C2519594   3.499   5.089   9.699  0.0574  0.6558 -0.5813
  173SAPI   H5R19595   3.432   5.149   9.762  4.0305  1.8135  2.8271
  173SAPI   C2619596   3.470   5.062   9.570 -0.5739  0.3647  0.5925
  173SAPI   H6R19597   3.364   5.074   9.545 -0.0092  1.2759 -1.4120
  173SAPI   C2719598   3.551   4.999   9.464 -0.5010  0.0805 -0.1493
  173SAPI   H7R19599   3.495   4.919   9.413 -1.7075  1.2179 -0.6300
  173SAPI   H7S19600   3.641   4.950   9.506  0.1219  0.4563 -1.0108
  173SAPI   C2819601   3.594   5.104   9.370  0.0923 -0.0158  0.3570
  173SAPI   H8R19602   3.673   5.175   9.398  0.7194 -0.8404  0.7184
  173SAPI   C2919603   3.545   5.113   9.250  0.4951 -0.9128  0.2753
  173SAPI   H9R19604   3.574   5.200   9.189  0.0451 -0.0563  1.2741
  173SAPI  C21019605   3.441   5.024   9.192 -0.0386  0.0976 -0.1244
  173SAPI  H10R19606   3.375   4.983   9.272  0.3067  0.6430  0.4420
  173SAPI  H10S19607   3.496   4.946   9.135 -2.8553 -0.2619 -2.4920
  173SAPI  C21119608   3.359   5.111   9.100 -1.0243 -0.2495 -0.3676
  173SAPI  H11R19609   3.294   5.188   9.143 -0.5190 -0.8346  1.4833
  173SAPI  C21219610   3.360   5.106   8.962  0.0330  0.0470 -0.1052
  173SAPI  H12R19611   3.291   5.177   8.916  0.8295  1.3538  0.6750
  173SAPI  C21319612   3.442   5.026   8.865 -0.0235 -0.1512 -0.2815
  173SAPI  H13R19613   3.389   5.032   8.768  0.0534  1.3953 -0.2326
  173SAPI  H13S19614   3.430   4.919   8.894 -0.9511 -0.3326 -1.3365
  173SAPI  C21419615   3.588   5.058   8.871 -0.0428 -0.2049 -0.2772
  173SAPI  H14R19616   3.630   5.043   8.972 -1.2085  0.4708  0.3231
  173SAPI  C21519617   3.665   5.095   8.766 -0.3782  0.3753 -0.8675
  173SAPI  H15R19618   3.766   5.131   8.788 -0.6966 -0.0445  1.3377
  173SAPI  C21619619   3.614   5.106   8.628  0.1631  0.3144 -0.0682
  173SAPI  H16R19620   3.589   5.213   8.620  1.3073  0.3832 -3.6394
  173SAPI  H16S19621   3.514   5.059   8.614  0.8789 -0.6334 -2.2348
  173SAPI  C21719622   3.721   5.079   8.516 -0.0058 -0.0380  0.0589
  173SAPI  H17R19623   3.674   5.073   8.416  2.6430  0.3885 -1.2561
  173SAPI  H17S19624   3.765   4.978   8.533 -0.9548 -0.4876 -0.1486
  173SAPI  C21819625   3.825   5.189   8.501 -0.7763  0.0102  0.0565
  173SAPI  H18R19626   3.870   5.204   8.601 -2.7401 -2.0199  1.2933
  173SAPI  H18S19627   3.775   5.288   8.494 -1.0842 -0.0020  1.9547
  173SAPI  C21919628   3.927   5.155   8.391 -0.5153  0.5576 -0.4609
  173SAPI  H19R19629   3.891   5.066   8.335 -0.7957  1.1649 -1.2576
  173SAPI  H19S19630   4.024   5.121   8.433 -0.3891  0.0996 -1.1247
  173SAPI  C22019631   3.950   5.273   8.297 -0.6833 -0.6754  0.2429
  173SAPI  H20R19632   4.033   5.252   8.226 -0.8173  2.0647 -0.7754
  173SAPI  H20S19633   3.975   5.367   8.351  1.1063  0.4489 -2.4389
  173SAPI  H20T19634   3.858   5.294   8.239 -0.5236 -1.1084 -0.1699
  173SAPI   C3319635   3.060   4.566   9.974 -0.5252 -0.0626 -0.3974
  173SAPI   H3X19636   3.060   4.670   9.935 -0.8433  0.1656  0.2040
  173SAPI   H3Y19637   2.977   4.538  10.043  0.0009  2.8362  1.5197
  173SAPI   C3419638   3.036   4.475   9.855 -0.2275  0.1396 -0.2728
  173SAPI   H4X19639   2.936   4.488   9.806  0.4868 -0.3894 -1.9138
  173SAPI   H4Y19640   3.034   4.369   9.889 -0.4359  0.4311  0.6348
  173SAPI   C3519641   3.135   4.473   9.738  0.0315 -0.4245 -0.1226
  173SAPI   H5X19642   3.080   4.406   9.668  1.2514 -0.6951 -0.8412
  173SAPI   H5Y19643   3.234   4.431   9.765  0.0067  1.6233  3.3503
  173SAPI   C3619644   3.168   4.609   9.669 -0.1219 -0.1444  0.1335
  173SAPI   H6X19645   3.230   4.681   9.726 -0.1210  0.2837 -0.4001
  173SAPI   H6Y19646   3.066   4.649   9.649  0.1015  0.2292 -0.2634
  173SAPI   C3719647   3.228   4.590   9.525 -0.0759 -0.1228 -0.4093
  173SAPI   H7X19648   3.181   4.501   9.478 -1.3992  0.4157 -0.1394
  173SAPI   H7Y19649   3.333   4.562   9.546  0.0820 -1.7038 -3.0629
  173SAPI   C3819650   3.214   4.717   9.443 -1.4440  0.0517 -0.1806
  173SAPI   H8X19651   3.273   4.796   9.492  2.6884 -2.4299 -0.9646
  173SAPI   H8Y19652   3.104   4.734   9.441 -1.4778 -0.0510  0.7030
  173SAPI   C3919653   3.269   4.704   9.304  0.1295  0.0946 -0.3666
  173SAPI   H9X19654   3.366   4.650   9.306  1.7262  2.8398 -0.7017
  173SAPI   H9Y19655   3.284   4.806   9.262 -0.1140  0.1508 -0.3146
  173SAPI  C31019656   3.177   4.629   9.207  0.1514  0.5277  0.8070
  173SAPI  H10X19657   3.080   4.684   9.204 -0.1302  0.1332  2.2293
  173SAPI  H10Y19658   3.156   4.527   9.246  0.0906  0.0866 -0.3275
  173SAPI  C31119659   3.230   4.629   9.064  0.3575  0.2350  0.3021
  173SAPI  H11X19660   3.326   4.573   9.068 -0.6778 -1.7951 -1.9012
  173SAPI  H11Y19661   3.243   4.732   9.025 -0.5319 -0.2870 -1.4068
  173SAPI  C31219662   3.140   4.557   8.964 -0.1875 -0.2138  0.3068
  173SAPI  H12X19663   3.041   4.601   8.986 -1.1027 -2.5674  0.9668
  173SAPI  H12Y19664   3.132   4.449   8.987  1.2164 -0.6698 -1.2120
  173SAPI  C31319665   3.164   4.578   8.815  0.1579  1.2748 -0.0491
  173SAPI  H13X19666   3.272   4.550   8.813 -0.6725 -2.3061  1.5150
  173SAPI  H13Y19667   3.154   4.681   8.775  1.0959  0.6678 -1.9335
  173SAPI  C31419668   3.095   4.493   8.710  0.4749 -0.4141 -0.2319
  173SAPI  H14X19669   3.082   4.390   8.750 -0.9324  0.5951  2.0236
  173SAPI  H14Y19670   3.160   4.469   8.624 -0.4476  1.9107 -1.6219
  173SAPI  C31519671   2.957   4.557   8.664  0.2719 -0.1923  0.4263
  173SAPI  H15X19672   2.990   4.655   8.622  0.3818 -0.3596  0.1203
  173SAPI  H15Y19673   2.902   4.582   8.757 -0.8290  0.0873 -0.2965
  173SAPI  C31619674   2.885   4.477   8.554  0.4628  0.4866  1.0037
  173SAPI  H16X19675   2.926   4.500   8.453 -2.8557 -0.7635 -0.7029
  173SAPI  H16Y19676   2.779   4.510   8.545  0.8908  1.3051 -1.7049
  173SAPI  C31719677   2.854   4.338   8.594  0.3596 -0.2792 -0.1736
  173SAPI  H17X19678   2.845   4.327   8.704  0.8166 -0.5011 -0.1572
  173SAPI  H17Y19679   2.948   4.283   8.576  0.9733  0.8689 -0.5451
  173SAPI  C31819680   2.737   4.277   8.513  0.8213  0.0934  0.2543
  173SAPI  H18X19681   2.636   4.298   8.555  1.1017  0.9801  0.4828
  173SAPI  H18Y19682   2.742   4.166   8.504 -0.1805  0.0572  0.0271
  173SAPI  H18Z19683   2.743   4.314   8.408  0.6967  0.7365  0.4765
  174SAPI   C1219684   6.489   5.062  10.793 -0.3976 -0.2803 -0.6549
  174SAPI    H219685   6.586   5.095  10.750 -0.4494  0.0930 -0.4851
  174SAPI    O219686   6.400   5.024  10.687 -0.0790 -0.4311  0.0105
  174SAPI   HO219687   6.311   5.058  10.700 -1.0091 -2.7133 -0.2508
  174SAPI   C1319688   6.513   4.946  10.885 -0.1064  1.2772  0.1363
  174SAPI    H319689   6.573   4.989  10.968  1.0283  0.8279 -0.4449
  174SAPI    O319690   6.594   4.837  10.825 -0.2413 -0.5222 -0.3747
  174SAPI   HO319691   6.533   4.767  10.800 -0.7585  0.5896 -2.3677
  174SAPI   C1419692   6.383   4.903  10.944  0.1172 -0.2976 -0.0967
  174SAPI    H419693   6.311   4.872  10.865 -0.8600  2.2027 -0.2449
  174SAPI    O419694   6.403   4.792  11.032 -0.7684  0.5267  0.8290
  174SAPI   HO419695   6.328   4.733  11.024  1.5423 -2.1678 -3.0529
  174SAPI   C1519696   6.327   5.021  11.031  0.1136 -0.7959 -0.0833
  174SAPI    H519697   6.404   5.057  11.103  0.9467 -0.8167 -0.9458
  174SAPI    O519698   6.213   4.982  11.104  0.0027  0.2773  0.2216
  174SAPI   HO519699   6.245   4.920  11.169  1.2552  2.1546  1.4559
  174SAPI   C1619700   6.299   5.136  10.941  0.0476 -0.4452  0.6299
  174SAPI    H619701   6.225   5.106  10.864 -0.7164  1.3345  0.6653
  174SAPI    O619702   6.258   5.251  11.015 -0.4505 -0.9199  0.0054
  174SAPI   HO619703   6.274   5.328  10.961  2.2695 -0.7184  1.0270
  174SAPI   C1119704   6.423   5.181  10.870 -0.4674 -0.4545  1.2179
  174SAPI    H119705   6.502   5.208  10.943  1.5099  1.4172 -1.5113
  174SAPI     P19706   6.495   5.413  10.737  0.1773 -0.2739 -0.2889
  174SAPI   O1319707   6.601   5.442  10.835  0.2538  0.5671  0.2072
  174SAPI   O1419708   6.400   5.520  10.688  0.1749  0.2256 -0.1939
  174SAPI   O1219709   6.396   5.288  10.779  0.3894  0.0157  0.0368
  174SAPI   O1119710   6.562   5.350  10.604 -0.5606 -0.0025  0.2734
  174SAPI    C119711   6.497   5.266  10.498 -0.0358  0.1524 -1.0784
  174SAPI    HA19712   6.534   5.162  10.509 -0.0316  0.1030 -1.5717
  174SAPI    HB19713   6.388   5.254  10.519  0.8489 -2.3677  2.5839
  174SAPI    C219714   6.521   5.326  10.355  0.3582 -0.1230 -0.1798
  174SAPI    HS19715   6.475   5.273  10.269  0.1256  1.4115 -1.0269
  174SAPI   O2119716   6.670   5.341  10.348 -0.7269  0.2103 -0.1413
  174SAPI   C2119717   6.729   5.285  10.249  0.3026  0.0710 -0.0707
  174SAPI   O2219718   6.675   5.204  10.174  0.3561 -0.6861  0.3686
  174SAPI   C2219719   6.875   5.337  10.253 -0.1533  0.7316 -0.1820
  174SAPI   H2R19720   6.880   5.428  10.316  1.6164 -0.3113  1.2066
  174SAPI   H2S19721   6.936   5.265  10.311  0.7477 -0.6481 -2.7568
  174SAPI    C319722   6.462   5.472  10.343 -0.2804 -0.0252 -0.0807
  174SAPI    HX19723   6.516   5.535  10.416 -1.0703  0.8184 -0.2238
  174SAPI    HY19724   6.363   5.482  10.393 -0.1616 -0.2470  0.1990
  174SAPI   O3119725   6.483   5.528  10.211  0.1282  0.2235 -0.2199
  174SAPI   C3119726   6.382   5.515  10.132  0.3629  0.0159  0.4200
  174SAPI   O3219727   6.276   5.467  10.163  0.0367  0.4163 -0.2236
  174SAPI   C3219728   6.421   5.559   9.988 -0.4154  0.0574  0.3593
  174SAPI   H2X19729   6.506   5.629   9.999 -1.7006  1.5600  0.9419
  174SAPI   H2Y19730   6.336   5.622   9.955 -2.7652 -1.9072  2.4405
  174SAPI   C2319731   6.927   5.359  10.113  0.1760 -0.3358 -1.0210
  174SAPI   H3R19732   6.849   5.414  10.056  0.9049  1.6440 -0.1393
  174SAPI   H3S19733   6.933   5.261  10.060  2.3387 -1.9139  2.0080
  174SAPI   C2419734   7.066   5.433  10.099 -0.3087 -0.1363 -0.4289
  174SAPI   H4R19735   7.134   5.390  10.176 -0.6833 -2.3371 -1.2984
  174SAPI   H4S19736   7.057   5.543  10.115 -0.9131 -0.4185  1.2791
  174SAPI   C2519737   7.136   5.407   9.969  0.2344 -0.3915  0.3867
  174SAPI   H5R19738   7.199   5.319   9.989  1.2898  0.3174  0.2267
  174SAPI   C2619739   7.124   5.466   9.850  0.8328 -0.9132 -0.4954
  174SAPI   H6R19740   7.189   5.446   9.763  1.3011 -0.3138 -0.2927
  174SAPI   C2719741   7.046   5.591   9.819  0.8287 -0.1160  0.2608
  174SAPI   H7R19742   7.088   5.654   9.738  0.6257 -0.5071 -0.1525
  174SAPI   H7S19743   7.032   5.649   9.913 -1.3912 -3.4213  2.0824
  174SAPI   C2819744   6.912   5.550   9.760  0.9101  0.5602  0.2767
  174SAPI   H8R19745   6.835   5.546   9.839  1.1120 -2.6609  0.3735
  174SAPI   C2919746   6.885   5.503   9.633 -0.4999 -0.2635 -0.4751
  174SAPI   H9R19747   6.785   5.461   9.619  0.2241 -1.5128 -2.0236
  174SAPI  C21019748   6.995   5.496   9.534  0.2587  1.1785  0.6468
  174SAPI  H10R19749   7.076   5.439   9.584  0.3228  2.4219  1.9744
  174SAPI  H10S19750   7.029   5.599   9.510  1.2311  0.7112 -0.0350
  174SAPI  C21119751   6.950   5.425   9.413 -0.0917 -0.0372  0.2125
  174SAPI  H11R19752   6.882   5.340   9.433 -2.2660  1.6118  0.0543
  174SAPI  C21219753   6.966   5.458   9.289 -0.3774 -0.8955 -0.2825
  174SAPI  H12R19754   6.935   5.382   9.217  0.4603 -2.5730  1.0831
  174SAPI  C21319755   7.038   5.586   9.249 -0.9956 -0.1837 -0.1223
  174SAPI  H13R19756   7.097   5.558   9.158  1.6971  0.7773  1.2638
  174SAPI  H13S19757   7.114   5.606   9.327 -2.8536  2.0157  1.1715
  174SAPI  C21419758   6.954   5.712   9.251 -0.4360  0.4792 -0.0089
  174SAPI  H14R19759   6.937   5.749   9.353 -1.2447  2.0421 -0.6861
  174SAPI  C21519760   6.902   5.789   9.150 -1.2718 -0.4972  0.4617
  174SAPI  H15R19761   6.855   5.885   9.175 -1.2658  0.0705 -1.5967
  174SAPI  C21619762   6.919   5.756   9.000  0.3639  0.4121 -1.0477
  174SAPI  H16R19763   6.963   5.655   8.986 -1.5783 -0.4190 -1.3276
  174SAPI  H16S19764   6.984   5.829   8.949  1.0766 -0.3704 -1.2726
  174SAPI  C21719765   6.783   5.761   8.922  0.4480 -0.5259 -0.4729
  174SAPI  H17R19766   6.791   5.785   8.813  0.7001 -0.8726 -0.5321
  174SAPI  H17S19767   6.742   5.859   8.954 -1.7912 -1.1707 -1.2402
  174SAPI  C21819768   6.698   5.638   8.955 -0.3658 -0.9559 -0.0562
  174SAPI  H18R19769   6.684   5.626   9.064  0.2459 -2.5254 -0.1315
  174SAPI  H18S19770   6.774   5.560   8.933 -1.1881 -1.8857  0.3539
  174SAPI  C21919771   6.580   5.615   8.861 -0.2974  0.4296 -0.3622
  174SAPI  H19R19772   6.535   5.514   8.871 -0.6037  0.5798 -0.2403
  174SAPI  H19S19773   6.633   5.622   8.763  1.8668 -1.2820  0.6349
  174SAPI  C22019774   6.467   5.713   8.862 -0.0418 -0.6414  0.6047
  174SAPI  H20R19775   6.395   5.695   8.944  1.1580 -1.9783  1.3975
  174SAPI  H20S19776   6.409   5.725   8.768  0.7063 -1.7022 -0.0070
  174SAPI  H20T19777   6.508   5.816   8.868 -2.5451  0.4045  0.0625
  174SAPI   C3319778   6.457   5.441   9.898 -0.1993 -0.5799 -0.1498
  174SAPI   H3X19779   6.375   5.370   9.877 -1.2201 -0.1140  2.1130
  174SAPI   H3Y19780   6.533   5.383   9.955 -2.3257 -0.6385  2.7614
  174SAPI   C3419781   6.519   5.476   9.759 -0.2850 -0.2103 -0.4541
  174SAPI   H4X19782   6.526   5.378   9.705  0.3035 -0.7761  0.6364
  174SAPI   H4Y19783   6.610   5.533   9.787  0.6231  0.3288 -4.2110
  174SAPI   C3519784   6.421   5.564   9.680 -0.0155 -0.8120 -0.6501
  174SAPI   H5X19785   6.397   5.662   9.726 -1.8527 -1.3389 -0.4520
  174SAPI   H5Y19786   6.326   5.505   9.686 -0.3569 -0.3230 -1.2183
  174SAPI   C3619787   6.463   5.607   9.540 -0.1315  0.1552  0.2192
  174SAPI   H6X19788   6.522   5.525   9.494 -1.5546 -1.2447  0.8413
  174SAPI   H6Y19789   6.546   5.678   9.557  1.2286 -1.6184  1.2093
  174SAPI   C3719790   6.344   5.657   9.452  0.0778  0.1604 -0.3466
  174SAPI   H7X19791   6.300   5.742   9.508  0.9206 -0.6951  1.6632
  174SAPI   H7Y19792   6.270   5.573   9.447 -0.5137  0.7150 -0.9815
  174SAPI   C3819793   6.379   5.679   9.311 -0.2723  0.0194 -0.1522
  174SAPI   H8X19794   6.432   5.590   9.270  0.6668 -0.1831  1.5004
  174SAPI   H8Y19795   6.460   5.754   9.305  0.7299 -0.7228  3.1167
  174SAPI   C3919796   6.264   5.720   9.217  0.1350 -0.0919  0.1904
  174SAPI   H9X19797   6.185   5.642   9.222  1.5520 -1.5952 -0.4895
  174SAPI   H9Y19798   6.294   5.718   9.110  0.5732 -1.3835  0.3333
  174SAPI  C31019799   6.190   5.856   9.255  0.1495  0.6078  0.2331
  174SAPI  H10X19800   6.258   5.934   9.296 -1.0783  0.8333  1.8822
  174SAPI  H10Y19801   6.119   5.843   9.339  0.2279 -0.4325  0.1456
  174SAPI  C31119802   6.102   5.916   9.141 -0.2492 -0.3834 -0.3953
  174SAPI  H11X19803   6.031   5.840   9.102 -1.6937  1.1627 -0.8087
  174SAPI  H11Y19804   6.168   5.936   9.053 -1.9915  1.0119 -1.4078
  174SAPI  C31219805   6.030   6.052   9.168 -0.1628  0.3621 -0.4063
  174SAPI  H12X19806   6.116   6.118   9.195 -0.1550 -0.2196  1.0275
  174SAPI  H12Y19807   5.964   6.066   9.256  0.4839  0.3507  0.0840
  174SAPI  C31319808   5.966   6.094   9.037 -0.3321  0.1949 -0.0237
  174SAPI  H13X19809   5.885   6.021   9.014  1.2256 -1.3157 -0.8480
  174SAPI  H13Y19810   6.042   6.079   8.957  1.0021  1.7112  0.9338
  174SAPI  C31419811   5.923   6.239   9.040  0.2334  1.1295 -0.6242
  174SAPI  H14X19812   5.991   6.311   9.090  0.2238 -0.8264  2.2891
  174SAPI  H14Y19813   5.829   6.238   9.100  0.7673 -1.9385  0.2305
  174SAPI  C31519814   5.904   6.291   8.896 -0.4421  0.4401  0.5091
  174SAPI  H15X19815   5.823   6.230   8.852  0.8494 -1.9434  1.3199
  174SAPI  H15Y19816   5.996   6.270   8.838 -0.4101 -2.4826  1.5353
  174SAPI  C31619817   5.865   6.439   8.888  0.5678 -0.3144  0.3614
  174SAPI  H16X19818   5.947   6.496   8.937  0.6686  1.7851 -2.1415
  174SAPI  H16Y19819   5.766   6.447   8.938  1.3287  0.5968  1.7369
  174SAPI  C31719820   5.833   6.489   8.743  0.3517  0.1859  0.1003
  174SAPI  H17X19821   5.762   6.415   8.699 -0.9621  1.1701  0.5205
  174SAPI  H17Y19822   5.931   6.482   8.691  0.3064  1.8628 -0.2235
  174SAPI  C31819823   5.771   6.627   8.737 -0.4211 -0.4016 -0.6443
  174SAPI  H18X19824   5.797   6.694   8.822  0.7145  0.0479 -1.3175
  174SAPI  H18Y19825   5.660   6.622   8.741 -0.4440  0.6811  0.3751
  174SAPI  H18Z19826   5.806   6.677   8.643 -0.2643 -0.7108 -0.7496
  175SAPI   C1219827   2.774   4.397   6.222 -0.3663 -0.5188  0.1040
  175SAPI    H219828   2.806   4.305   6.169  3.3843  1.0307 -0.4568
  175SAPI    O219829   2.840   4.520   6.172  0.1831  0.5655 -0.3535
  175SAPI   HO219830   2.920   4.531   6.223  0.0140 -0.7832  0.2251
  175SAPI   C1319831   2.626   4.420   6.196 -0.0739  0.1912 -0.3155
  175SAPI    H319832   2.574   4.333   6.240 -0.1985 -0.2588 -1.3397
  175SAPI    O319833   2.596   4.438   6.056 -0.2761 -0.2889 -0.4276
  175SAPI   HO319834   2.633   4.524   6.038  0.5178 -0.8220 -1.3977
  175SAPI   C1419835   2.562   4.537   6.273  0.5947 -0.0225  0.8825
  175SAPI    H419836   2.605   4.632   6.235  0.4732  0.3540  1.6820
  175SAPI    O419837   2.420   4.553   6.253 -0.2033 -0.4070  0.7722
  175SAPI   HO419838   2.384   4.464   6.242 -2.3249  0.3299  1.4949
  175SAPI   C1519839   2.590   4.515   6.420 -0.0680  0.2986  1.1416
  175SAPI    H519840   2.545   4.417   6.448 -1.2228  1.4799  3.5610
  175SAPI    O519841   2.520   4.610   6.499  0.3391 -0.6141  0.1966
  175SAPI   HO519842   2.522   4.573   6.587 -0.0810  0.2664  0.5886
  175SAPI   C1619843   2.740   4.504   6.452 -0.7189  0.7575 -0.0056
  175SAPI    H619844   2.785   4.601   6.422 -1.4279  1.6540  1.7063
  175SAPI    O619845   2.758   4.494   6.595  0.3773  0.5593 -0.2114
  175SAPI   HO619846   2.820   4.565   6.616  1.0838 -0.2424  0.4654
  175SAPI   C1119847   2.806   4.384   6.377 -0.6005  0.3434  0.2693
  175SAPI    H119848   2.755   4.290   6.409  1.8601 -0.4774  1.9075
  175SAPI     P19849   3.041   4.243   6.416 -0.4732 -0.6400 -0.1051
  175SAPI   O1319850   3.178   4.256   6.365 -0.3731 -0.0316 -0.3267
  175SAPI   O1419851   2.968   4.120   6.356 -0.5727 -0.4809  0.8517
  175SAPI   O1219852   2.954   4.382   6.398  0.0072  0.0607 -0.1485
  175SAPI   O1119853   3.066   4.211   6.567 -0.0305 -0.0465 -0.3031
  175SAPI    C119854   3.062   4.310   6.668  0.7093  0.2905  0.3618
  175SAPI    HA19855   3.104   4.407   6.633 -0.5522  0.5621 -0.4378
  175SAPI    HB19856   2.955   4.320   6.696  0.6977 -1.1982  0.8952
  175SAPI    C219857   3.134   4.250   6.795  0.1867  0.3226  0.1612
  175SAPI    HS19858   3.082   4.153   6.806 -0.9473  0.8184 -0.6780
  175SAPI   O2119859   3.093   4.331   6.905  0.7966 -0.3965  0.3371
  175SAPI   C2119860   2.986   4.301   6.978  0.6774 -0.2445  0.1574
  175SAPI   O2219861   2.906   4.213   6.960 -0.2642 -0.6215 -0.1166
  175SAPI   C2219862   2.989   4.399   7.101 -0.5135 -0.6039 -0.4529
  175SAPI   H2R19863   2.991   4.502   7.061  1.9288 -1.4262 -2.5979
  175SAPI   H2S19864   2.897   4.372   7.157 -1.0925 -0.5584 -1.3775
  175SAPI    C319865   3.290   4.248   6.778 -0.2517 -0.9811 -0.1183
  175SAPI    HX19866   3.328   4.352   6.771 -0.5270 -0.9529 -1.4312
  175SAPI    HY19867   3.298   4.202   6.677  1.9228 -1.0378  0.0616
  175SAPI   O3119868   3.364   4.180   6.887 -0.4850 -0.4492 -0.2682
  175SAPI   C3119869   3.358   4.042   6.875  0.3479  0.8957 -0.1211
  175SAPI   O3219870   3.318   3.978   6.777 -0.1949  0.4966 -0.6627
  175SAPI   C3219871   3.415   3.978   6.997 -0.5490  0.3038  0.0262
  175SAPI   H2X19872   3.518   3.940   6.980 -1.4823 -2.4849  0.2081
  175SAPI   H2Y19873   3.363   3.881   7.016  0.1844 -0.2303 -0.6952
  175SAPI   C2319874   3.118   4.360   7.175  0.4526  0.0612  0.3320
  175SAPI   H3R19875   3.212   4.358   7.116 -0.1184 -4.2627 -0.5390
  175SAPI   H3S19876   3.109   4.259   7.220 -1.1914 -0.2250 -0.5819
  175SAPI   C2419877   3.133   4.456   7.288 -0.9424 -0.2517 -0.0011
  175SAPI   H4R19878   3.042   4.465   7.351 -1.0013  0.0179 -0.1239
  175SAPI   H4S19879   3.148   4.553   7.235 -0.4950 -0.8336 -0.9511
  175SAPI   C2519880   3.247   4.429   7.384  0.8168 -0.0747  0.4014
  175SAPI   H5R19881   3.346   4.457   7.347  0.4845  1.3475  0.5869
  175SAPI   C2619882   3.232   4.371   7.505  0.6691  0.1594 -0.1267
  175SAPI   H6R19883   3.322   4.364   7.568  0.5244  2.0527  0.3384
  175SAPI   C2719884   3.107   4.325   7.567 -0.3346  0.2453 -0.4740
  175SAPI   H7R19885   3.129   4.230   7.620 -0.1356  1.5042  1.8095
  175SAPI   H7S19886   3.031   4.292   7.493 -0.3113 -1.9069  0.4347
  175SAPI   C2819887   3.039   4.422   7.655 -0.0679  0.5337 -0.6192
  175SAPI   H8R19888   2.995   4.495   7.586  0.7734 -0.0864 -1.8363
  175SAPI   C2919889   3.022   4.426   7.791  0.0729 -0.1321  0.3812
  175SAPI   H9R19890   2.967   4.511   7.834 -0.9543  0.2746 -1.6636
  175SAPI  C21019891   3.075   4.324   7.883 -0.3063 -0.3318 -0.7402
  175SAPI  H10R19892   3.075   4.228   7.827 -1.4053 -0.3844 -0.6573
  175SAPI  H10S19893   3.001   4.308   7.964  1.5415  1.1882  1.3508
  175SAPI  C21119894   3.224   4.339   7.921 -0.4590 -0.6253 -0.1035
  175SAPI  H11R19895   3.281   4.385   7.839  0.1333  1.1182  1.2623
  175SAPI  C21219896   3.277   4.303   8.035  0.0555  0.2292 -0.6009
  175SAPI  H12R19897   3.382   4.326   8.060 -0.4704  1.2502  0.7381
  175SAPI  C21319898   3.199   4.241   8.146 -0.3183  0.6894 -0.0267
  175SAPI  H13R19899   3.234   4.136   8.139 -1.4203  0.3757 -1.0636
  175SAPI  H13S19900   3.088   4.253   8.143 -0.6740 -2.1865  0.5251
  175SAPI  C21419901   3.237   4.296   8.277 -0.2162 -0.0173  0.3086
  175SAPI  H14R19902   3.254   4.404   8.266 -2.3869  0.3321  0.1729
  175SAPI  C21519903   3.230   4.248   8.403 -0.9365  0.1846 -0.2548
  175SAPI  H15R19904   3.255   4.309   8.491  0.1681 -2.3249  1.2505
  175SAPI  C21619905   3.192   4.115   8.444 -0.3529  0.1927 -0.6916
  175SAPI  H16R19906   3.165   4.059   8.352  1.7653  0.6186 -1.6097
  175SAPI  H16S19907   3.100   4.122   8.506  1.1312  0.1773  1.5586
  175SAPI  C21719908   3.295   4.035   8.537  0.6863 -0.2312  0.0392
  175SAPI  H17R19909   3.256   3.932   8.550  2.5082 -1.1465 -1.4368
  175SAPI  H17S19910   3.300   4.087   8.635  0.5539 -0.6286  0.2553
  175SAPI  C21819911   3.436   4.018   8.483  0.0854  0.4419 -0.0601
  175SAPI  H18R19912   3.472   4.113   8.439 -1.3457  0.1399 -1.8872
  175SAPI  H18S19913   3.437   3.937   8.408  3.3535 -0.9228  1.3334
  175SAPI  C21919914   3.536   3.988   8.600  0.1321 -0.0448 -0.7899
  175SAPI  H19R19915   3.522   4.063   8.680 -2.6774  0.8746 -2.0738
  175SAPI  H19S19916   3.636   3.995   8.552  0.2000  0.1079 -0.6235
  175SAPI  C22019917   3.524   3.855   8.666  0.2963  0.0542  0.0967
  175SAPI  H20R19918   3.424   3.836   8.711  0.3380 -1.0732 -0.2865
  175SAPI  H20S19919   3.601   3.847   8.746 -1.4880  1.8854  2.0854
  175SAPI  H20T19920   3.544   3.773   8.595  0.2823  0.9865 -0.9947
  175SAPI   C3319921   3.407   4.061   7.121  0.1466  0.0202  0.6062
  175SAPI   H3X19922   3.300   4.086   7.132 -0.6396 -2.6149 -0.7886
  175SAPI   H3Y19923   3.463   4.156   7.103 -0.3232  0.0385 -0.7552
  175SAPI   C3419924   3.467   3.985   7.246  0.1615 -0.5736  1.2042
  175SAPI   H4X19925   3.571   3.951   7.228 -0.3057 -0.8097 -1.1748
  175SAPI   H4Y19926   3.411   3.888   7.245 -1.2144  0.2019 -2.0974
  175SAPI   C3519927   3.437   4.058   7.377 -0.1544  0.2694 -0.2817
  175SAPI   H5X19928   3.326   4.068   7.384 -0.0892  0.7158  0.1611
  175SAPI   H5Y19929   3.470   4.164   7.376 -2.8585  1.1671 -3.0057
  175SAPI   C3619930   3.491   3.978   7.502  0.5830 -0.0259  0.3126
  175SAPI   H6X19931   3.598   3.952   7.488 -0.0975 -3.1756  0.5677
  175SAPI   H6Y19932   3.435   3.882   7.499  0.7111 -0.0708 -1.0184
  175SAPI   C3719933   3.463   4.061   7.631  0.2492  0.4059 -0.2592
  175SAPI   H7X19934   3.356   4.090   7.640 -0.2376 -1.2470 -0.5069
  175SAPI   H7Y19935   3.542   4.139   7.635 -0.7370  1.5173 -1.7823
  175SAPI   C3819936   3.475   3.981   7.761 -0.3826  0.2734  1.0404
  175SAPI   H8X19937   3.390   3.910   7.759  1.3517 -1.8585 -0.0928
  175SAPI   H8Y19938   3.463   4.047   7.849  0.8787 -0.1659  1.5650
  175SAPI   C3919939   3.606   3.895   7.779  0.5734 -0.7858  0.4845
  175SAPI   H9X19940   3.685   3.971   7.763  1.2954 -0.9621  2.9849
  175SAPI   H9Y19941   3.607   3.816   7.701  1.7978 -1.0307  0.7453
  175SAPI  C31019942   3.625   3.834   7.918 -0.1210  0.3048 -0.3087
  175SAPI  H10X19943   3.556   3.747   7.926  0.1157  0.3988  3.9053
  175SAPI  H10Y19944   3.601   3.915   7.990  2.7345  1.2788 -0.4209
  175SAPI  C31119945   3.768   3.774   7.933 -0.3195 -0.1673  0.6397
  175SAPI  H11X19946   3.805   3.700   7.859 -0.3196 -1.3752  1.8321
  175SAPI  H11Y19947   3.758   3.717   8.028 -0.6809 -1.0853  0.0597
  175SAPI  C31219948   3.874   3.883   7.964  0.4551  0.2081  0.7981
  175SAPI  H12X19949   3.820   3.965   8.015  0.7705 -0.3945  2.1299
  175SAPI  H12Y19950   3.895   3.926   7.864  0.1309 -0.6230  0.3706
  175SAPI  C31319951   3.993   3.823   8.028 -0.4843  0.4221 -0.2752
  175SAPI  H13X19952   4.033   3.754   7.950  0.6862  0.4256  0.3117
  175SAPI  H13Y19953   3.970   3.757   8.114 -0.7134  1.9422  0.8460
  175SAPI  C31419954   4.090   3.931   8.086  0.5727 -0.7411 -0.4088
  175SAPI  H14X19955   4.118   4.000   8.004  1.3371  0.2524  0.6845
  175SAPI  H14Y19956   4.190   3.892   8.112  0.7526 -1.0357 -1.5241
  175SAPI  C31519957   4.033   4.014   8.202  0.1839  0.2107  0.0003
  175SAPI  H15X19958   3.948   4.065   8.151 -1.1896 -0.4967  1.5187
  175SAPI  H15Y19959   4.102   4.098   8.225 -0.5739  1.2469 -1.4091
  175SAPI  C31619960   3.999   3.948   8.331  0.0491  0.0872  0.3556
  175SAPI  H16X19961   4.081   3.881   8.363  0.0496  0.0929  0.3650
  175SAPI  H16Y19962   3.913   3.879   8.313  0.0520  0.3149 -0.5413
  175SAPI  C31719963   3.958   4.051   8.437  0.0613 -0.6528 -0.2200
  175SAPI  H17X19964   3.897   3.999   8.514 -0.3678 -0.8214 -0.6716
  175SAPI  H17Y19965   3.895   4.130   8.391  1.3898  0.4120 -0.2324
  175SAPI  C31819966   4.082   4.115   8.510  0.2262 -0.1225 -0.0392
  175SAPI  H18X19967   4.136   4.037   8.567 -0.1974 -0.5253 -0.1802
  175SAPI  H18Y19968   4.054   4.197   8.578 -0.0607  0.8291 -1.2818
  175SAPI  H18Z19969   4.148   4.157   8.431  0.6057  0.6040  0.6670
  176SAPI   C1219970   1.474   3.666   6.416 -0.1111  0.1239  0.0482
  176SAPI    H219971   1.548   3.613   6.353  0.1049  0.0275  0.3799
  176SAPI    O219972   1.518   3.806   6.429  0.7208 -0.1960  0.4206
  176SAPI   HO219973   1.604   3.821   6.470  0.2779  2.9819  0.3728
  176SAPI   C1319974   1.336   3.657   6.355 -0.2044  0.6361 -0.6208
  176SAPI    H319975   1.324   3.549   6.330 -1.1503  0.9316 -1.4681
  176SAPI    O319976   1.337   3.728   6.232  0.1266  0.0297 -0.0427
  176SAPI   HO319977   1.286   3.674   6.171 -1.0976  1.4667 -0.3228
  176SAPI   C1419978   1.217   3.702   6.446 -0.4828  0.4477 -0.0523
  176SAPI    H419979   1.233   3.810   6.465  2.3343 -0.2147  1.6735
  176SAPI    O419980   1.089   3.679   6.394  0.2388  0.0744  0.1348
  176SAPI   HO419981   1.079   3.729   6.313  1.2972 -2.0971 -1.3677
  176SAPI   C1519982   1.224   3.635   6.578  0.1458  0.3902  0.0894
  176SAPI    H519983   1.203   3.527   6.563 -1.8811  0.7963 -0.0938
  176SAPI    O519984   1.121   3.680   6.669 -0.5025 -0.0056 -0.0360
  176SAPI   HO519985   1.039   3.655   6.627 -1.0172 -0.1639  1.0475
  176SAPI   C1619986   1.359   3.648   6.640  0.6382 -0.0369  0.1906
  176SAPI    H619987   1.383   3.754   6.662  1.9650 -0.0528 -1.1013
  176SAPI    O619988   1.358   3.573   6.764  0.6454 -0.2470 -0.1545
  176SAPI   HO619989   1.449   3.557   6.788  0.7183  0.7279  0.2123
  176SAPI   C1119990   1.465   3.592   6.550  0.6162  0.6955 -0.2298
  176SAPI    H119991   1.435   3.490   6.519 -1.1196  0.4078  2.2416
  176SAPI     P19992   1.661   3.460   6.652 -0.1239 -0.0406  0.2766
  176SAPI   O1319993   1.797   3.484   6.713  0.1559  0.4698 -0.0549
  176SAPI   O1419994   1.657   3.374   6.535 -0.4861  0.5753  0.6986
  176SAPI   O1219995   1.584   3.599   6.616 -0.0695 -0.2615  0.1201
  176SAPI   O1119996   1.563   3.396   6.752 -0.0438 -0.0484 -0.7565
  176SAPI    C119997   1.620   3.333   6.879 -0.1097 -0.5116 -0.1386
  176SAPI    HA19998   1.695   3.400   6.927 -2.3836  2.2159 -0.2629
  176SAPI    HB19999   1.536   3.324   6.951 -0.4350 -0.6062 -0.5281
  176SAPI    C220000   1.690   3.196   6.856  0.7506  0.5214  0.3471
  176SAPI    HS20001   1.751   3.217   6.765 -0.5843  2.3845 -0.1682
  176SAPI   O2120002   1.583   3.096   6.836 -0.2116 -0.2110 -0.3712
  176SAPI   C2120003   1.623   2.998   6.754  0.0069  0.1423  0.5808
  176SAPI   O2220004   1.728   2.990   6.692  0.8743  0.1976 -0.0407
  176SAPI   C2220005   1.522   2.880   6.746  0.0959  0.0102  0.1576
  176SAPI   H2R20006   1.442   2.919   6.680  0.0289 -3.5490 -1.9549
  176SAPI   H2S20007   1.563   2.788   6.701 -0.7193 -0.8048  1.0475
  176SAPI    C320008   1.787   3.159   6.969  0.4439 -0.2219  0.6616
  176SAPI    HX20009   1.730   3.190   7.059 -0.9961 -1.2142  0.1090
  176SAPI    HY20010   1.875   3.226   6.958 -1.9209  2.9044  0.1394
  176SAPI   O3120011   1.815   3.018   6.980 -0.3163 -0.2937  0.1515
  176SAPI   C3120012   1.941   2.993   6.939  0.5292 -0.4167  0.0303
  176SAPI   O3220013   2.004   3.053   6.850  0.4364  0.3209 -0.0683
  176SAPI   C3220014   2.000   2.879   7.019  0.0101  0.2640  0.1516
  176SAPI   H2X20015   2.107   2.878   6.991 -0.1440  1.1170 -0.5125
  176SAPI   H2Y20016   1.953   2.781   6.995  1.9711 -0.6674  0.0183
  176SAPI   C2320017   1.470   2.836   6.885 -0.2103 -0.1967  0.0402
  176SAPI   H3R20018   1.390   2.761   6.862 -1.1743  0.4646  1.1485
  176SAPI   H3S20019   1.422   2.920   6.940  1.1990  0.6442 -0.0138
  176SAPI   C2420020   1.575   2.783   6.986 -0.3125 -0.0879  0.6584
  176SAPI   H4R20021   1.528   2.780   7.087  1.9597  2.0974  1.8057
  176SAPI   H4S20022   1.667   2.844   6.996  0.4300 -0.9424 -0.8559
  176SAPI   C2520023   1.623   2.637   6.959  0.4085  0.0865 -0.2012
  176SAPI   H5R20024   1.705   2.636   6.887 -0.4199  1.2875 -1.1801
  176SAPI   C2620025   1.570   2.520   7.010  0.2363  0.8585  0.5998
  176SAPI   H6R20026   1.609   2.426   6.970 -1.3960 -0.1353  1.3082
  176SAPI   C2720027   1.455   2.503   7.111  0.2529 -0.2143 -0.2773
  176SAPI   H7R20028   1.383   2.426   7.076 -0.5354  1.0871 -1.5620
  176SAPI   H7S20029   1.401   2.600   7.112  2.4653  1.0531  0.4087
  176SAPI   C2820030   1.515   2.459   7.250 -0.4372 -0.6165  0.3390
  176SAPI   H8R20031   1.619   2.424   7.250  0.0416  0.7833  0.5956
  176SAPI   C2920032   1.459   2.500   7.369 -0.2731 -0.1001 -0.2168
  176SAPI   H9R20033   1.503   2.475   7.467 -1.5709 -1.0697  0.1226
  176SAPI  C21020034   1.337   2.584   7.387 -0.3322 -0.3192  0.2664
  176SAPI  H10R20035   1.280   2.526   7.463 -1.3045 -1.3918 -1.2635
  176SAPI  H10S20036   1.273   2.598   7.297 -0.4881  0.7259  0.5315
  176SAPI  C21120037   1.380   2.726   7.427 -0.1229  0.2418 -0.0001
  176SAPI  H11R20038   1.433   2.787   7.352 -0.4214  1.0219  0.4195
  176SAPI  C21220039   1.360   2.789   7.542  0.1941  0.3694  0.0838
  176SAPI  H12R20040   1.387   2.895   7.552 -0.0530  0.6131 -1.6649
  176SAPI  C21320041   1.296   2.742   7.667  0.3607  0.0221 -0.1530
  176SAPI  H13R20042   1.372   2.695   7.732 -0.3252 -0.6166  0.2022
  176SAPI  H13S20043   1.220   2.662   7.656  1.3670 -1.6760  4.2045
  176SAPI  C21420044   1.221   2.847   7.746  1.4006 -0.2633 -1.2781
  176SAPI  H14R20045   1.133   2.890   7.695  0.5179  1.6368  1.7256
  176SAPI  C21520046   1.251   2.899   7.866  0.4647 -0.6636 -0.0156
  176SAPI  H15R20047   1.181   2.975   7.904 -0.4212  0.0044 -2.8179
  176SAPI  C21620048   1.368   2.859   7.954  0.2474 -0.3562 -0.4561
  176SAPI  H16R20049   1.460   2.887   7.899 -0.1760  0.2861 -0.8454
  176SAPI  H16S20050   1.376   2.748   7.966  1.1150 -0.1142  1.2794
  176SAPI  C21720051   1.365   2.913   8.097  0.8663  0.6910  0.1342
  176SAPI  H17R20052   1.444   2.861   8.156 -1.5501 -2.7497  0.4979
  176SAPI  H17S20053   1.272   2.878   8.148 -0.0356  1.3905 -1.0246
  176SAPI  C21820054   1.369   3.066   8.097  0.2888  0.2277 -0.2677
  176SAPI  H18R20055   1.283   3.103   8.037 -1.4857 -1.5517  1.1227
  176SAPI  H18S20056   1.471   3.083   8.056  0.0918  1.0838 -0.4035
  176SAPI  C21920057   1.368   3.129   8.238 -0.6466 -0.1510  0.5657
  176SAPI  H19R20058   1.455   3.095   8.299 -0.2513 -0.1759 -0.0156
  176SAPI  H19S20059   1.277   3.103   8.296 -2.0060 -2.4131 -2.4643
  176SAPI  C22020060   1.394   3.279   8.232  0.6890  0.5450  0.2184
  176SAPI  H20R20061   1.479   3.306   8.166  1.2129  0.0789  0.6955
  176SAPI  H20S20062   1.409   3.319   8.335  0.5473  0.4665  0.2678
  176SAPI  H20T20063   1.309   3.340   8.196 -1.1982 -2.5618 -0.7656
  176SAPI   C3320064   1.993   2.906   7.169  0.3347  0.6987  1.1167
  176SAPI   H3X20065   2.026   3.008   7.199  0.3416  0.8518  0.5945
  176SAPI   H3Y20066   2.073   2.841   7.211 -1.3824 -0.4544  2.6915
  176SAPI   C3420067   1.860   2.863   7.225 -0.3058 -0.5128  0.3226
  176SAPI   H4X20068   1.833   2.770   7.169 -1.1761  0.1975 -0.4423
  176SAPI   H4Y20069   1.772   2.930   7.213 -0.2452 -0.4839  0.0289
  176SAPI   C3520070   1.871   2.812   7.366  0.4564 -0.1851  0.3760
  176SAPI   H5X20071   1.891   2.902   7.428  0.2794  0.4063 -0.4168
  176SAPI   H5Y20072   1.960   2.745   7.365  1.7767  1.5142  1.6621
  176SAPI   C3620073   1.755   2.723   7.416  0.2379  0.1337 -0.3458
  176SAPI   H6X20074   1.726   2.651   7.337  2.4331  1.1327 -2.1507
  176SAPI   H6Y20075   1.663   2.781   7.438  0.1835 -0.1044  0.0566
  176SAPI   C3720076   1.784   2.644   7.554  0.2981  0.6484  0.4267
  176SAPI   H7X20077   1.865   2.568   7.553 -1.2297 -1.0539  2.1780
  176SAPI   H7Y20078   1.688   2.598   7.584 -0.3735  1.1265 -0.9798
  176SAPI   C3820079   1.822   2.747   7.667 -0.5931 -0.6537  1.0025
  176SAPI   H8X20080   1.902   2.817   7.635 -3.5439  1.9997 -0.8188
  176SAPI   H8Y20081   1.863   2.680   7.746 -0.3212 -2.7922 -0.9097
  176SAPI   C3920082   1.699   2.818   7.735  0.1544  0.1419  0.5928
  176SAPI   H9X20083   1.645   2.744   7.798 -0.0531  0.4957  0.8316
  176SAPI   H9Y20084   1.630   2.844   7.652 -0.6803 -1.2110  0.8643
  176SAPI  C31020085   1.732   2.928   7.829  0.2124 -0.5574 -0.4944
  176SAPI  H10X20086   1.640   2.969   7.876  1.1135  1.1974 -0.1925
  176SAPI  H10Y20087   1.784   3.013   7.780 -1.2973 -0.3606 -1.8040
  176SAPI  C31120088   1.832   2.892   7.938 -0.0057  0.8314 -0.2360
  176SAPI  H11X20089   1.929   2.864   7.891  0.2917 -1.6228  1.7214
  176SAPI  H11Y20090   1.803   2.793   7.979  0.6735  0.0557 -1.5457
  176SAPI  C31220091   1.865   2.999   8.043  0.3426 -0.0198 -0.2695
  176SAPI  H12X20092   1.777   3.016   8.108 -0.5350 -1.9187 -0.9239
  176SAPI  H12Y20093   1.898   3.094   7.996 -1.2229 -0.3567 -2.0722
  176SAPI  C31320094   1.982   2.958   8.134  0.2771  0.1918 -0.4685
  176SAPI  H13X20095   1.956   2.873   8.202  0.0187  1.7607  1.4417
  176SAPI  H13Y20096   1.992   3.034   8.214  1.7667 -1.2751  0.7777
  176SAPI  C31420097   2.113   2.929   8.067  0.0631 -0.9378 -0.1115
  176SAPI  H14X20098   2.204   2.980   8.106 -0.7286  0.5829 -0.2534
  176SAPI  H14Y20099   2.109   2.962   7.961  0.1211 -1.1010 -0.1643
  176SAPI  C31520100   2.152   2.779   8.068  0.5917 -0.1342 -1.2148
  176SAPI  H15X20101   2.248   2.782   8.011  1.4594  0.2278  0.2476
  176SAPI  H15Y20102   2.075   2.716   8.018 -0.4877  0.0900  0.1611
  176SAPI  C31620103   2.190   2.713   8.208  0.1131  0.5751  0.7213
  176SAPI  H16X20104   2.100   2.694   8.270 -0.2561 -1.7235 -0.4367
  176SAPI  H16Y20105   2.245   2.789   8.268  0.4223  0.5803  0.4337
  176SAPI  C31720106   2.259   2.585   8.192  0.2611  0.0114  0.5622
  176SAPI  H17X20107   2.330   2.599   8.108 -0.4698 -3.2936 -0.6751
  176SAPI  H17Y20108   2.184   2.507   8.166 -0.5423  1.3922 -1.3102
  176SAPI  C31820109   2.319   2.534   8.324  0.7971 -0.3600 -0.5999
  176SAPI  H18X20110   2.242   2.477   8.381  0.5820 -0.1256 -0.6504
  176SAPI  H18Y20111   2.357   2.618   8.386  2.6350 -0.2747 -1.8096
  176SAPI  H18Z20112   2.407   2.467   8.316  0.5667 -0.7124 -0.1995
  177SLPC     N20113   1.554   5.863  10.701  0.0745  0.2585  0.6980
  177SLPC   C1320114   1.539   5.996  10.634  0.0939 -0.5953 -0.1286
  177SLPC  H13A20115   1.471   6.062  10.685  0.6471 -1.5053  1.8237
  177SLPC  H13B20116   1.633   6.046  10.620 -0.3972 -0.2968 -2.7845
  177SLPC  H13C20117   1.505   5.976  10.533 -0.8329 -2.7407  0.5822
  177SLPC   C1420118   1.677   5.797  10.654  0.5923  0.5322  1.1351
  177SLPC  H14A20119   1.766   5.849  10.689  0.6005 -0.0188  1.9418
  177SLPC  H14B20120   1.691   5.696  10.691 -2.1383 -0.2887 -0.0198
  177SLPC  H14C20121   1.679   5.791  10.546  0.2406  1.0095  1.0986
  177SLPC   C1520122   1.428   5.785  10.677 -0.7128  0.1492 -0.5877
  177SLPC  H15A20123   1.345   5.818  10.738  0.0281 -2.0363  1.7179
  177SLPC  H15B20124   1.398   5.781  10.574  0.1896  0.9379 -0.8912
  177SLPC  H15C20125   1.444   5.684  10.713 -0.1212  0.2192 -0.6487
  177SLPC   C1220126   1.572   5.888  10.848  0.7483 -0.0726 -0.1547
  177SLPC  H12A20127   1.648   5.958  10.879  1.1727  0.2049 -1.7804
  177SLPC  H12B20128   1.599   5.790  10.885  3.2949  0.4784 -0.4294
  177SLPC   C1120129   1.451   5.955  10.928 -0.4601  0.2172 -0.0269
  177SLPC  H11A20130   1.477   5.935  11.034  0.9642  0.1604 -0.3770
  177SLPC  H11B20131   1.348   5.920  10.909 -0.7087 -0.4702  2.4799
  177SLPC     P20132   1.353   6.195  10.909 -0.2714  0.1616 -0.0066
  177SLPC   O1320133   1.246   6.146  11.000  0.0515 -0.0181 -0.0028
  177SLPC   O1420134   1.409   6.327  10.942 -0.4726 -0.4638  0.3611
  177SLPC   O1220135   1.465   6.093  10.917 -0.0661 -0.4290  0.2580
  177SLPC   O1120136   1.310   6.185  10.760 -0.3084 -0.2996 -0.1542
  177SLPC    C120137   1.196   6.265  10.720  0.1184  0.6608  0.0484
  177SLPC    HA20138   1.105   6.220  10.765  0.9254 -0.9788  0.0856
  177SLPC    HB20139   1.219   6.369  10.753  1.0593  0.0020  1.5286
  177SLPC    C220140   1.172   6.271  10.568 -1.0798  0.6312  0.9476
  177SLPC    HS20141   1.154   6.167  10.534  4.4102 -0.6878  1.5534
  177SLPC   O2120142   1.291   6.332  10.511  0.0370  0.0516  0.8440
  177SLPC   C2120143   1.317   6.288  10.388 -0.7973 -0.2914  0.4321
  177SLPC   O2220144   1.281   6.183  10.339  0.6948 -0.7746  0.3475
  177SLPC   C2220145   1.416   6.382  10.326 -0.7479 -0.1316  0.8405
  177SLPC   H2R20146   1.479   6.416  10.411  0.4636 -2.1307  0.7562
  177SLPC   H2S20147   1.481   6.329  10.253  1.3784 -1.9219  3.9485
  177SLPC    C320148   1.054   6.368  10.533  0.2432 -0.1525 -0.1249
  177SLPC    HX20149   1.100   6.467  10.550 -0.8422  0.5369 -1.1292
  177SLPC    HY20150   0.970   6.359  10.605  0.7746  0.4731  0.5806
  177SLPC   O3120151   1.015   6.370  10.395 -0.0505 -0.1457  0.4181
  177SLPC   C3120152   0.930   6.275  10.362  0.4974  0.6043 -0.8945
  177SLPC   O3220153   0.894   6.178  10.433 -0.2201 -0.1337 -0.4182
  177SLPC   C3220154   0.880   6.289  10.221  0.1974 -0.7694 -0.4058
  177SLPC   H2X20155   0.920   6.373  10.160 -3.2228  0.4553 -1.0736
  177SLPC   H2Y20156   0.769   6.300  10.219  0.2451 -0.0641  0.5908
  177SLPC   C2320157   1.340   6.506  10.272  0.5319  0.6715 -0.3718
  177SLPC   H3R20158   1.419   6.575  10.234  1.1944  1.0842  1.6766
  177SLPC   H3S20159   1.291   6.564  10.353  2.8045  0.1387  1.4211
  177SLPC   C2420160   1.247   6.460  10.153  0.0316 -1.0615 -0.3455
  177SLPC   H4R20161   1.203   6.551  10.108  0.2716 -1.3717 -1.2228
  177SLPC   H4S20162   1.155   6.415  10.197 -0.2885  1.1925  1.3803
  177SLPC   C2520163   1.320   6.378  10.045  0.3934 -0.1481  0.7709
  177SLPC   H5R20164   1.329   6.278  10.093 -0.9992  0.1354  1.6731
  177SLPC   H5S20165   1.418   6.419  10.015 -0.7533  1.5836 -0.7427
  177SLPC   C2620166   1.233   6.378   9.925 -0.1559 -0.4307 -0.3068
  177SLPC   H6R20167   1.223   6.484   9.892 -0.4011  0.4921  2.5985
  177SLPC   H6S20168   1.130   6.357   9.962 -0.6932  2.4828 -0.0091
  177SLPC   C2720169   1.282   6.292   9.808 -0.2904  0.6829 -0.0668
  177SLPC   H7R20170   1.294   6.189   9.849  1.1096  2.4465  4.2323
  177SLPC   H7S20171   1.381   6.330   9.776  0.2056 -1.2379 -0.8830
  177SLPC   C2820172   1.181   6.301   9.694  0.1093 -0.1379 -0.7293
  177SLPC   H8R20173   1.178   6.408   9.661 -0.5740 -0.6089 -2.2477
  177SLPC   H8S20174   1.083   6.273   9.737  1.0081 -0.0597  1.4370
  177SLPC   C2920175   1.228   6.207   9.586 -0.0503  0.0877  0.2682
  177SLPC   H9R20176   1.241   6.102   9.614  1.0137  0.2793  0.5077
  177SLPC  C21020177   1.256   6.226   9.454  0.4967 -0.1616 -0.6906
  177SLPC  H10R20178   1.286   6.139   9.394 -0.2980 -0.8741 -0.0637
  177SLPC  C21120179   1.258   6.363   9.377  0.3310 -0.3688 -0.4422
  177SLPC  H11R20180   1.163   6.379   9.323 -1.3735 -0.2744  2.5051
  177SLPC  H11S20181   1.261   6.446   9.452  0.0978 -2.3617  1.8330
  177SLPC  C21220182   1.375   6.373   9.283  0.1391  0.4123 -0.3618
  177SLPC  H12R20183   1.469   6.326   9.315  0.5948 -0.5378 -2.9552
  177SLPC  C21320184   1.388   6.437   9.162 -0.4275 -0.5058  0.8024
  177SLPC  H13R20185   1.481   6.438   9.104 -2.4250  0.5838 -2.4869
  177SLPC  C21420186   1.270   6.510   9.099  1.1174 -0.2506  0.2288
  177SLPC  H14R20187   1.311   6.599   9.046  0.9594 -1.0978 -1.3547
  177SLPC  H14S20188   1.198   6.546   9.175 -0.4748 -0.7417 -1.0161
  177SLPC  C21520189   1.209   6.415   8.991 -0.4184 -0.0219 -0.2758
  177SLPC  H15R20190   1.112   6.459   8.960  0.4844  2.1228 -0.1494
  177SLPC  H15S20191   1.179   6.320   9.040 -0.6627  0.7935  1.2011
  177SLPC  C21620192   1.299   6.391   8.868  0.8230  0.2433 -0.2748
  177SLPC  H16R20193   1.255   6.307   8.810  0.2518 -0.6661  1.4437
  177SLPC  H16S20194   1.398   6.343   8.886  0.9141  1.4250  2.6301
  177SLPC  C21720195   1.325   6.515   8.779 -0.8570 -0.7027  0.2332
  177SLPC  H17R20196   1.262   6.599   8.815  0.9110  0.9000 -0.3738
  177SLPC  H17S20197   1.293   6.477   8.680 -0.4003 -2.7587  0.8393
  177SLPC  C21820198   1.473   6.561   8.764  0.1075  0.6636 -0.2479
  177SLPC  H18R20199   1.538   6.473   8.746  0.4726  0.6707  0.9773
  177SLPC  H18S20200   1.500   6.593   8.867  0.2640 -2.7663  0.8274
  177SLPC  H18T20201   1.493   6.649   8.699  1.2705 -0.2719 -1.1662
  177SLPC   C3320202   0.899   6.158  10.132 -0.1746 -0.1307  0.7529
  177SLPC   H3X20203   0.837   6.072  10.164  0.9499 -0.8123  1.1383
  177SLPC   H3Y20204   1.005   6.126  10.145 -0.3870 -1.8419 -1.5135
  177SLPC   C3420205   0.859   6.190   9.983 -0.1853  0.1696  0.0965
  177SLPC   H4X20206   0.919   6.280   9.957 -0.7368  0.5969  0.2785
  177SLPC   H4Y20207   0.753   6.224   9.983 -0.2993 -0.1867 -0.0331
  177SLPC   C3520208   0.895   6.081   9.883  0.2105 -0.4237  0.5710
  177SLPC   H5X20209   0.875   5.983   9.931 -0.6945 -0.8439 -0.6287
  177SLPC   H5Y20210   1.005   6.086   9.870  0.0726 -0.0706 -0.5880
  177SLPC   C3620211   0.821   6.097   9.747 -0.0271  1.1578 -0.1510
  177SLPC   H6X20212   0.850   6.198   9.710  0.1709  0.0587 -3.1361
  177SLPC   H6Y20213   0.711   6.096   9.763  0.3540  3.4832  2.9304
  177SLPC   C3720214   0.875   6.007   9.637 -0.0415  1.1636  0.7430
  177SLPC   H7X20215   0.879   5.898   9.658 -2.2042  0.9009 -0.0542
  177SLPC   H7Y20216   0.981   6.036   9.622 -0.3703  1.8242 -0.3853
  177SLPC   C3820217   0.804   6.024   9.503 -0.1540 -0.1258 -0.6525
  177SLPC   H8X20218   0.813   6.129   9.468  0.9625  0.7859  2.2915
  177SLPC   H8Y20219   0.696   5.999   9.500  0.7180 -4.2797 -1.2685
  177SLPC   C3920220   0.864   5.935   9.390  0.1913  0.1663 -0.6457
  177SLPC   H9X20221   0.801   5.930   9.298  0.4533  1.8701 -0.9414
  177SLPC   H9Y20222   0.884   5.834   9.431 -0.0809  1.3395  2.5478
  177SLPC  C31020223   0.993   5.998   9.357  0.0252 -1.1244  0.4559
  177SLPC  H10X20224   1.058   5.966   9.441 -0.6434  0.0644  1.4382
  177SLPC  H10Y20225   0.986   6.109   9.360 -3.2265 -1.2006 -2.1207
  177SLPC  C31120226   1.047   5.954   9.215 -0.4098 -0.5086  0.8843
  177SLPC  H11X20227   1.010   5.851   9.197  0.8617 -1.0154  1.0999
  177SLPC  H11Y20228   1.157   5.949   9.230 -0.3375 -0.8515  0.2353
  177SLPC  C31220229   1.012   6.052   9.108 -0.6489  0.4490  0.1136
  177SLPC  H12X20230   1.069   6.147   9.117 -0.8795  0.5227  0.7946
  177SLPC  H12Y20231   0.905   6.078   9.124 -0.8706 -1.6349  2.2503
  177SLPC  C31320232   1.020   5.995   8.960 -0.1538 -0.5208 -0.3859
  177SLPC  H13X20233   1.024   5.884   8.957 -1.5401 -0.6097  0.4591
  177SLPC  H13Y20234   1.106   6.042   8.907 -0.6147 -0.0533 -0.7194
  177SLPC  C31420235   0.900   6.038   8.875  0.3634 -0.1807 -0.5811
  177SLPC  H14X20236   0.896   6.149   8.867  2.2394  0.1395  2.3285
  177SLPC  H14Y20237   0.806   6.009   8.927  0.1618  0.1022 -0.7846
  177SLPC  C31520238   0.897   5.977   8.734 -0.3292 -0.6356 -0.7413
  177SLPC  H15X20239   0.878   5.867   8.734  1.2663 -0.9388  0.9245
  177SLPC  H15Y20240   1.000   5.988   8.693 -1.0450 -1.3088 -2.7867
  177SLPC  C31620241   0.785   6.045   8.657 -0.1768 -0.0027  0.5364
  177SLPC  H16X20242   0.824   6.146   8.632  1.8654 -1.0122 -0.4521
  177SLPC  H16Y20243   0.692   6.063   8.715 -0.6961 -1.1356  0.0646
  177SLPC  C31720244   0.760   5.976   8.522 -0.6305  0.0102  0.0640
  177SLPC  H17X20245   0.729   5.872   8.542 -0.6897  0.1362  0.6617
  177SLPC  H17Y20246   0.856   5.981   8.466  1.1505 -2.5098  2.7561
  177SLPC  C31820247   0.653   6.036   8.428 -0.4117  0.2657 -0.6537
  177SLPC  H18X20248   0.631   5.957   8.353 -3.5017  0.6023 -0.1560
  177SLPC  H18Y20249   0.699   6.121   8.375 -1.7718  0.9315 -0.7653
  177SLPC  H18Z20250   0.561   6.065   8.484  0.9978  0.3470  1.7150
  178SLPC     N20251   3.057   0.842  11.069  0.4080  0.5931 -0.0275
  178SLPC   C1320252   3.004   0.705  11.023  0.1991  0.0568 -0.3449
  178SLPC  H13A20253   3.081   0.631  11.009  2.4561  2.0254  1.2291
  178SLPC  H13B20254   2.936   0.661  11.094 -0.1407  1.0626 -0.0431
  178SLPC  H13C20255   2.934   0.713  10.942  1.6422 -0.2475 -1.6435
  178SLPC   C1420256   3.146   0.814  11.179 -0.7143  0.4788 -0.3529
  178SLPC  H14A20257   3.209   0.728  11.164 -2.4625 -0.9870  0.5154
  178SLPC  H14B20258   3.210   0.899  11.199 -0.0758  0.0095 -0.3704
  178SLPC  H14C20259   3.087   0.804  11.269 -2.6698 -0.7906 -1.7514
  178SLPC   C1520260   2.943   0.938  11.104  0.4401 -0.2212  0.5471
  178SLPC  H15A20261   2.875   0.930  11.020  0.3131  1.2191  0.5044
  178SLPC  H15B20262   2.901   0.906  11.198  1.0879 -1.1584  0.5272
  178SLPC  H15C20263   2.973   1.040  11.119 -0.3398 -0.2378  2.2681
  178SLPC   C1220264   3.143   0.904  10.953  0.5987 -0.6422 -0.1322
  178SLPC  H12A20265   3.181   0.998  10.989  1.9842 -1.7073  1.2626
  178SLPC  H12B20266   3.072   0.941  10.880  0.2910  1.3052  1.1196
  178SLPC   C1120267   3.261   0.825  10.884  0.0397 -0.7114  0.4641
  178SLPC  H11A20268   3.283   0.868  10.784 -0.7101  0.6258  0.8587
  178SLPC  H11B20269   3.226   0.720  10.871 -2.6348  0.3973 -1.7044
  178SLPC     P20270   3.464   0.951  11.017  0.3964 -0.0854  0.0651
  178SLPC   O1320271   3.370   1.047  11.081 -0.2819 -0.3171 -0.0086
  178SLPC   O1420272   3.575   0.899  11.103  0.3695 -0.1802  0.1130
  178SLPC   O1220273   3.381   0.824  10.960 -0.6057 -0.1961 -0.0929
  178SLPC   O1120274   3.525   1.014  10.888 -0.2634 -0.5966  0.1191
  178SLPC    C120275   3.444   1.127  10.830  0.2578  0.2085 -0.0628
  178SLPC    HA20276   3.341   1.101  10.796 -0.5232  0.9179  1.6845
  178SLPC    HB20277   3.421   1.207  10.903  1.0160 -1.3045  1.8715
  178SLPC    C220278   3.527   1.196  10.718 -0.0724  0.5834 -0.4550
  178SLPC    HS20279   3.466   1.276  10.672 -0.4661  1.6114  1.7774
  178SLPC   O2120280   3.572   1.099  10.608 -0.4143 -0.1646 -0.5743
  178SLPC   C2120281   3.467   1.048  10.534 -0.2695  0.2942  0.8800
  178SLPC   O2220282   3.353   1.086  10.542 -0.5311 -0.4654 -0.5341
  178SLPC   C2220283   3.517   0.933  10.450 -0.8616 -0.5734  0.7492
  178SLPC   H2R20284   3.600   0.887  10.508  0.5516  2.4624  1.2528
  178SLPC   H2S20285   3.433   0.863  10.433  0.7128 -2.4254  0.4194
  178SLPC    C320286   3.644   1.263  10.793 -0.3814 -0.6174 -0.1567
  178SLPC    HX20287   3.705   1.201  10.863 -0.5637  0.3828  0.9033
  178SLPC    HY20288   3.593   1.341  10.854 -0.3345  1.3436 -2.5100
  178SLPC   O3120289   3.746   1.336  10.714 -0.0874 -0.0243 -0.5208
  178SLPC   C3120290   3.838   1.257  10.667 -0.1334  0.0881  0.7431
  178SLPC   O3220291   3.857   1.136  10.688  0.2416 -0.4646 -0.3468
  178SLPC   C3220292   3.933   1.341  10.576  0.1288  0.7113 -0.6882
  178SLPC   H2X20293   4.027   1.367  10.629  0.4864 -1.1905 -0.3394
  178SLPC   H2Y20294   3.883   1.439  10.566 -0.2562  0.4628 -1.1986
  178SLPC   C2320295   3.586   0.988  10.326  0.5933  0.3209 -0.2705
  178SLPC   H3R20296   3.689   0.948  10.330 -0.7412 -3.5870 -1.8805
  178SLPC   H3S20297   3.591   1.099  10.321  0.7699  0.2703 -1.3945
  178SLPC   C2420298   3.510   0.947  10.202 -0.6545  0.5457  0.2791
  178SLPC   H4R20299   3.503   0.836  10.201 -2.9821  0.6459  1.2268
  178SLPC   H4S20300   3.576   0.979  10.119 -0.8252  0.8210  0.2510
  178SLPC   C2520301   3.371   1.011  10.175  0.3512  0.3040  0.3763
  178SLPC   H5R20302   3.373   1.115  10.136  2.7142 -0.2816 -1.1689
  178SLPC   H5S20303   3.325   1.021  10.276  1.3168  0.0180  0.8487
  178SLPC   C2620304   3.281   0.932  10.086  0.1573 -0.1045 -0.2427
  178SLPC   H6R20305   3.182   0.982  10.084  0.7250  0.9978 -0.8409
  178SLPC   H6S20306   3.264   0.840  10.147 -1.3596 -0.0611 -0.5920
  178SLPC   C2720307   3.343   0.913   9.951  0.4286  0.6885  0.1120
  178SLPC   H7R20308   3.267   0.868   9.883 -0.8215 -0.1392  2.0397
  178SLPC   H7S20309   3.429   0.842   9.955 -0.9791 -1.0326  0.2022
  178SLPC   C2820310   3.384   1.045   9.885  0.1101 -0.2994 -0.0932
  178SLPC   H8R20311   3.448   1.107   9.951  0.5321 -1.0765  0.2424
  178SLPC   H8S20312   3.295   1.106   9.858  0.9928  1.1733  0.2661
  178SLPC   C2920313   3.451   1.003   9.755  0.2591 -0.3561  0.0952
  178SLPC   H9R20314   3.551   0.959   9.768  0.3919  0.0391  0.4379
  178SLPC  C21020315   3.398   1.009   9.632  0.0435  0.4210 -0.0709
  178SLPC  H10R20316   3.454   0.978   9.544 -0.1656  0.5755 -0.2583
  178SLPC  C21120317   3.254   1.053   9.587  0.6737 -0.4769  0.0212
  178SLPC  H11R20318   3.174   1.015   9.655  1.9782 -0.3057  1.7067
  178SLPC  H11S20319   3.220   0.994   9.500  0.1572 -1.5337  0.9314
  178SLPC  C21220320   3.261   1.201   9.564 -0.1255  1.1267  0.2172
  178SLPC  H12R20321   3.284   1.264   9.652 -0.6168  0.7937  0.5863
  178SLPC  C21320322   3.274   1.259   9.446 -0.1416  0.4173  0.6420
  178SLPC  H13R20323   3.296   1.367   9.439 -0.0006  0.3343 -0.1691
  178SLPC  C21420324   3.277   1.186   9.314 -0.2890  0.1131 -0.6001
  178SLPC  H14R20325   3.285   1.076   9.327  0.9603  0.2195 -0.4390
  178SLPC  H14S20326   3.365   1.212   9.252  0.9388 -0.7578  0.7530
  178SLPC  C21520327   3.142   1.216   9.242 -0.3738  0.4687 -0.4034
  178SLPC  H15R20328   3.154   1.148   9.154  2.9730  3.1907 -2.1653
  178SLPC  H15S20329   3.128   1.321   9.210  0.2840  0.5565 -0.4203
  178SLPC  C21620330   3.013   1.169   9.316  0.1473  0.0828  0.1238
  178SLPC  H16R20331   2.992   1.249   9.390  0.3230  1.2818 -1.1112
  178SLPC  H16S20332   3.039   1.079   9.376 -2.7708 -1.7742 -1.2849
  178SLPC  C21720333   2.896   1.133   9.218 -0.2973 -0.6236 -0.4951
  178SLPC  H17R20334   2.806   1.103   9.275  0.5769 -1.3338  0.5232
  178SLPC  H17S20335   2.917   1.045   9.153 -0.1882 -0.9768  0.0191
  178SLPC  C21820336   2.849   1.256   9.131 -0.3417 -0.0403  0.3325
  178SLPC  H18R20337   2.923   1.278   9.050 -2.2226 -2.8877 -2.2587
  178SLPC  H18S20338   2.825   1.338   9.203 -0.3845 -2.3806  3.0618
  178SLPC  H18T20339   2.757   1.230   9.074  2.0275 -1.3313 -3.1011
  178SLPC   C3320340   3.956   1.286  10.439  0.1690  0.0034 -0.4321
  178SLPC   H3X20341   3.981   1.178  10.439  1.8156  0.3666  0.5616
  178SLPC   H3Y20342   4.033   1.349  10.389 -0.3653  0.5355 -0.5912
  178SLPC   C3420343   3.837   1.296  10.338  0.7379  0.0789 -0.6495
  178SLPC   H4X20344   3.803   1.399  10.314 -0.1632 -0.2316 -0.7079
  178SLPC   H4Y20345   3.746   1.243  10.372  0.7117 -0.6230 -1.7815
  178SLPC   C3520346   3.876   1.228  10.207  0.5248 -0.1955 -0.2086
  178SLPC   H5X20347   3.857   1.119  10.221 -0.3862 -0.0943 -0.6044
  178SLPC   H5Y20348   3.983   1.244  10.184  1.0152 -3.0492 -0.1205
  178SLPC   C3620349   3.791   1.282  10.089  0.4978 -0.3911 -0.5691
  178SLPC   H6X20350   3.812   1.390  10.072  0.3453  0.0889  2.1249
  178SLPC   H6Y20351   3.682   1.265  10.103  0.2854  1.0825 -0.3346
  178SLPC   C3720352   3.832   1.213   9.961  0.4062 -0.3657 -0.6737
  178SLPC   H7X20353   3.815   1.104   9.970 -1.2564 -0.0091  0.8508
  178SLPC   H7Y20354   3.942   1.227   9.950  0.1143  1.6761 -1.1043
  178SLPC   C3820355   3.764   1.280   9.841  0.6491 -0.3152  0.6225
  178SLPC   H8X20356   3.793   1.387   9.836 -0.6642 -0.0091 -0.7323
  178SLPC   H8Y20357   3.656   1.271   9.863  1.0565 -0.9071  2.5006
  178SLPC   C3920358   3.799   1.207   9.714 -0.1862 -0.3269  0.2511
  178SLPC   H9X20359   3.777   1.102   9.742 -0.0776 -0.6435 -0.8108
  178SLPC   H9Y20360   3.909   1.208   9.696 -0.3680  1.5664 -0.8070
  178SLPC  C31020361   3.716   1.263   9.605  0.1048  0.2422  0.6601
  178SLPC  H10X20362   3.734   1.372   9.591  0.7095  0.4091  2.5887
  178SLPC  H10Y20363   3.607   1.260   9.622  0.0564  0.7119  0.4463
  178SLPC  C31120364   3.738   1.173   9.470 -0.2584 -0.9530 -0.2180
  178SLPC  H11X20365   3.686   1.076   9.484 -1.4979 -0.1786  0.7464
  178SLPC  H11Y20366   3.848   1.167   9.457 -0.3661 -0.8439 -1.2210
  178SLPC  C31220367   3.671   1.230   9.350  0.4057  0.0552 -0.6895
  178SLPC  H12X20368   3.716   1.332   9.346 -0.4009  0.4946  0.9000
  178SLPC  H12Y20369   3.561   1.223   9.366  0.5198 -0.9381 -0.3624
  178SLPC  C31320370   3.718   1.151   9.224  0.0947 -0.0850 -0.6975
  178SLPC  H13X20371   3.711   1.040   9.224  0.4643 -0.1122 -1.1754
  178SLPC  H13Y20372   3.828   1.170   9.217  0.1986 -0.0035  0.9522
  178SLPC  C31420373   3.632   1.212   9.107  0.2493 -0.6980  0.0309
  178SLPC  H14X20374   3.612   1.319   9.129 -0.8674 -0.6607 -1.1061
  178SLPC  H14Y20375   3.535   1.159   9.098  0.2460 -0.7694  0.4975
  178SLPC  C31520376   3.701   1.195   8.977 -0.0136 -0.1599  0.7316
  178SLPC  H15X20377   3.806   1.232   8.984 -0.8296  2.4460 -0.1739
  178SLPC  H15Y20378   3.695   1.089   8.944 -0.8214 -0.5349  2.0612
  178SLPC  C31620379   3.653   1.271   8.856 -0.4413  0.3604 -0.0479
  178SLPC  H16X20380   3.603   1.364   8.890  0.7621  0.3255  1.9276
  178SLPC  H16Y20381   3.586   1.204   8.797  1.0700 -1.8599  0.6674
  178SLPC  C31720382   3.761   1.314   8.754 -0.3347  0.9903  0.3140
  178SLPC  H17X20383   3.835   1.370   8.816  0.8038  0.0114 -0.1543
  178SLPC  H17Y20384   3.721   1.393   8.687 -2.0382  0.3510  0.5435
  178SLPC  C31820385   3.835   1.201   8.673 -0.1252 -0.2513  0.0139
  178SLPC  H18X20386   3.773   1.130   8.614  0.0982 -1.5894  1.3472
  178SLPC  H18Y20387   3.902   1.134   8.732 -0.2700 -0.4672 -0.0640
  178SLPC  H18Z20388   3.898   1.238   8.589 -1.5358  1.3488 -0.3584
  179SLPC     N20389   5.095   4.975  10.266 -0.1260  0.7255  0.2253
  179SLPC   C1320390   5.071   4.995  10.414 -0.2531  0.2838  0.6927
  179SLPC  H13A20391   5.069   5.100  10.439 -1.4183  0.3609  0.2676
  179SLPC  H13B20392   4.977   4.952  10.442 -0.2392 -0.7795 -0.8764
  179SLPC  H13C20393   5.142   4.942  10.475 -0.3310  1.0196  1.4310
  179SLPC   C1420394   5.234   5.023  10.238 -0.1368  0.4687 -0.5021
  179SLPC  H14A20395   5.252   5.006  10.133  0.9758  0.7620 -0.3600
  179SLPC  H14B20396   5.242   5.125  10.272  2.7306 -0.2378  1.0952
  179SLPC  H14C20397   5.300   4.950  10.281 -0.9992 -1.1490 -1.8518
  179SLPC   C1520398   5.002   5.058  10.181  0.4434  0.0265 -0.4141
  179SLPC  H15A20399   4.909   5.069  10.235  0.6265 -0.0149 -0.0949
  179SLPC  H15B20400   5.036   5.161  10.175  2.3420 -0.6544 -1.8155
  179SLPC  H15C20401   4.994   5.015  10.082  2.2246  0.1576 -0.6264
  179SLPC   C1220402   5.078   4.827  10.236  0.8550 -0.3306 -0.2285
  179SLPC  H12A20403   5.121   4.803  10.140  1.1396 -2.0163  0.3123
  179SLPC  H12B20404   4.973   4.803  10.235  0.7995 -0.0734 -1.4811
  179SLPC   C1120405   5.148   4.727  10.333 -0.0974 -0.0126  0.4983
  179SLPC  H11A20406   5.257   4.743  10.346  0.0392 -0.9130  0.4437
  179SLPC  H11B20407   5.143   4.638  10.267  0.2718 -0.3112  0.8760
  179SLPC     P20408   4.938   4.663  10.477 -0.3262 -0.6983 -0.3531
  179SLPC   O1320409   4.921   4.576  10.596  0.0668  0.5058 -0.3701
  179SLPC   O1420410   4.858   4.790  10.470 -0.3647 -0.0240 -0.0772
  179SLPC   O1220411   5.094   4.704  10.464 -0.4404 -0.1791 -0.6478
  179SLPC   O1120412   4.915   4.574  10.344 -0.6239  1.0278 -0.1102
  179SLPC    C120413   4.782   4.539  10.306 -0.2040 -0.1043 -0.0235
  179SLPC    HA20414   4.753   4.436  10.336 -0.9744 -0.8190 -3.0246
  179SLPC    HB20415   4.707   4.606  10.353  0.2345  0.5249 -0.2159
  179SLPC    C220416   4.756   4.551  10.156  0.5332 -0.0846  0.4283
  179SLPC    HS20417   4.717   4.654  10.139 -0.6969 -0.9701 -2.2772
  179SLPC   O2120418   4.664   4.453  10.101  0.2980 -0.2612 -0.4226
  179SLPC   C2120419   4.563   4.498  10.027 -0.7064 -0.6033 -0.0993
  179SLPC   O2220420   4.540   4.619  10.008  0.4041  0.3303  0.0592
  179SLPC   C2220421   4.490   4.382   9.973  0.3970 -0.6777 -0.3420
  179SLPC   H2R20422   4.457   4.318  10.058 -0.8160 -0.8121 -0.8978
  179SLPC   H2S20423   4.403   4.428   9.921  0.5268  0.4679  0.4382
  179SLPC    C320424   4.877   4.559  10.059  0.1144  0.2420  0.4275
  179SLPC    HX20425   4.927   4.462  10.036 -3.1028 -1.0276 -1.5096
  179SLPC    HY20426   4.954   4.613  10.118  0.2499 -1.1075  1.4975
  179SLPC   O3120427   4.848   4.619   9.929  0.2836  0.2767  0.2088
  179SLPC   C3120428   4.838   4.749   9.923 -0.0684 -0.1276 -1.0274
  179SLPC   O3220429   4.877   4.829  10.011 -0.3848 -0.1589  0.1743
  179SLPC   C3220430   4.779   4.789   9.790 -0.0925 -0.2395  0.0464
  179SLPC   H2X20431   4.684   4.733   9.779  0.7427 -1.2738 -2.0867
  179SLPC   H2Y20432   4.855   4.767   9.712 -0.4492 -0.3551 -0.2638
  179SLPC   C2320433   4.569   4.301   9.861  0.2643  0.6210 -1.0655
  179SLPC   H3R20434   4.499   4.216   9.849 -2.4371  2.4597  1.0767
  179SLPC   H3S20435   4.667   4.260   9.895 -0.6917 -0.0410  0.9740
  179SLPC   C2420436   4.587   4.393   9.735 -0.0081  0.9199 -0.6819
  179SLPC   H4R20437   4.654   4.475   9.770  0.3231 -0.1127  1.1920
  179SLPC   H4S20438   4.483   4.425   9.714  0.2195  2.3446  0.2818
  179SLPC   C2520439   4.645   4.312   9.616  0.0689 -0.4408  0.6218
  179SLPC   H5R20440   4.580   4.229   9.581  3.2495 -2.7564 -0.0195
  179SLPC   H5S20441   4.742   4.266   9.642  0.1627 -1.5538 -1.6030
  179SLPC   C2620442   4.665   4.396   9.487  0.0789  0.3413 -0.4128
  179SLPC   H6R20443   4.560   4.420   9.460  0.5566 -1.0389 -3.7569
  179SLPC   H6S20444   4.691   4.320   9.410  1.1703 -1.7624  1.9492
  179SLPC   C2720445   4.758   4.516   9.496 -0.4894 -0.8841 -1.0578
  179SLPC   H7R20446   4.854   4.479   9.537  0.4418  0.7700 -1.6583
  179SLPC   H7S20447   4.719   4.601   9.556  1.8541 -0.6419  0.2034
  179SLPC   C2820448   4.766   4.580   9.357  0.5339  0.0235 -0.0826
  179SLPC   H8R20449   4.808   4.683   9.357  2.7799 -0.8086 -3.4021
  179SLPC   H8S20450   4.660   4.587   9.323  0.1458 -1.4512  0.8111
  179SLPC   C2920451   4.842   4.493   9.259  0.2316  0.0545  0.4259
  179SLPC   H9R20452   4.944   4.470   9.293  0.8055  0.2928 -1.1253
  179SLPC  C21020453   4.807   4.447   9.143  0.3777 -0.5997 -0.2138
  179SLPC  H10R20454   4.882   4.389   9.088 -0.0757 -0.7663 -0.6610
  179SLPC  C21120455   4.678   4.456   9.064  0.2068 -0.2708 -0.4623
  179SLPC  H11R20456   4.676   4.525   8.976 -0.2292  0.1488 -0.1289
  179SLPC  H11S20457   4.596   4.494   9.129 -0.8799 -0.8276 -1.4837
  179SLPC  C21220458   4.631   4.326   9.004  0.2493 -0.5377  0.0666
  179SLPC  H12R20459   4.621   4.249   9.082 -1.2893  0.6779  1.1074
  179SLPC  C21320460   4.614   4.299   8.872 -0.0119  0.2874 -0.0132
  179SLPC  H13R20461   4.586   4.195   8.850 -2.6182  0.6904  1.1282
  179SLPC  C21420462   4.630   4.397   8.767  0.2220  0.1465  0.2307
  179SLPC  H14R20463   4.734   4.437   8.765  0.1424  0.3269 -1.1544
  179SLPC  H14S20464   4.566   4.486   8.781  1.1004  1.1916 -2.0191
  179SLPC  C21520465   4.592   4.336   8.633  0.3164 -0.2622  0.3025
  179SLPC  H15R20466   4.631   4.233   8.616 -0.8599 -0.3858 -1.9515
  179SLPC  H15S20467   4.637   4.397   8.552 -2.2056  2.2561  0.7279
  179SLPC  C21620468   4.439   4.327   8.609  0.0848  0.5471  0.8090
  179SLPC  H16R20469   4.395   4.256   8.682  0.8841 -1.4097 -0.5970
  179SLPC  H16S20470   4.428   4.282   8.508 -1.7178  0.3545  1.0710
  179SLPC  C21720471   4.358   4.459   8.596 -0.2278 -0.4089  0.4434
  179SLPC  H17R20472   4.413   4.522   8.523  1.7962 -2.1309  0.4416
  179SLPC  H17S20473   4.362   4.511   8.694  1.1732 -1.8788  1.1886
  179SLPC  C21820474   4.212   4.456   8.560  0.2625  0.2138 -0.4315
  179SLPC  H18R20475   4.164   4.556   8.556  0.6069  0.5166  2.0095
  179SLPC  H18S20476   4.154   4.401   8.638 -2.5403  1.8392 -1.2845
  179SLPC  H18T20477   4.194   4.412   8.460 -0.5758  0.9301 -0.6037
  179SLPC   C3320478   4.757   4.950   9.785  0.0988  0.4025 -1.0557
  179SLPC   H3X20479   4.856   5.001   9.793 -0.6006  1.5077  0.8528
  179SLPC   H3Y20480   4.704   4.991   9.874 -1.3333 -0.7814 -1.3479
  179SLPC   C3420481   4.692   4.992   9.655 -0.1137 -0.0928 -0.3688
  179SLPC   H4X20482   4.674   5.101   9.668 -0.4149 -0.2129  0.2407
  179SLPC   H4Y20483   4.593   4.942   9.652 -0.4592  0.6152 -0.8018
  179SLPC   C3520484   4.774   4.966   9.532 -0.2097 -0.3522  1.0945
  179SLPC   H5X20485   4.813   4.862   9.523 -0.0922 -0.0532 -2.5746
  179SLPC   H5Y20486   4.864   5.029   9.545  2.5208 -3.5911 -1.1178
  179SLPC   C3620487   4.696   4.998   9.402 -0.1244  0.0471 -0.2619
  179SLPC   H6X20488   4.770   4.983   9.320  1.4073  1.1009  0.9219
  179SLPC   H6Y20489   4.665   5.104   9.395 -1.0176 -0.0570  1.7244
  179SLPC   C3720490   4.575   4.900   9.379 -0.8488 -0.4708  0.5727
  179SLPC   H7X20491   4.479   4.941   9.419 -0.8158 -0.2646  0.4457
  179SLPC   H7Y20492   4.599   4.809   9.436  0.5836 -0.1007  0.5823
  179SLPC   C3820493   4.545   4.885   9.229 -0.1349  0.4589  0.0651
  179SLPC   H8X20494   4.632   4.828   9.190 -0.0714  0.0053  0.8554
  179SLPC   H8Y20495   4.551   4.984   9.179 -1.8065  0.0795 -0.9381
  179SLPC   C3920496   4.413   4.812   9.198  0.3487 -0.2645 -0.2932
  179SLPC   H9X20497   4.396   4.718   9.255  0.2137  1.1686  2.1291
  179SLPC   H9Y20498   4.420   4.785   9.091  0.6155  1.1568 -0.6513
  179SLPC  C31020499   4.290   4.897   9.218 -0.1977  0.0465 -0.4074
  179SLPC  H10X20500   4.320   4.998   9.186  0.4100 -0.5703 -1.8264
  179SLPC  H10Y20501   4.268   4.908   9.326  1.3766 -2.2752  0.1977
  179SLPC  C31120502   4.169   4.850   9.130  0.3960  0.7914  0.2768
  179SLPC  H11X20503   4.082   4.905   9.172 -0.7356 -0.9200  0.2256
  179SLPC  H11Y20504   4.157   4.742   9.152 -2.6403  1.2106  0.8381
  179SLPC  C31220505   4.191   4.880   8.988  0.0728 -0.3961 -0.3093
  179SLPC  H12X20506   4.275   4.822   8.944  0.1259  0.1977 -1.0116
  179SLPC  H12Y20507   4.227   4.984   8.974 -1.6823  0.2985  0.2633
  179SLPC  C31320508   4.058   4.869   8.912 -0.2573  0.2016  1.0090
  179SLPC  H13X20509   3.982   4.933   8.963 -1.5810  0.0582 -0.7492
  179SLPC  H13Y20510   4.015   4.767   8.917  1.2214 -0.4046  1.7690
  179SLPC  C31420511   4.070   4.916   8.764  0.1673 -0.8592  0.0790
  179SLPC  H14X20512   4.105   5.021   8.755  1.3000 -1.2454 -0.1735
  179SLPC  H14Y20513   3.968   4.898   8.725 -1.5384  1.8642  3.0708
  179SLPC  C31520514   4.165   4.837   8.670  0.1972  0.7251 -0.5024
  179SLPC  H15X20515   4.124   4.733   8.665 -1.1130  1.1597  1.0178
  179SLPC  H15Y20516   4.266   4.839   8.716  0.1388 -0.5279 -0.2799
  179SLPC  C31620517   4.174   4.897   8.532 -0.2019  0.4189 -0.0882
  179SLPC  H16X20518   4.183   5.007   8.548 -2.6703  0.9742 -2.0820
  179SLPC  H16Y20519   4.076   4.900   8.480 -0.8768  0.2825  1.1489
  179SLPC  C31720520   4.281   4.837   8.448  0.1627  0.5561  0.2842
  179SLPC  H17X20521   4.252   4.732   8.427  1.6736 -0.2927  2.3442
  179SLPC  H17Y20522   4.375   4.834   8.506  1.4320 -1.3388 -1.8010
  179SLPC  C31820523   4.315   4.918   8.327  0.5052 -0.3751 -0.3165
  179SLPC  H18X20524   4.230   4.916   8.256 -1.8421 -0.5852  2.4233
  179SLPC  H18Y20525   4.401   4.873   8.273  1.1975  0.8217 -0.2135
  179SLPC  H18Z20526   4.338   5.021   8.359 -0.8208  0.4249 -1.8473
  180SLPC     N20527   5.903   2.685  11.084 -0.0712  0.5969  0.2893
  180SLPC   C1320528   6.040   2.634  11.125 -0.2081  0.5767  0.2458
  180SLPC  H13A20529   6.041   2.567  11.210 -1.3404  2.2531  1.6206
  180SLPC  H13B20530   6.084   2.604  11.031  1.0557 -0.9017  1.2845
  180SLPC  H13C20531   6.104   2.715  11.156 -0.5442  0.2180  1.9304
  180SLPC   C1420532   5.835   2.747  11.196 -0.0426 -0.5659 -0.3393
  180SLPC  H14A20533   5.810   2.679  11.276  0.4091  1.1182  1.2719
  180SLPC  H14B20534   5.903   2.817  11.241 -1.7938  1.3397 -0.5553
  180SLPC  H14C20535   5.747   2.800  11.162  0.2831 -0.5699 -1.2123
  180SLPC   C1520536   5.819   2.567  11.046 -0.1015  0.7961  0.4764
  180SLPC  H15A20537   5.885   2.509  10.983 -0.3517  0.7245  0.2802
  180SLPC  H15B20538   5.790   2.512  11.135 -3.1332  1.5642  0.0081
  180SLPC  H15C20539   5.724   2.594  11.002  0.6823 -0.3880 -2.0217
  180SLPC   C1220540   5.913   2.780  10.968 -0.3642  1.3945 -0.6100
  180SLPC  H12A20541   5.979   2.859  11.000  0.6214  0.7944 -1.1495
  180SLPC  H12B20542   5.819   2.831  10.951 -1.7662 -0.4117  1.3987
  180SLPC   C1120543   5.982   2.733  10.839 -0.1180 -0.1722  0.2394
  180SLPC  H11A20544   5.987   2.820  10.770  3.9721 -0.8241 -0.3815
  180SLPC  H11B20545   5.918   2.653  10.795 -0.9403  0.3290  0.5016
  180SLPC     P20546   6.240   2.760  10.803 -0.2023 -0.3195 -0.0262
  180SLPC   O1320547   6.264   2.885  10.886 -0.0071  0.1567 -0.2354
  180SLPC   O1420548   6.350   2.660  10.790  0.0722 -0.1312 -0.3518
  180SLPC   O1220549   6.118   2.681  10.863  0.6052  0.4182  0.2283
  180SLPC   O1120550   6.195   2.805  10.663  0.1072 -0.1656  0.7190
  180SLPC    C120551   6.160   2.704  10.571  0.3779 -0.0447 -0.2850
  180SLPC    HA20552   6.257   2.658  10.542 -0.1529 -1.4517  0.1239
  180SLPC    HB20553   6.081   2.633  10.605  1.7698 -0.9587  1.1223
  180SLPC    C220554   6.102   2.763  10.438  0.2270 -1.0209 -0.6750
  180SLPC    HS20555   6.088   2.676  10.370  0.4534 -2.3284  0.9337
  180SLPC   O2120556   6.202   2.849  10.389 -0.3348 -0.3873  0.6472
  180SLPC   C2120557   6.269   2.811  10.278  0.7800  0.0681 -0.1453
  180SLPC   O2220558   6.242   2.710  10.214 -0.2296 -0.1716  0.1050
  180SLPC   C2220559   6.349   2.939  10.231 -0.1001 -0.1234  1.1004
  180SLPC   H2R20560   6.304   3.023  10.286  0.4121  2.2106 -1.9028
  180SLPC   H2S20561   6.455   2.929  10.262 -0.2709  0.0799  1.7398
  180SLPC    C320562   5.962   2.839  10.452  0.0707  0.4314 -0.0426
  180SLPC    HX20563   5.974   2.933  10.510  0.1712  1.8448 -2.2894
  180SLPC    HY20564   5.894   2.767  10.502 -2.4393  1.2239 -2.2009
  180SLPC   O3120565   5.918   2.877  10.318 -0.4343  0.2001 -0.0151
  180SLPC   C3120566   5.877   2.782  10.246  0.0183  0.4726  0.4754
  180SLPC   O3220567   5.871   2.662  10.282  0.2965  0.4869  0.3857
  180SLPC   C3220568   5.827   2.845  10.113  0.2294 -0.0964 -0.2321
  180SLPC   H2X20569   5.877   2.939  10.083 -0.7448 -0.2200 -2.3703
  180SLPC   H2Y20570   5.726   2.879  10.143  0.0640 -0.8644  0.1028
  180SLPC   C2320571   6.341   2.969  10.080 -0.2004 -0.1612 -0.4982
  180SLPC   H3R20572   6.371   2.874  10.029  1.8965  0.1158  0.1568
  180SLPC   H3S20573   6.412   3.048  10.048  1.1932 -1.3678 -0.4474
  180SLPC   C2420574   6.193   2.999  10.032 -0.2388  0.2751 -0.3254
  180SLPC   H4R20575   6.148   3.084  10.088 -1.6150 -0.3599 -0.4403
  180SLPC   H4S20576   6.125   2.916  10.061 -1.9820  1.8963  0.3462
  180SLPC   C2520577   6.196   3.033   9.884  0.3142 -0.4669  0.4544
  180SLPC   H5R20578   6.238   3.135   9.870  0.8399 -0.4579  2.0499
  180SLPC   H5S20579   6.090   3.040   9.850 -0.7259 -4.6232  2.4340
  180SLPC   C2620580   6.265   2.923   9.794 -0.2187  0.0394  0.1055
  180SLPC   H6R20581   6.262   2.821   9.839 -0.6985  0.7694  1.7675
  180SLPC   H6S20582   6.370   2.950   9.769  0.2919 -0.2891  1.7916
  180SLPC   C2720583   6.202   2.906   9.662 -0.6672  0.3621  0.3765
  180SLPC   H7R20584   6.093   2.885   9.673 -0.3332 -0.2414  2.8127
  180SLPC   H7S20585   6.255   2.821   9.614 -2.4996 -0.8398  0.4084
  180SLPC   C2820586   6.209   3.034   9.566  0.0401 -0.0227  0.3458
  180SLPC   H8R20587   6.201   3.123   9.632  0.5738  1.2380 -1.2737
  180SLPC   H8S20588   6.120   3.034   9.501  1.4655  2.9839 -1.7055
  180SLPC   C2920589   6.337   3.032   9.482  0.1496  0.6391 -0.4364
  180SLPC   H9R20590   6.425   3.021   9.546 -1.5180  2.8522  2.3918
  180SLPC  C21020591   6.340   3.019   9.345 -0.3967  0.1145 -0.0196
  180SLPC  H10R20592   6.438   3.002   9.298 -0.6421  0.1450 -0.5406
  180SLPC  C21120593   6.218   3.024   9.252  0.3495  0.9135 -0.2148
  180SLPC  H11R20594   6.127   3.057   9.307  0.6683  1.5827 -0.0801
  180SLPC  H11S20595   6.200   2.921   9.214 -1.7074  1.4316 -0.7010
  180SLPC  C21220596   6.242   3.130   9.143  1.1198  1.0208 -0.0394
  180SLPC  H12R20597   6.242   3.232   9.183 -0.8699  1.0481 -0.0466
  180SLPC  C21320598   6.238   3.107   9.013 -0.3419 -0.2428 -0.0763
  180SLPC  H13R20599   6.258   3.189   8.943 -0.5048  0.0710  0.2419
  180SLPC  C21420600   6.222   2.980   8.943 -0.2731  0.3534  0.8065
  180SLPC  H14R20601   6.173   3.002   8.846  1.9563 -0.5427 -0.5767
  180SLPC  H14S20602   6.155   2.914   9.003 -1.7525 -0.8427 -2.0610
  180SLPC  C21520603   6.356   2.898   8.947 -0.1162 -0.2668  0.3700
  180SLPC  H15R20604   6.336   2.809   8.884 -0.8753  0.3917 -0.3303
  180SLPC  H15S20605   6.385   2.871   9.051 -0.8015  1.0211  0.9040
  180SLPC  C21620606   6.464   2.980   8.867  0.3545 -0.3218 -0.4562
  180SLPC  H16R20607   6.566   2.939   8.885  1.1264  2.0486  0.7714
  180SLPC  H16S20608   6.475   3.088   8.888  2.9066 -0.2757 -1.7119
  180SLPC  C21720609   6.444   2.979   8.715 -0.1847  0.2709  0.2252
  180SLPC  H17R20610   6.344   3.013   8.678  0.5730 -1.2820 -3.5200
  180SLPC  H17S20611   6.444   2.869   8.694 -0.7508  0.2751  0.1927
  180SLPC  C21820612   6.555   3.045   8.637  0.3014  0.2466 -0.4092
  180SLPC  H18R20613   6.552   3.055   8.527 -1.2267  1.6502 -0.2548
  180SLPC  H18S20614   6.648   2.987   8.658  1.7018  3.1555  1.8783
  180SLPC  H18T20615   6.561   3.150   8.672 -0.3811  0.6096 -1.3756
  180SLPC   C3320616   5.828   2.748   9.996 -0.8655 -0.3381 -0.1962
  180SLPC   H3X20617   5.763   2.660  10.015  0.1441 -0.8290  1.0972
  180SLPC   H3Y20618   5.931   2.709   9.982 -1.3575 -0.6737 -3.1179
  180SLPC   C3420619   5.791   2.813   9.860 -0.0004  0.6276  0.1286
  180SLPC   H4X20620   5.859   2.898   9.835  3.6586 -2.3692 -0.4814
  180SLPC   H4Y20621   5.693   2.860   9.886 -2.2287 -2.3011 -2.6059
  180SLPC   C3520622   5.766   2.720   9.740  0.0175  0.2983 -0.7441
  180SLPC   H5X20623   5.702   2.768   9.663 -0.2326 -0.2460 -0.8762
  180SLPC   H5Y20624   5.704   2.633   9.769  0.9818 -0.6916 -1.6119
  180SLPC   C3620625   5.892   2.655   9.676 -0.6240  0.0288  0.5864
  180SLPC   H6X20626   5.923   2.557   9.717  0.3679 -0.4896 -1.3666
  180SLPC   H6Y20627   5.976   2.726   9.695 -0.4088 -0.0070 -0.2158
  180SLPC   C3720628   5.869   2.651   9.530  0.0118  0.1118 -0.0553
  180SLPC   H7X20629   5.834   2.746   9.486  0.7884  0.4301  0.0061
  180SLPC   H7Y20630   5.792   2.578   9.499  0.1761  0.5859 -1.5907
  180SLPC   C3820631   6.003   2.618   9.454  0.0835  0.2319 -0.1807
  180SLPC   H8X20632   6.033   2.516   9.486  0.1196 -0.2128 -1.5934
  180SLPC   H8Y20633   6.091   2.683   9.476  1.5195 -1.4810 -0.8342
  180SLPC   C3920634   5.983   2.634   9.309 -0.0560  0.9864  0.0766
  180SLPC   H9X20635   6.076   2.606   9.253  0.3995  1.1323  0.7624
  180SLPC   H9Y20636   5.963   2.740   9.283  2.3756  0.9867 -2.1258
  180SLPC  C31020637   5.875   2.538   9.241 -0.2708 -0.2226 -0.5724
  180SLPC  H10X20638   5.786   2.604   9.237  0.1598  0.3800 -0.2474
  180SLPC  H10Y20639   5.856   2.448   9.304 -1.4426  2.0683  2.4348
  180SLPC  C31120640   5.921   2.514   9.100  1.6149  0.9067  0.2260
  180SLPC  H11X20641   5.842   2.453   9.051  1.4421  0.8708  0.5563
  180SLPC  H11Y20642   6.019   2.462   9.096  2.2457  1.8738  2.4844
  180SLPC  C31220643   5.928   2.638   9.008  0.0848 -0.4431  0.0760
  180SLPC  H12X20644   6.014   2.698   9.045  0.2400 -0.9236  0.5140
  180SLPC  H12Y20645   5.829   2.687   9.018 -1.4595 -3.4707  0.4781
  180SLPC  C31320646   5.973   2.596   8.868  0.5005 -0.4920  0.2068
  180SLPC  H13X20647   5.888   2.571   8.800 -0.5958  2.6841  0.3432
  180SLPC  H13Y20648   6.044   2.511   8.880 -0.4120 -0.9886  2.2042
  180SLPC  C31420649   6.039   2.718   8.804  0.2445 -0.1123 -0.5659
  180SLPC  H14X20650   6.118   2.762   8.868  1.1441  0.1690 -1.8376
  180SLPC  H14Y20651   5.966   2.802   8.797 -0.4376 -0.5828  0.6764
  180SLPC  C31520652   6.105   2.680   8.671 -0.1988  0.5561 -1.0602
  180SLPC  H15X20653   6.158   2.772   8.636  2.2087  0.0261  1.0360
  180SLPC  H15Y20654   6.026   2.659   8.597  0.2481 -1.7680 -0.8928
  180SLPC  C31620655   6.210   2.573   8.678 -0.4463 -0.2602  0.3273
  180SLPC  H16X20656   6.164   2.473   8.690  1.7987 -1.3913 -0.2547
  180SLPC  H16Y20657   6.277   2.593   8.765  0.2382  0.2184 -0.2958
  180SLPC  C31720658   6.296   2.573   8.549  0.6910 -0.5922 -0.3037
  180SLPC  H17X20659   6.392   2.518   8.561  1.2027  0.1550 -0.8922
  180SLPC  H17Y20660   6.311   2.679   8.519 -1.9534  0.1961  1.0283
  180SLPC  C31820661   6.229   2.508   8.430 -0.5975 -0.4053  0.4830
  180SLPC  H18X20662   6.299   2.496   8.344 -1.0591 -1.1258  0.2005
  180SLPC  H18Y20663   6.151   2.577   8.390 -0.2033  0.2785  0.8872
  180SLPC  H18Z20664   6.178   2.412   8.452  0.7266 -1.2255 -0.0125
  181SLPC     N20665   2.338   5.818  10.843  1.0564 -0.3120  0.1231
  181SLPC   C1320666   2.303   5.780  10.702  0.7668  0.4525  0.6227
  181SLPC  H13A20667   2.323   5.674  10.703  2.0707  0.6649 -0.9268
  181SLPC  H13B20668   2.198   5.801  10.690 -0.5180 -4.6531  1.7727
  181SLPC  H13C20669   2.377   5.835  10.645  1.2536 -1.7313 -0.9371
  181SLPC   C1420670   2.483   5.786  10.891  0.7281 -0.3510 -0.7433
  181SLPC  H14A20671   2.555   5.833  10.825  2.5299 -0.8545  0.8155
  181SLPC  H14B20672   2.502   5.800  10.996 -0.2653  0.1129 -0.6191
  181SLPC  H14C20673   2.506   5.681  10.879  0.3628 -0.1102 -3.9777
  181SLPC   C1520674   2.257   5.727  10.929  0.0869  0.1323 -0.0655
  181SLPC  H15A20675   2.255   5.625  10.893  0.7683  1.1272 -3.0621
  181SLPC  H15B20676   2.307   5.723  11.025 -0.2959  1.0967  0.1839
  181SLPC  H15C20677   2.155   5.760  10.923  0.3818  0.6669 -2.8389
  181SLPC   C1220678   2.309   5.970  10.860 -0.2970 -0.1499 -0.0004
  181SLPC  H12A20679   2.382   6.028  10.806 -1.7315  1.3727 -0.3520
  181SLPC  H12B20680   2.340   5.984  10.963 -1.0930  0.1836  0.2020
  181SLPC   C1120681   2.167   6.030  10.838 -0.3558  0.2812 -0.7351
  181SLPC  H11A20682   2.149   6.005  10.731  0.7096 -2.2746 -0.3637
  181SLPC  H11B20683   2.186   6.138  10.853 -0.2246  0.1774 -0.1197
  181SLPC     P20684   1.924   6.033  10.893  0.0607  0.3348  0.1439
  181SLPC   O1320685   1.892   6.010  10.754  0.0551  0.0103  0.7242
  181SLPC   O1420686   1.843   5.965  10.993  0.2429  0.3948  0.2031
  181SLPC   O1220687   2.069   5.982  10.927  0.2252  0.3148  0.4260
  181SLPC   O1120688   1.942   6.184  10.921  0.0867 -0.2001  0.1060
  181SLPC    C120689   1.839   6.277  10.888 -0.0494  0.2630 -0.4376
  181SLPC    HA20690   1.747   6.229  10.850  0.9851 -0.3560 -2.2479
  181SLPC    HB20691   1.798   6.330  10.976 -0.3720 -0.5037 -0.1284
  181SLPC    C220692   1.879   6.378  10.771  0.7680 -0.5523 -0.0347
  181SLPC    HS20693   1.790   6.441  10.748  1.4469  0.0522 -1.0520
  181SLPC   O2120694   1.925   6.312  10.649  0.5806  0.5462  0.1595
  181SLPC   C2120695   1.830   6.235  10.592 -0.6018 -0.9695  0.5162
  181SLPC   O2220696   1.710   6.234  10.614  0.4765 -0.2190 -0.8760
  181SLPC   C2220697   1.893   6.163  10.474  0.2996 -0.3637  0.2121
  181SLPC   H2R20698   1.979   6.103  10.511  0.0786  0.5064  2.2056
  181SLPC   H2S20699   1.812   6.090  10.452  0.5494 -1.0714  1.5907
  181SLPC    C320700   1.993   6.491  10.818 -0.4658 -0.2870 -0.2298
  181SLPC    HX20701   2.070   6.430  10.869  1.1188  1.3786 -0.6150
  181SLPC    HY20702   1.937   6.558  10.887 -1.0498  0.3588 -1.3124
  181SLPC   O3120703   2.036   6.572  10.706  0.1606  0.0562 -0.8862
  181SLPC   C3120704   2.137   6.510  10.641  0.1741 -0.7315 -0.1943
  181SLPC   O3220705   2.215   6.427  10.697  0.5732 -0.4306 -0.1269
  181SLPC   C3220706   2.149   6.564  10.500  0.4083 -0.2075 -0.1416
  181SLPC   H2X20707   2.134   6.673  10.514 -1.5065 -0.3311 -0.9741
  181SLPC   H2Y20708   2.060   6.533  10.441  0.9563 -1.2796 -0.4156
  181SLPC   C2320709   1.931   6.259  10.358  0.0145  0.0511  0.4318
  181SLPC   H3R20710   1.941   6.177  10.283 -0.8823  2.1142 -1.9920
  181SLPC   H3S20711   2.028   6.305  10.385 -1.4508  3.5631 -0.0895
  181SLPC   C2420712   1.827   6.365  10.317  0.1956  0.3658 -0.0953
  181SLPC   H4R20713   1.793   6.424  10.405  1.4905 -1.8935  1.9899
  181SLPC   H4S20714   1.743   6.303  10.278 -0.4006  0.0180  1.6725
  181SLPC   C2520715   1.878   6.450  10.196 -0.3739 -0.6072  0.1845
  181SLPC   H5R20716   1.928   6.397  10.112 -1.2127  1.8387 -1.9540
  181SLPC   H5S20717   1.937   6.524  10.253 -0.3549 -0.1568 -0.4122
  181SLPC   C2620718   1.763   6.506  10.118  0.5533  0.4013 -0.5741
  181SLPC   H6R20719   1.694   6.570  10.176  0.1244  1.9111 -2.6898
  181SLPC   H6S20720   1.691   6.426  10.090  1.3906 -1.0327  1.1963
  181SLPC   C2720721   1.799   6.582   9.989 -0.1496 -0.0710  0.9506
  181SLPC   H7R20722   1.881   6.528   9.937  1.8669  3.3576  0.3896
  181SLPC   H7S20723   1.830   6.687  10.009  1.0830 -0.1861 -0.2691
  181SLPC   C2820724   1.682   6.577   9.892  0.1778 -0.4994  0.2511
  181SLPC   H8R20725   1.661   6.469   9.877 -0.6112 -0.2958 -0.1005
  181SLPC   H8S20726   1.717   6.623   9.797 -1.7866  1.2773  0.3566
  181SLPC   C2920727   1.568   6.660   9.944 -0.1192 -0.0748  0.2632
  181SLPC   H9R20728   1.561   6.670  10.053  0.0893  0.2169  0.2509
  181SLPC  C21020729   1.480   6.736   9.875  0.4496  0.3570 -0.4483
  181SLPC  H10R20730   1.419   6.805   9.935  1.1032  1.2968 -0.8542
  181SLPC  C21120731   1.472   6.751   9.726  0.3356  0.4335 -0.0943
  181SLPC  H11R20732   1.545   6.826   9.688  0.8241  0.5630  1.0484
  181SLPC  H11S20733   1.368   6.780   9.702  0.8832  2.1024 -0.5601
  181SLPC  C21220734   1.493   6.626   9.638 -0.0855  0.2484 -0.5901
  181SLPC  H12R20735   1.448   6.531   9.673  0.0763  0.0297 -0.9789
  181SLPC  C21320736   1.537   6.630   9.510  0.1971  0.0908  0.6536
  181SLPC  H13R20737   1.527   6.539   9.450  2.8242  0.7580 -0.8868
  181SLPC  C21420738   1.582   6.752   9.429  0.3462  0.7380 -0.8361
  181SLPC  H14R20739   1.666   6.793   9.490  2.2026 -1.6508 -1.7222
  181SLPC  H14S20740   1.511   6.837   9.437 -0.2077  0.2647 -0.7105
  181SLPC  C21520741   1.626   6.728   9.285 -0.1342  0.4346  0.9261
  181SLPC  H15R20742   1.566   6.645   9.241 -1.2892  1.1919  1.0444
  181SLPC  H15S20743   1.737   6.718   9.289 -0.0264 -0.1615 -2.2386
  181SLPC  C21620744   1.598   6.852   9.199 -0.2141  0.2277  0.1428
  181SLPC  H16R20745   1.643   6.837   9.099 -1.4314  0.7650 -0.4933
  181SLPC  H16S20746   1.653   6.940   9.239 -0.1753 -0.1252  0.8673
  181SLPC  C21720747   1.453   6.900   9.184  0.2131 -0.6490  0.7447
  181SLPC  H17R20748   1.430   6.976   9.261  0.8175  0.1787  0.1118
  181SLPC  H17S20749   1.381   6.818   9.209 -0.7425  0.6014  2.2338
  181SLPC  C21820750   1.409   6.954   9.049  0.5642 -0.3570  0.3251
  181SLPC  H18R20751   1.418   6.879   8.968 -0.3087  1.2323 -1.2758
  181SLPC  H18S20752   1.456   7.053   9.031 -0.5519  0.1581  0.1643
  181SLPC  H18T20753   1.298   6.952   9.060  0.5609 -0.6736  0.2436
  181SLPC   C3320754   2.280   6.511  10.436 -0.5022 -0.6899 -0.2222
  181SLPC   H3X20755   2.302   6.406  10.463  0.6873 -0.5542 -0.6492
  181SLPC   H3Y20756   2.369   6.561  10.479  0.5979 -1.0826 -1.9707
  181SLPC   C3420757   2.255   6.529  10.281  0.3377 -0.3772 -0.2115
  181SLPC   H4X20758   2.171   6.470  10.239 -0.9333  2.6128 -1.9824
  181SLPC   H4Y20759   2.357   6.505  10.243 -0.2962  1.2492 -3.1075
  181SLPC   C3520760   2.229   6.674  10.242 -0.3799  0.1155  0.8428
  181SLPC   H5X20761   2.280   6.745  10.310 -0.6109 -1.2280  2.4647
  181SLPC   H5Y20762   2.120   6.697  10.250 -1.2364 -2.8564 -1.1379
  181SLPC   C3620763   2.279   6.695  10.094 -0.4276  0.0166 -0.6270
  181SLPC   H6X20764   2.385   6.661  10.088 -0.5069 -1.3088  4.0386
  181SLPC   H6Y20765   2.280   6.801  10.061 -0.9012  0.9490  2.2032
  181SLPC   C3720766   2.212   6.605   9.993 -0.6140  0.3551  0.3382
  181SLPC   H7X20767   2.103   6.621  10.005 -1.0993 -1.5279 -1.3076
  181SLPC   H7Y20768   2.225   6.497  10.015 -0.6202  0.3542  0.3335
  181SLPC   C3820769   2.261   6.629   9.848 -0.1000  0.8101 -0.2690
  181SLPC   H8X20770   2.350   6.566   9.828 -1.0264 -0.9244  0.9767
  181SLPC   H8Y20771   2.282   6.735   9.822  0.4898  0.1071 -2.7141
  181SLPC   C3920772   2.161   6.572   9.742 -0.3481 -0.5565 -0.5366
  181SLPC   H9X20773   2.064   6.607   9.783  0.4487  1.0167  0.0509
  181SLPC   H9Y20774   2.170   6.462   9.741  0.3703 -0.5183  1.2458
  181SLPC  C31020775   2.183   6.619   9.600  0.1759  0.3325  0.0283
  181SLPC  H10X20776   2.090   6.585   9.549  0.5262  0.3107 -0.6157
  181SLPC  H10Y20777   2.274   6.579   9.548  0.8631  1.3360  0.4512
  181SLPC  C31120778   2.190   6.769   9.583  0.1598  0.1373  0.1467
  181SLPC  H11X20779   2.276   6.807   9.643 -0.3829  1.0312  0.3708
  181SLPC  H11Y20780   2.098   6.818   9.623 -0.7767 -1.8358  0.4729
  181SLPC  C31220781   2.216   6.812   9.437 -0.1354 -0.0800  0.1367
  181SLPC  H12X20782   2.315   6.770   9.409 -0.0231  0.4991 -0.3447
  181SLPC  H12Y20783   2.213   6.923   9.432  2.0125 -0.0306 -1.0486
  181SLPC  C31320784   2.108   6.755   9.347 -1.0832 -0.2977 -0.3617
  181SLPC  H13X20785   2.007   6.770   9.392  0.4733 -0.6638  3.4036
  181SLPC  H13Y20786   2.114   6.645   9.337  2.8564 -0.2681  1.1639
  181SLPC  C31420787   2.095   6.809   9.204  0.4383  0.5768  0.7317
  181SLPC  H14X20788   2.047   6.908   9.213  0.0208  0.3073  1.4896
  181SLPC  H14Y20789   2.016   6.749   9.153  0.7765  0.9268 -0.2074
  181SLPC  C31520790   2.221   6.804   9.116  0.1147 -0.2651 -0.1689
  181SLPC  H15X20791   2.283   6.712   9.130  2.7470  1.7990  2.4723
  181SLPC  H15Y20792   2.275   6.890   9.161 -1.8085  1.0020 -0.2607
  181SLPC  C31620793   2.190   6.835   8.967 -0.2231 -0.2410 -0.2533
  181SLPC  H16X20794   2.110   6.912   8.958  0.6830  0.5609 -1.6123
  181SLPC  H16Y20795   2.147   6.743   8.922 -1.1746  0.1366 -0.1299
  181SLPC  C31720796   2.303   6.887   8.888  0.0147 -0.1899  0.2512
  181SLPC  H17X20797   2.279   6.882   8.780 -1.2884 -1.1914  0.5701
  181SLPC  H17Y20798   2.395   6.829   8.908 -1.0279 -1.6825  0.8441
  181SLPC  C31820799   2.339   7.033   8.929 -0.5823 -0.6880  0.1608
  181SLPC  H18X20800   2.261   7.111   8.915 -0.4458 -0.4871  0.5067
  181SLPC  H18Y20801   2.424   7.062   8.863  1.0328 -1.2620  1.9525
  181SLPC  H18Z20802   2.382   7.030   9.031 -0.2803 -1.0866  0.0209
  182SLPC     N20803   0.638   1.118  10.916 -0.3485  0.4173  0.3555
  182SLPC   C1320804   0.526   1.160  11.005 -0.0540 -0.1041  0.1325
  182SLPC  H13A20805   0.443   1.176  10.938 -0.8278 -1.8692  0.6253
  182SLPC  H13B20806   0.504   1.083  11.077  1.8573 -2.2218 -1.4523
  182SLPC  H13C20807   0.551   1.245  11.067  0.5301 -0.9907  1.1235
  182SLPC   C1420808   0.740   1.064  11.009 -0.4368  0.0079 -0.5814
  182SLPC  H14A20809   0.701   0.989  11.076  0.2269 -1.2591 -1.5844
  182SLPC  H14B20810   0.822   1.021  10.953 -0.5042  0.8778 -1.3680
  182SLPC  H14C20811   0.783   1.137  11.076  0.1934 -0.9557  0.0700
  182SLPC   C1520812   0.683   1.228  10.825 -0.2071  0.4126 -0.0741
  182SLPC  H15A20813   0.598   1.282  10.788 -0.4138  0.4493  0.4386
  182SLPC  H15B20814   0.742   1.307  10.868 -2.6936  1.3304  1.7672
  182SLPC  H15C20815   0.732   1.195  10.735  2.6242  1.7909  0.8990
  182SLPC   C1220816   0.587   1.009  10.836 -0.1714 -0.4440 -0.1807
  182SLPC  H12A20817   0.548   0.938  10.907  0.5091 -1.7750 -1.1175
  182SLPC  H12B20818   0.672   0.966  10.784  0.3899  0.3629  0.0476
  182SLPC   C1120819   0.468   1.037  10.735  0.7501 -0.1233 -0.4436
  182SLPC  H11A20820   0.453   0.946  10.674 -1.6053  0.5756 -0.9748
  182SLPC  H11B20821   0.505   1.113  10.663 -0.1346  0.5521 -0.1989
  182SLPC     P20822   0.233   0.995  10.851  0.3253  0.4720 -0.0383
  182SLPC   O1320823   0.285   0.921  10.971 -0.2954  0.1420 -0.6285
  182SLPC   O1420824   0.120   1.080  10.877  0.4707  0.0753  0.5998
  182SLPC   O1220825   0.344   1.097  10.786  0.4232 -0.2684 -0.2184
  182SLPC   O1120826   0.202   0.905  10.725  0.3830  0.6765 -0.0259
  182SLPC    C120827   0.095   0.935  10.634  0.5925  0.0609 -0.2343
  182SLPC    HA20828   0.028   0.846  10.633 -0.1405  0.5814  1.3654
  182SLPC    HB20829   0.036   1.025  10.659 -1.0508 -1.1933  0.4215
  182SLPC    C220830   0.132   0.968  10.484  0.6523  0.6421  0.2399
  182SLPC    HS20831   0.035   0.985  10.433  0.5752 -1.5310 -0.4220
  182SLPC   O2120832   0.199   0.850  10.438  0.2898  0.2575 -0.1897
  182SLPC   C2120833   0.176   0.797  10.309  0.3511  0.1913  0.1301
  182SLPC   O2220834   0.107   0.844  10.229 -0.4199  0.0383 -1.0580
  182SLPC   C2220835   0.242   0.668  10.292  0.0745  0.1419 -0.1111
  182SLPC   H2R20836   0.338   0.661  10.348  1.3020  0.9072 -2.0425
  182SLPC   H2S20837   0.176   0.582  10.318  1.7571 -0.5697  2.0050
  182SLPC    C320838   0.229   1.084  10.464  0.1453  0.5537  0.8869
  182SLPC    HX20839   0.326   1.068  10.516  0.7664 -3.3453 -1.2756
  182SLPC    HY20840   0.183   1.177  10.502 -0.0104  0.7373  0.2649
  182SLPC   O3120841   0.266   1.103  10.331  0.2882  0.4169  0.0717
  182SLPC   C3120842   0.163   1.151  10.247  0.8441  0.6513 -0.2812
  182SLPC   O3220843   0.052   1.180  10.292 -0.1400  0.2449  1.0302
  182SLPC   C3220844   0.213   1.152  10.107 -0.5089 -0.4441 -0.1054
  182SLPC   H2X20845   0.133   1.098  10.051 -1.7146  0.1817  0.9839
  182SLPC   H2Y20846   0.311   1.106  10.084 -0.2086  1.1246 -2.0766
  182SLPC   C2320847   0.284   0.659  10.145 -0.0094 -0.4999 -0.2486
  182SLPC   H3R20848   0.194   0.674  10.083  0.4160  1.4109 -0.4393
  182SLPC   H3S20849   0.303   0.551  10.127  3.1420 -0.1407  0.6267
  182SLPC   C2420850   0.382   0.760  10.098 -0.5999 -0.4590 -0.1276
  182SLPC   H4R20851   0.489   0.735  10.115  0.3663  2.5052 -1.4599
  182SLPC   H4S20852   0.377   0.858  10.149 -2.8914 -0.5269 -0.2034
  182SLPC   C2520853   0.368   0.797   9.953  0.9459 -0.3618 -0.2042
  182SLPC   H5R20854   0.417   0.896   9.947 -2.3005  1.2850 -0.8260
  182SLPC   H5S20855   0.260   0.803   9.929  0.7619 -2.3617  0.0610
  182SLPC   C2620856   0.425   0.699   9.847  0.2534  0.4360 -0.5200
  182SLPC   H6R20857   0.378   0.600   9.867  2.5962 -1.2038 -2.7400
  182SLPC   H6S20858   0.535   0.702   9.865 -0.0104 -0.9717  1.3893
  182SLPC   C2720859   0.399   0.744   9.707 -0.1439  0.3180 -0.4018
  182SLPC   H7R20860   0.407   0.855   9.695 -0.0202  0.1960 -1.5089
  182SLPC   H7S20861   0.296   0.721   9.671  0.1338  0.1153 -1.0604
  182SLPC   C2820862   0.502   0.705   9.596 -0.4169  0.1295  0.0288
  182SLPC   H8R20863   0.595   0.748   9.639 -0.2056  2.1520 -2.2779
  182SLPC   H8S20864   0.480   0.769   9.507  1.4996  1.7572  0.6917
  182SLPC   C2920865   0.497   0.556   9.565 -0.2239 -0.1235 -0.7751
  182SLPC   H9R20866   0.521   0.491   9.650 -0.6486 -1.6871 -1.8143
  182SLPC  C21020867   0.458   0.502   9.444 -0.0721 -0.4320 -0.0265
  182SLPC  H10R20868   0.441   0.393   9.438 -1.0993 -0.3522  1.0831
  182SLPC  C21120869   0.424   0.577   9.320 -0.0492 -0.1829  0.5997
  182SLPC  H11R20870   0.328   0.630   9.334 -0.0479  0.1769 -0.6744
  182SLPC  H11S20871   0.405   0.501   9.240 -1.7611 -0.1075  0.9264
  182SLPC  C21220872   0.523   0.665   9.254  0.3005 -1.1436  0.2495
  182SLPC  H12R20873   0.599   0.715   9.315 -0.9008  0.4493  0.4530
  182SLPC  C21320874   0.521   0.716   9.129 -0.4091  0.4358 -0.6003
  182SLPC  H13R20875   0.604   0.782   9.100  0.2254 -0.6428 -1.2899
  182SLPC  C21420876   0.415   0.685   9.030 -0.3168  0.2139  0.3882
  182SLPC  H14R20877   0.387   0.779   8.978  0.5670  0.5721  0.5463
  182SLPC  H14S20878   0.334   0.623   9.074  0.6110  0.2527  2.1957
  182SLPC  C21520879   0.479   0.592   8.921 -0.2320  0.4840 -1.1925
  182SLPC  H15R20880   0.401   0.559   8.849 -1.6854 -1.2161  1.0811
  182SLPC  H15S20881   0.511   0.501   8.978 -0.5434 -0.7657 -2.9721
  182SLPC  C21620882   0.600   0.635   8.836  0.6606  0.1306  0.2658
  182SLPC  H16R20883   0.625   0.557   8.761  1.1622  2.5417 -2.1683
  182SLPC  H16S20884   0.689   0.652   8.901  0.9330 -0.1329 -0.0318
  182SLPC  C21720885   0.589   0.770   8.771  0.2432 -0.1623  0.0099
  182SLPC  H17R20886   0.531   0.837   8.837 -0.2898 -0.5872 -0.0219
  182SLPC  H17S20887   0.531   0.759   8.677  0.7685  0.1742 -0.3576
  182SLPC  C21820888   0.726   0.833   8.756  0.1107  0.1054 -0.2256
  182SLPC  H18R20889   0.787   0.852   8.846  0.5188  2.4713 -0.9769
  182SLPC  H18S20890   0.719   0.931   8.704 -0.7106 -0.9671 -2.1966
  182SLPC  H18T20891   0.779   0.760   8.691  2.8853  1.9321 -0.0762
  182SLPC   C3320892   0.235   1.301  10.040 -0.0505  0.0784 -0.1330
  182SLPC   H3X20893   0.278   1.379  10.106 -0.1382  1.0196 -1.1631
  182SLPC   H3Y20894   0.129   1.331  10.028  0.2856  0.7973 -1.4264
  182SLPC   C3420895   0.310   1.290   9.903 -0.4099 -0.1418  0.4356
  182SLPC   H4X20896   0.419   1.281   9.925  0.1018  1.0255 -1.4965
  182SLPC   H4Y20897   0.300   1.387   9.849  2.8901  0.8218  1.4644
  182SLPC   C3520898   0.270   1.173   9.818  0.4820  0.7271 -0.0333
  182SLPC   H5X20899   0.161   1.157   9.827  0.5250 -0.8058 -1.8512
  182SLPC   H5Y20900   0.316   1.080   9.858  1.3460  2.1144  2.2668
  182SLPC   C3620901   0.299   1.193   9.667  0.7387 -0.0884  0.3498
  182SLPC   H6X20902   0.258   1.284   9.619  0.1348  0.4969  1.9254
  182SLPC   H6Y20903   0.259   1.100   9.622 -1.0381  0.6606  0.3743
  182SLPC   C3720904   0.449   1.215   9.650 -0.0490  0.0302 -0.2976
  182SLPC   H7X20905   0.514   1.152   9.715 -3.4984 -1.4639  1.8668
  182SLPC   H7Y20906   0.479   1.320   9.670 -0.6124 -0.1916  1.9134
  182SLPC   C3820907   0.494   1.186   9.502  0.9877 -0.0171  0.1708
  182SLPC   H8X20908   0.460   1.271   9.439 -2.3480 -1.0416  0.4830
  182SLPC   H8Y20909   0.452   1.088   9.470  0.8097 -0.1467  0.7924
  182SLPC   C3920910   0.645   1.177   9.509  0.1549  0.4528 -0.0948
  182SLPC   H9X20911   0.668   1.095   9.580  2.6809  1.0795 -0.1549
  182SLPC   H9Y20912   0.678   1.274   9.553  0.6592 -0.1619  0.9023
  182SLPC  C31020913   0.703   1.143   9.377 -1.1878 -0.5143 -0.0418
  182SLPC  H10X20914   0.811   1.164   9.393 -1.1951 -0.6146  0.1464
  182SLPC  H10Y20915   0.681   1.228   9.309  0.6355  0.5775  0.6962
  182SLPC  C31120916   0.672   1.004   9.329  0.9463 -1.0684 -0.2779
  182SLPC  H11X20917   0.623   1.010   9.229  1.5491 -1.9175 -0.6351
  182SLPC  H11Y20918   0.606   0.941   9.393 -0.4831  0.0479 -0.6270
  182SLPC  C31220919   0.803   0.920   9.311  0.2195 -0.3898 -0.2372
  182SLPC  H12X20920   0.868   0.965   9.233 -2.4305 -2.1947 -3.6178
  182SLPC  H12Y20921   0.767   0.828   9.260 -1.2890  0.2426 -0.3472
  182SLPC  C31320922   0.881   0.892   9.437  0.7046  1.2379  0.9742
  182SLPC  H13X20923   0.809   0.870   9.518 -0.0602  3.2262  0.8420
  182SLPC  H13Y20924   0.932   0.983   9.473  1.3986  0.4735  1.9641
  182SLPC  C31420925   0.969   0.773   9.433 -0.0160 -0.0697 -0.1871
  182SLPC  H14X20926   0.991   0.751   9.539 -0.2003  1.2377  0.1219
  182SLPC  H14Y20927   1.065   0.800   9.382 -0.0303  1.2465  0.4707
  182SLPC  C31520928   0.921   0.634   9.391  0.0992  0.7666  0.1711
  182SLPC  H15X20929   0.891   0.636   9.283  3.0164  1.1031 -0.6624
  182SLPC  H15Y20930   0.841   0.595   9.458 -1.1106  1.9726 -0.5402
  182SLPC  C31620931   1.028   0.534   9.414 -0.1390  0.4948  0.1211
  182SLPC  H16X20932   0.978   0.435   9.424  1.9591 -0.7420 -1.2286
  182SLPC  H16Y20933   1.081   0.559   9.508  0.9813 -0.4753 -0.2362
  182SLPC  C31720934   1.118   0.522   9.297  0.3625  0.2837 -0.4356
  182SLPC  H17X20935   1.115   0.622   9.250 -2.0245  0.9233  1.0387
  182SLPC  H17Y20936   1.057   0.452   9.235  1.1165 -1.0020  0.2435
  182SLPC  C31820937   1.261   0.466   9.319 -0.2890  0.3006  0.0497
  182SLPC  H18X20938   1.287   0.493   9.424 -1.2202 -2.2668  0.9778
  182SLPC  H18Y20939   1.337   0.507   9.250  0.6529 -2.1211 -0.3904
  182SLPC  H18Z20940   1.265   0.355   9.316  0.8389  0.3427  0.0124
  183SLPC     N20941   2.087   0.945  10.932  0.4943  0.5036  0.2852
  183SLPC   C1320942   2.166   1.047  11.010  0.0772 -0.1991 -0.9102
  183SLPC  H13A20943   2.206   1.014  11.105 -1.0051  1.2396  0.0682
  183SLPC  H13B20944   2.234   1.098  10.943 -1.3251 -1.6010 -3.4822
  183SLPC  H13C20945   2.094   1.125  11.033  1.0610  0.8437 -1.3155
  183SLPC   C1420946   1.983   0.876  11.016  0.1885 -0.1213  0.1822
  183SLPC  H14A20947   2.035   0.825  11.096  2.1798  1.7420  0.1230
  183SLPC  H14B20948   1.913   0.950  11.052  0.2346 -0.3820  0.8071
  183SLPC  H14C20949   1.923   0.813  10.952  0.2269  1.2130 -1.2060
  183SLPC   C1520950   2.177   0.834  10.879  0.2968  0.0662 -0.3150
  183SLPC  H15A20951   2.211   0.782  10.968 -1.1334  0.1681  0.2984
  183SLPC  H15B20952   2.117   0.764  10.823 -1.3726 -0.4034  1.9873
  183SLPC  H15C20953   2.262   0.877  10.827  0.3940 -0.0258 -0.2324
  183SLPC   C1220954   2.021   1.010  10.815  0.0861  0.2907  0.3302
  183SLPC  H12A20955   1.954   1.085  10.854  0.2935  1.6502 -1.8541
  183SLPC  H12B20956   1.953   0.944  10.763 -2.2419  1.4442  1.8360
  183SLPC   C1120957   2.117   1.086  10.721 -0.7460 -0.0515 -0.1409
  183SLPC  H11A20958   2.071   1.106  10.622 -0.8973  1.0939  0.1562
  183SLPC  H11B20959   2.211   1.036  10.689 -0.4391  0.8563 -0.7015
  183SLPC     P20960   2.075   1.324  10.811  0.2512  0.2246  0.6342
  183SLPC   O1320961   2.014   1.301  10.944 -0.7499 -0.1422  0.1684
  183SLPC   O1420962   2.150   1.452  10.799  0.1412  0.1174  0.1113
  183SLPC   O1220963   2.163   1.208  10.778 -0.4090 -0.5014  0.2594
  183SLPC   O1120964   1.952   1.322  10.708 -0.2143 -0.3551 -0.6517
  183SLPC    C120965   1.871   1.445  10.706  0.0656 -0.9758  0.1143
  183SLPC    HA20966   1.767   1.415  10.731  0.4738 -1.3141  1.4723
  183SLPC    HB20967   1.894   1.520  10.785 -0.2753  1.1311 -1.7310
  183SLPC    C220968   1.872   1.507  10.566 -0.3587  0.9907  0.7080
  183SLPC    HS20969   1.826   1.608  10.570  0.4035  1.3918 -0.2742
  183SLPC   O2120970   1.804   1.415  10.479 -0.3905  0.5650 -0.3143
  183SLPC   C2120971   1.728   1.463  10.382 -0.4037  0.1530  0.8094
  183SLPC   O2220972   1.682   1.574  10.375  0.1468 -0.1536 -0.5401
  183SLPC   C2220973   1.718   1.346  10.291  0.8852  0.6450  0.4085
  183SLPC   H2R20974   1.815   1.318  10.244  0.6929  2.6272 -1.2431
  183SLPC   H2S20975   1.683   1.260  10.352  1.4483 -0.6193 -1.0248
  183SLPC    C320976   2.023   1.524  10.515  0.1996  0.1142  0.1851
  183SLPC    HX20977   2.072   1.426  10.500  1.7349  0.6825  1.4214
  183SLPC    HY20978   2.075   1.571  10.601  0.5887  1.2383 -0.6609
  183SLPC   O3120979   2.024   1.609  10.399  0.1882  0.2031 -0.1644
  183SLPC   C3120980   2.035   1.551  10.280  0.6634  0.3544 -0.7634
  183SLPC   O3220981   2.030   1.430  10.258  0.3983  0.0619 -0.2494
  183SLPC   C3220982   2.065   1.658  10.168 -0.4916  0.2969 -0.4729
  183SLPC   H2X20983   2.175   1.652  10.154 -0.2404 -0.2678  1.5417
  183SLPC   H2Y20984   2.032   1.753  10.214 -0.4416 -1.5037  3.4790
  183SLPC   C2320985   1.631   1.371  10.163  0.3322  1.3151 -0.9422
  183SLPC   H3R20986   1.629   1.478  10.131  1.9922  2.1891  1.7227
  183SLPC   H3S20987   1.531   1.333  10.190  0.6376 -0.0694 -1.7309
  183SLPC   C2420988   1.677   1.281  10.051 -0.4503 -0.3412  0.8493
  183SLPC   H4R20989   1.671   1.174  10.079  2.3822 -0.6612  0.4094
  183SLPC   H4S20990   1.772   1.325  10.013  0.3845  0.7788  4.0941
  183SLPC   C2520991   1.575   1.279   9.936 -0.4461 -0.2867 -0.0994
  183SLPC   H5R20992   1.555   1.378   9.890 -0.2572  0.7103  1.8725
  183SLPC   H5S20993   1.471   1.256   9.969 -0.2597 -2.3459 -0.8992
  183SLPC   C2620994   1.612   1.181   9.821 -1.0393  1.0968 -1.0954
  183SLPC   H6R20995   1.610   1.078   9.863 -2.7249  1.7216  0.3834
  183SLPC   H6S20996   1.715   1.200   9.783 -0.1967 -1.4722 -0.2179
  183SLPC   C2720997   1.524   1.190   9.698 -0.4259 -0.2824 -0.6276
  183SLPC   H7R20998   1.503   1.299   9.692  1.4715  0.1234  0.0024
  183SLPC   H7S20999   1.426   1.143   9.721 -0.7222  1.1467  1.1246
  183SLPC   C2821000   1.585   1.148   9.572 -1.0727 -1.1763 -0.1451
  183SLPC   H8R21001   1.588   1.037   9.568  0.8099 -1.1579  0.4270
  183SLPC   H8S21002   1.693   1.175   9.575 -0.6224 -2.7681 -1.5691
  183SLPC   C2921003   1.516   1.203   9.448 -0.0073 -0.3002  0.2607
  183SLPC   H9R21004   1.567   1.289   9.401 -0.9925 -0.2336 -0.7046
  183SLPC  C21021005   1.424   1.139   9.378 -0.0764 -0.9589  0.5391
  183SLPC  H10R21006   1.383   1.177   9.283  0.2524 -2.1835 -0.1063
  183SLPC  C21121007   1.360   1.003   9.409  0.2846  0.3446  0.1004
  183SLPC  H11R21008   1.255   1.027   9.435 -0.8702 -2.6405 -1.5185
  183SLPC  H11S21009   1.411   0.964   9.500 -0.0825 -0.3662  0.0082
  183SLPC  C21221010   1.363   0.899   9.303  0.3137  0.8827  0.2439
  183SLPC  H12R21011   1.291   0.915   9.221  1.2536 -0.8377 -0.9573
  183SLPC  C21321012   1.439   0.788   9.294  0.3473  0.6579  0.2352
  183SLPC  H13R21013   1.430   0.716   9.211 -1.7257  2.9316 -1.5820
  183SLPC  C21421014   1.546   0.751   9.389  0.2423 -1.0175  0.1090
  183SLPC  H14R21015   1.570   0.643   9.378  3.9811 -0.2840  0.2878
  183SLPC  H14S21016   1.515   0.779   9.493  0.5762  0.2162 -0.1110
  183SLPC  C21521017   1.670   0.824   9.356 -0.5234 -0.3224  0.3141
  183SLPC  H15R21018   1.726   0.827   9.452  1.3432 -0.9845 -0.7410
  183SLPC  H15S21019   1.644   0.930   9.332 -2.1579 -1.1519 -1.6859
  183SLPC  C21621020   1.755   0.760   9.248  0.3998  0.2428 -0.9783
  183SLPC  H16R21021   1.696   0.760   9.153 -0.9957 -0.2848 -0.1187
  183SLPC  H16S21022   1.785   0.657   9.275 -0.1902 -0.2502 -2.1492
  183SLPC  C21721023   1.881   0.842   9.217 -0.2323 -0.1715  0.0212
  183SLPC  H17R21024   1.842   0.941   9.184 -0.6594 -1.0636 -2.2665
  183SLPC  H17S21025   1.932   0.799   9.129  0.5829  0.6885  0.0665
  183SLPC  C21821026   1.984   0.861   9.323 -0.5922  0.5786  0.0710
  183SLPC  H18R21027   2.009   0.763   9.369 -1.4317 -0.0496 -0.8020
  183SLPC  H18S21028   1.948   0.934   9.398 -3.3710  0.5702 -1.2149
  183SLPC  H18T21029   2.075   0.908   9.281  0.2566  0.0181  1.2400
  183SLPC   C3321030   1.976   1.642  10.042 -0.0269 -0.0562  0.1613
  183SLPC   H3X21031   1.964   1.746  10.006  1.2143 -0.2058 -0.7217
  183SLPC   H3Y21032   1.875   1.601  10.063  1.0239 -2.4167  0.7647
  183SLPC   C3421033   2.050   1.572   9.928  0.8792 -0.6216 -0.2473
  183SLPC   H4X21034   2.045   1.462   9.946 -2.9828 -0.2319  1.5209
  183SLPC   H4Y21035   2.154   1.611   9.926  0.2137  1.1425 -1.5392
  183SLPC   C3521036   1.971   1.600   9.798  0.6896 -0.2660 -0.2764
  183SLPC   H5X21037   1.933   1.704   9.807 -1.1514 -0.8037 -1.5040
  183SLPC   H5Y21038   1.881   1.537   9.782  0.2755  0.1957  0.2003
  183SLPC   C3621039   2.054   1.583   9.668  0.1842 -0.6111  0.2775
  183SLPC   H6X21040   2.105   1.484   9.671  1.5453  0.1137  1.4217
  183SLPC   H6Y21041   2.138   1.655   9.661 -0.5550  0.6100  3.2341
  183SLPC   C3721042   1.971   1.592   9.540  0.7864  0.6064  0.0032
  183SLPC   H7X21043   2.019   1.645   9.454 -0.1927  0.1358 -0.8476
  183SLPC   H7Y21044   1.880   1.656   9.548  0.9018  0.7239  0.3840
  183SLPC   C3821045   1.933   1.448   9.494 -0.5842 -0.0978 -0.7696
  183SLPC   H8X21046   1.850   1.412   9.559  0.9423 -0.3996  1.0913
  183SLPC   H8Y21047   2.023   1.382   9.497 -1.8652 -1.9805 -2.3035
  183SLPC   C3921048   1.893   1.451   9.349 -0.5333  0.1127 -0.6086
  183SLPC   H9X21049   1.967   1.513   9.293 -0.3427 -0.2371 -0.7437
  183SLPC   H9Y21050   1.791   1.493   9.352 -1.1933 -1.4153 -1.2604
  183SLPC  C31021051   1.877   1.303   9.302  0.9051 -0.1765 -0.1275
  183SLPC  H10X21052   1.807   1.260   9.376  0.5102  2.4975  1.1405
  183SLPC  H10Y21053   1.973   1.247   9.303  2.1912  1.9244 -0.2036
  183SLPC  C31121054   1.807   1.294   9.172  0.1608 -0.1352 -0.5995
  183SLPC  H11X21055   1.760   1.392   9.147 -0.3842 -0.5395 -1.1774
  183SLPC  H11Y21056   1.722   1.223   9.174 -1.2183  1.5089  0.9641
  183SLPC  C31221057   1.903   1.249   9.053 -0.0736 -0.0102 -0.4745
  183SLPC  H12X21058   1.957   1.155   9.078  0.4480  0.0815 -1.2262
  183SLPC  H12Y21059   1.965   1.339   9.036 -2.3706  1.9713  1.2600
  183SLPC  C31321060   1.817   1.231   8.925 -0.1747 -0.0128  0.0246
  183SLPC  H13X21061   1.731   1.300   8.912  2.0264  3.2364  2.0508
  183SLPC  H13Y21062   1.769   1.130   8.932 -1.8315  0.5818 -2.1802
  183SLPC  C31421063   1.899   1.233   8.798  0.4074 -0.2663 -0.3112
  183SLPC  H14X21064   1.834   1.237   8.708  1.5975  1.7999 -1.0899
  183SLPC  H14Y21065   1.957   1.141   8.775 -1.6374 -1.2800 -1.5482
  183SLPC  C31521066   2.018   1.332   8.784  1.4520 -0.0309  0.3999
  183SLPC  H15X21067   2.105   1.317   8.853  0.4814 -1.6381  1.2995
  183SLPC  H15Y21068   1.978   1.434   8.807  0.6359 -0.4742  0.9772
  183SLPC  C31621069   2.065   1.331   8.632  0.5569 -0.1066  0.1866
  183SLPC  H16X21070   1.967   1.315   8.582  1.0975  1.2558 -1.3399
  183SLPC  H16Y21071   2.129   1.243   8.610  1.2146  0.3607  0.2147
  183SLPC  C31721072   2.130   1.461   8.593  0.1580  0.1685 -0.7656
  183SLPC  H17X21073   2.064   1.544   8.629 -1.5840 -1.9652  1.1060
  183SLPC  H17Y21074   2.136   1.461   8.482 -0.6159  2.0931 -0.8396
  183SLPC  C31821075   2.280   1.456   8.633 -0.5162  0.3256  0.9584
  183SLPC  H18X21076   2.331   1.376   8.576  1.7351  1.4951  1.2798
  183SLPC  H18Y21077   2.294   1.435   8.741  3.2361  0.0860  0.4850
  183SLPC  H18Z21078   2.341   1.547   8.614  2.3323 -1.1067  3.0372
  184SLPC     N21079   4.729   6.220  11.001  0.3640 -0.5890  0.0579
  184SLPC   C1321080   4.730   6.128  10.886  0.3340  0.5274  0.3151
  184SLPC  H13A21081   4.762   6.030  10.919 -1.6485 -0.9810 -2.0610
  184SLPC  H13B21082   4.630   6.123  10.844 -0.1885  0.3013  1.5691
  184SLPC  H13C21083   4.794   6.169  10.809 -2.0768  0.9767 -1.5041
  184SLPC   C1421084   4.855   6.217  11.074  0.2768 -0.9702  0.2685
  184SLPC  H14A21085   4.936   6.239  11.006 -1.4918 -2.4764 -2.4058
  184SLPC  H14B21086   4.864   6.295  11.148  1.9482 -1.0247  0.1501
  184SLPC  H14C21087   4.876   6.120  11.118  1.4880 -0.1717  1.4744
  184SLPC   C1521088   4.627   6.188  11.101  0.4576 -0.0067  0.5795
  184SLPC  H15A21089   4.636   6.083  11.128  0.4051  0.1003  1.0192
  184SLPC  H15B21090   4.640   6.246  11.191  2.1767 -1.2188  1.1549
  184SLPC  H15C21091   4.529   6.204  11.059  0.3739 -0.9673  0.3892
  184SLPC   C1221092   4.710   6.367  10.954  0.5926  0.1284  0.5562
  184SLPC  H12A21093   4.791   6.402  10.891  0.6148  0.6338  0.8622
  184SLPC  H12B21094   4.711   6.422  11.047 -0.8424  0.8705  0.1485
  184SLPC   C1121095   4.574   6.402  10.880 -0.6119  0.2029  0.0514
  184SLPC  H11A21096   4.584   6.512  10.865  0.8616  0.1757  0.7551
  184SLPC  H11B21097   4.497   6.376  10.955  0.3300 -2.4718  0.1533
  184SLPC     P21098   4.412   6.319  10.704 -0.4223  0.1397  0.4768
  184SLPC   O1321099   4.345   6.199  10.757  0.4024  0.7934 -0.3794
  184SLPC   O1421100   4.347   6.452  10.709  0.2040  0.0048  0.4539
  184SLPC   O1221101   4.560   6.335  10.758 -0.1461  0.2058 -0.2284
  184SLPC   O1121102   4.439   6.290  10.557  0.0169 -0.7699  0.5572
  184SLPC    C121103   4.444   6.158  10.501  0.3016 -0.5503  0.8604
  184SLPC    HA21104   4.537   6.152  10.440  0.2064 -1.2585  0.7786
  184SLPC    HB21105   4.457   6.081  10.580 -0.4624  0.3172  1.8472
  184SLPC    C221106   4.328   6.123  10.407 -0.4693 -0.2195 -0.6648
  184SLPC    HS21107   4.355   6.030  10.351  0.3344 -0.8896  0.8139
  184SLPC   O2121108   4.300   6.234  10.316  0.0963 -0.4104 -0.4241
  184SLPC   C2121109   4.360   6.219  10.200 -0.0318  0.9390 -0.1397
  184SLPC   O2221110   4.429   6.121  10.171 -0.1819 -0.1677  0.0439
  184SLPC   C2221111   4.342   6.344  10.120 -0.1318  0.1402  0.4794
  184SLPC   H2R21112   4.231   6.356  10.125 -0.2582 -0.8028  0.1126
  184SLPC   H2S21113   4.392   6.429  10.170  2.7997 -0.5969 -1.0487
  184SLPC    C321114   4.197   6.082  10.490  0.0969  0.3102 -0.8279
  184SLPC    HX21115   4.143   6.176  10.514  0.1523  0.6223 -1.8806
  184SLPC    HY21116   4.224   6.030  10.584  0.2252  0.7695 -0.6070
  184SLPC   O3121117   4.110   6.011  10.392  0.5282 -0.2296 -0.0167
  184SLPC   C3121118   4.028   6.080  10.315  0.2951 -0.0985 -0.7801
  184SLPC   O3221119   3.996   6.201  10.331 -0.0290  0.0718 -0.2786
  184SLPC   C3221120   3.989   6.001  10.196  0.0651  0.4652 -0.8244
  184SLPC   H2X21121   3.931   5.917  10.240  0.4040  0.7080  0.0964
  184SLPC   H2Y21122   4.090   5.969  10.162  0.0460 -0.1771 -0.2896
  184SLPC   C2321123   4.403   6.339   9.978 -0.2250  0.5258  0.1046
  184SLPC   H3R21124   4.329   6.385   9.909 -0.3090  1.3262  0.7165
  184SLPC   H3S21125   4.429   6.237   9.942 -0.6223 -0.6676  3.0704
  184SLPC   C2421126   4.538   6.409   9.957  0.1282 -0.0110 -0.2082
  184SLPC   H4R21127   4.619   6.347  10.001  0.2549 -0.3652 -0.9335
  184SLPC   H4S21128   4.534   6.510  10.003 -1.0038 -0.1435  0.0099
  184SLPC   C2521129   4.565   6.438   9.807  0.0859  0.0535 -0.6569
  184SLPC   H5R21130   4.667   6.481   9.817  0.2954 -0.2351 -1.4663
  184SLPC   H5S21131   4.499   6.519   9.771 -1.5609 -0.7431  0.5343
  184SLPC   C2621132   4.565   6.323   9.712  0.3975  0.2816  0.3942
  184SLPC   H6R21133   4.459   6.291   9.703  0.4562  0.5845 -1.6498
  184SLPC   H6S21134   4.626   6.236   9.745  0.9218  0.7124  0.5648
  184SLPC   C2721135   4.606   6.357   9.569  0.2317  0.5659 -0.9660
  184SLPC   H7R21136   4.707   6.404   9.577  0.0599  1.0332 -1.4709
  184SLPC   H7S21137   4.543   6.428   9.510 -0.0513  1.5776  0.5170
  184SLPC   C2821138   4.633   6.242   9.474 -0.1524  0.1495 -0.4140
  184SLPC   H8R21139   4.710   6.174   9.516  1.0013  1.5669 -0.1954
  184SLPC   H8S21140   4.673   6.293   9.384  0.3073  1.3875  0.4768
  184SLPC   C2921141   4.503   6.166   9.454  0.5710  0.0835 -0.3818
  184SLPC   H9R21142   4.478   6.110   9.546  1.3885  0.7999  0.2858
  184SLPC  C21021143   4.421   6.162   9.350  0.2903 -0.2424  0.3233
  184SLPC  H10R21144   4.330   6.102   9.363  0.0614 -0.2627 -1.2936
  184SLPC  C21121145   4.433   6.245   9.224  0.4920 -0.0060 -0.7010
  184SLPC  H11R21146   4.457   6.176   9.140  1.2039 -0.5095 -0.0946
  184SLPC  H11S21147   4.514   6.320   9.237  1.1425 -1.0559  1.7716
  184SLPC  C21221148   4.301   6.305   9.191  0.7650 -0.1842 -0.5526
  184SLPC  H12R21149   4.256   6.365   9.271  2.4543 -0.3896  0.5795
  184SLPC  C21321150   4.218   6.292   9.084  0.4371 -0.0736  0.8850
  184SLPC  H13R21151   4.115   6.330   9.091  0.8458  0.9184  1.5132
  184SLPC  C21421152   4.227   6.211   8.957 -0.6118 -0.1752 -0.5820
  184SLPC  H14R21153   4.150   6.131   8.966  0.0936 -1.0677 -2.1927
  184SLPC  H14S21154   4.323   6.157   8.942 -0.1612  0.7068 -0.9126
  184SLPC  C21521155   4.209   6.287   8.822 -0.0991  0.7245  1.2995
  184SLPC  H15R21156   4.205   6.212   8.740 -0.5040  0.0701  1.9070
  184SLPC  H15S21157   4.304   6.343   8.807  0.4528 -0.7658 -1.0232
  184SLPC  C21621158   4.080   6.362   8.802  0.3272 -0.1519  0.0594
  184SLPC  H16R21159   4.067   6.443   8.878 -2.3159 -0.2017 -0.2934
  184SLPC  H16S21160   4.003   6.284   8.816  0.6244 -0.4517  0.0214
  184SLPC  C21721161   4.079   6.414   8.658  0.1008  0.0124  0.1828
  184SLPC  H17R21162   4.168   6.480   8.642 -2.6028  3.2647 -2.2221
  184SLPC  H17S21163   3.997   6.488   8.646  0.2850  0.4691  1.5885
  184SLPC  C21821164   4.069   6.304   8.553 -0.4609  0.4369  0.6507
  184SLPC  H18R21165   3.974   6.246   8.552 -0.5767  0.6161 -0.9049
  184SLPC  H18S21166   4.163   6.245   8.550  0.8116  2.3992  0.3357
  184SLPC  H18T21167   4.085   6.350   8.453 -0.6420  0.4844  0.6442
  184SLPC   C3321168   3.912   6.072  10.089  0.2500 -0.4475 -0.6801
  184SLPC   H3X21169   3.820   6.121  10.128  1.6906  2.9641 -1.3793
  184SLPC   H3Y21170   3.862   5.998  10.023 -0.1279  0.4273 -1.3791
  184SLPC   C3421171   3.998   6.172  10.021 -0.5516  0.2131  0.2387
  184SLPC   H4X21172   4.068   6.113   9.959  1.2797  2.5975 -0.0290
  184SLPC   H4Y21173   4.055   6.236  10.091 -0.5478 -1.3344  1.6488
  184SLPC   C3521174   3.910   6.260   9.935  0.4366 -0.1321  0.0286
  184SLPC   H5X21175   3.825   6.309   9.986  1.3599  0.9949  0.5023
  184SLPC   H5Y21176   3.853   6.198   9.862  2.1427  0.4936 -1.9158
  184SLPC   C3621177   3.993   6.353   9.843 -0.4033 -0.2380  0.1174
  184SLPC   H6X21178   4.089   6.303   9.819  0.6004  2.3644 -1.4561
  184SLPC   H6Y21179   4.021   6.438   9.909 -0.3120 -1.0772  1.1656
  184SLPC   C3721180   3.932   6.417   9.717  0.0378  0.0776 -0.3231
  184SLPC   H7X21181   4.008   6.486   9.673 -1.2414  0.5204 -1.8752
  184SLPC   H7Y21182   3.838   6.465   9.750  0.4327  0.8598 -0.3234
  184SLPC   C3821183   3.895   6.313   9.605  0.7473  0.2778  0.6040
  184SLPC   H8X21184   3.817   6.349   9.535 -0.2292  1.2409  2.1551
  184SLPC   H8Y21185   3.859   6.217   9.650 -1.8985 -0.0616 -2.1117
  184SLPC   C3921186   4.021   6.282   9.513  0.8647 -0.4447 -0.5796
  184SLPC   H9X21187   4.101   6.255   9.585 -1.1159 -1.6574  1.2130
  184SLPC   H9Y21188   4.053   6.367   9.448  1.4348 -0.2712 -0.0747
  184SLPC  C31021189   4.000   6.167   9.406 -0.2183 -0.1382 -0.0271
  184SLPC  H10X21190   4.100   6.156   9.359  0.3299 -1.3887  1.3880
  184SLPC  H10Y21191   3.927   6.202   9.330 -0.6922 -0.4293  0.2879
  184SLPC  C31121192   3.958   6.027   9.461  0.0443  0.1147 -0.3279
  184SLPC  H11X21193   3.862   6.027   9.517  1.4285  0.9094  2.1161
  184SLPC  H11Y21194   4.031   6.004   9.541  1.5594 -2.2896 -2.3377
  184SLPC  C31221195   3.956   5.911   9.351 -0.1575  0.4374  0.3560
  184SLPC  H12X21196   4.055   5.906   9.302 -0.1491 -1.0542  0.5161
  184SLPC  H12Y21197   3.884   5.933   9.269 -1.5252  1.7719  1.8818
  184SLPC  C31321198   3.927   5.773   9.418 -0.5031 -0.9185  0.2893
  184SLPC  H13X21199   3.821   5.763   9.451  0.5735 -3.4987  3.2505
  184SLPC  H13Y21200   3.993   5.748   9.504 -1.3598 -0.9206  0.9534
  184SLPC  C31421201   3.962   5.658   9.322 -0.1665  0.0635 -0.1417
  184SLPC  H14X21202   3.954   5.562   9.379 -0.4610  0.4657  0.5010
  184SLPC  H14Y21203   4.071   5.665   9.302 -0.1887  1.2846  0.1174
  184SLPC  C31521204   3.865   5.634   9.203 -0.9091 -0.3298  0.2237
  184SLPC  H15X21205   3.860   5.734   9.155 -2.5464 -0.2319  0.5755
  184SLPC  H15Y21206   3.766   5.604   9.244 -1.3000 -0.3457 -0.7061
  184SLPC  C31621207   3.914   5.524   9.106 -0.1260  0.1516  0.6369
  184SLPC  H16X21208   4.005   5.562   9.056  0.1354  0.4110  1.3140
  184SLPC  H16Y21209   3.833   5.511   9.031 -2.3078  1.8552  2.6023
  184SLPC  C31721210   3.942   5.388   9.173  0.2474 -0.6095  0.0301
  184SLPC  H17X21211   3.852   5.356   9.230  1.2228 -2.9111  0.3325
  184SLPC  H17Y21212   4.028   5.398   9.243  0.1431 -0.9207  0.1996
  184SLPC  C31821213   3.967   5.284   9.069 -0.1307 -0.3128 -0.0854
  184SLPC  H18X21214   4.006   5.190   9.113 -1.7680 -1.3292 -0.7587
  184SLPC  H18Y21215   4.024   5.334   8.988 -1.6638 -0.5012 -1.3119
  184SLPC  H18Z21216   3.867   5.260   9.026  0.0054 -2.3652  0.6797
  185SLPC     N21217   2.043   3.226   6.466 -0.2466  0.2367 -0.7683
  185SLPC   C1321218   2.155   3.227   6.369 -0.6980  0.3090  0.4169
  185SLPC  H13A21219   2.132   3.284   6.280 -1.5275 -1.0538 -0.2613
  185SLPC  H13B21220   2.233   3.276   6.426 -1.1336 -0.4953  1.7305
  185SLPC  H13C21221   2.185   3.129   6.337 -0.4927  0.3053  0.6173
  185SLPC   C1421222   1.921   3.173   6.412 -0.7824 -0.0353  0.3450
  185SLPC  H14A21223   1.842   3.173   6.486 -0.0988 -0.5045  1.0906
  185SLPC  H14B21224   1.885   3.231   6.329  0.5454  2.1462  1.2461
  185SLPC  H14C21225   1.923   3.070   6.381 -0.5749  0.2058 -0.4437
  185SLPC   C1521226   2.019   3.368   6.504  0.3413 -0.9237 -0.7633
  185SLPC  H15A21227   1.958   3.373   6.592  1.1244  0.3262 -0.2721
  185SLPC  H15B21228   2.111   3.407   6.545 -0.3281  0.1387 -0.2593
  185SLPC  H15C21229   1.996   3.430   6.418 -0.3668 -1.3995 -0.9177
  185SLPC   C1221230   2.089   3.149   6.599 -0.7594 -0.4354  0.0851
  185SLPC  H12A21231   2.090   3.042   6.588 -0.7931 -0.5891  1.3948
  185SLPC  H12B21232   2.009   3.165   6.670  1.1655  2.1889  1.7717
  185SLPC   C1121233   2.219   3.199   6.660  0.2376  0.0752  0.6759
  185SLPC  H11A21234   2.228   3.145   6.756 -0.3327  0.8637  1.1732
  185SLPC  H11B21235   2.215   3.309   6.678 -3.6351  0.0994 -0.0796
  185SLPC     P21236   2.417   3.030   6.588  0.2178 -0.2414 -0.1514
  185SLPC   O1321237   2.347   2.941   6.492 -1.1289  0.0069 -0.7359
  185SLPC   O1421238   2.561   3.058   6.547  0.3149  0.2598  0.8647
  185SLPC   O1221239   2.337   3.168   6.580  0.9183  0.6833 -0.1507
  185SLPC   O1121240   2.406   2.976   6.733  0.0239 -0.2588 -0.3616
  185SLPC    C121241   2.459   3.040   6.851 -0.1019  0.5746 -0.0668
  185SLPC    HA21242   2.536   3.117   6.831 -1.1851  1.9485  0.8971
  185SLPC    HB21243   2.370   3.088   6.897  1.9622  0.6188  4.1855
  185SLPC    C221244   2.526   2.930   6.944  0.2388 -0.0315  0.8189
  185SLPC    HS21245   2.611   2.880   6.892  0.2342  1.1290 -0.3298
  185SLPC   O2121246   2.424   2.835   6.983  0.3027 -0.5547 -0.4506
  185SLPC   C2121247   2.478   2.727   7.031  0.0667  0.5702  0.8677
  185SLPC   O2221248   2.596   2.706   7.045 -0.3288 -0.1566  0.3767
  185SLPC   C2221249   2.364   2.629   7.045  0.1826  0.3964 -0.0195
  185SLPC   H2R21250   2.273   2.679   7.084  1.6726  0.6176  3.3989
  185SLPC   H2S21251   2.350   2.593   6.941  0.9344  0.7906 -0.2646
  185SLPC    C321252   2.587   3.011   7.061 -0.5088 -0.3523 -0.5911
  185SLPC    HX21253   2.649   3.083   7.004 -1.8411 -1.4800 -3.5442
  185SLPC    HY21254   2.655   2.949   7.123  0.8952  1.0362 -0.7049
  185SLPC   O3121255   2.500   3.092   7.131  0.1194  0.6116 -0.0669
  185SLPC   C3121256   2.427   3.032   7.235 -0.5758 -0.2879 -0.2323
  185SLPC   O3221257   2.436   2.913   7.259  0.2594 -0.6812 -0.1785
  185SLPC   C3221258   2.333   3.136   7.306  0.4107  0.1875 -0.0460
  185SLPC   H2X21259   2.258   3.160   7.228 -2.5772 -0.6171  2.4626
  185SLPC   H2Y21260   2.388   3.229   7.332 -0.3305  0.8476 -0.8248
  185SLPC   C2321261   2.395   2.509   7.139 -0.5793  0.4993  0.5940
  185SLPC   H3R21262   2.482   2.451   7.100 -0.1692  1.5164 -0.0056
  185SLPC   H3S21263   2.313   2.434   7.134  1.5759 -1.8710 -0.3665
  185SLPC   C2421264   2.418   2.559   7.292  0.0437  0.5446  0.1477
  185SLPC   H4R21265   2.495   2.638   7.284  0.2005  0.4178  0.4343
  185SLPC   H4S21266   2.453   2.477   7.357 -1.8632  0.8847  1.6574
  185SLPC   C2521267   2.291   2.620   7.354  0.1619  0.1053 -0.1861
  185SLPC   H5R21268   2.207   2.548   7.338  0.5035 -0.4770  0.6004
  185SLPC   H5S21269   2.252   2.713   7.308 -2.4221 -2.4135 -3.3580
  185SLPC   C2621270   2.314   2.642   7.504  0.1766  0.5466  0.0776
  185SLPC   H6R21271   2.408   2.696   7.528  1.3213 -1.8692  1.2442
  185SLPC   H6S21272   2.320   2.541   7.551  0.8518  1.0120  1.0169
  185SLPC   C2721273   2.185   2.706   7.556 -0.1416 -0.1174 -0.8130
  185SLPC   H7R21274   2.104   2.635   7.531 -1.5664  1.2431 -0.1376
  185SLPC   H7S21275   2.161   2.798   7.498  0.6647 -0.0379 -1.0230
  185SLPC   C2821276   2.192   2.737   7.713  0.0684 -0.6790 -0.1227
  185SLPC   H8R21277   2.217   2.640   7.762 -2.0867 -1.0382  0.3295
  185SLPC   H8S21278   2.091   2.766   7.747  0.7355  1.2785  0.2610
  185SLPC   C2921279   2.291   2.856   7.734  0.3041 -0.8845 -0.0453
  185SLPC   H9R21280   2.263   2.957   7.702  1.1278 -0.7024 -0.1969
  185SLPC  C21021281   2.417   2.844   7.797  0.2718 -0.2467 -0.4334
  185SLPC  H10R21282   2.482   2.933   7.806  1.2354 -0.9277 -0.6110
  185SLPC  C21121283   2.466   2.712   7.862 -0.1484 -0.4400 -0.1465
  185SLPC  H11R21284   2.395   2.627   7.858  0.3478 -0.8878  0.5412
  185SLPC  H11S21285   2.480   2.735   7.969 -0.4618 -1.9732  0.2343
  185SLPC  C21221286   2.596   2.674   7.796 -0.2484 -0.2768 -0.5030
  185SLPC  H12R21287   2.621   2.713   7.696  2.0449 -0.7134 -0.1260
  185SLPC  C21321288   2.684   2.591   7.855 -0.0184 -0.3550 -0.1112
  185SLPC  H13R21289   2.770   2.552   7.798  1.4890 -1.3101  2.7239
  185SLPC  C21421290   2.670   2.531   7.997 -0.4429  0.7062  0.0262
  185SLPC  H14R21291   2.714   2.431   8.015 -0.9775  0.1994 -1.4290
  185SLPC  H14S21292   2.568   2.523   8.040 -0.8792  2.1921 -0.6875
  185SLPC  C21521293   2.759   2.621   8.091  0.3676 -0.3342  0.4146
  185SLPC  H15R21294   2.857   2.646   8.046  0.7656  0.4664  1.7189
  185SLPC  H15S21295   2.785   2.544   8.167 -1.8479  0.9974  2.6178
  185SLPC  C21621296   2.686   2.734   8.148  0.5765 -0.7143 -0.4798
  185SLPC  H16R21297   2.589   2.690   8.179  1.6733 -2.7516  0.2000
  185SLPC  H16S21298   2.676   2.798   8.058 -1.1956 -0.4727 -0.1242
  185SLPC  C21721299   2.760   2.803   8.260 -0.4446 -0.1605 -0.5056
  185SLPC  H17R21300   2.711   2.893   8.304 -1.5058 -1.6513  1.4560
  185SLPC  H17S21301   2.851   2.842   8.211  0.8312 -1.2438  0.9483
  185SLPC  C21821302   2.809   2.713   8.381  0.9545 -0.1065  0.6197
  185SLPC  H18R21303   2.863   2.771   8.458 -0.9928 -1.1416  2.8155
  185SLPC  H18S21304   2.880   2.637   8.344  0.5654 -0.7025  1.1014
  185SLPC  H18T21305   2.728   2.653   8.428  0.7828 -0.7002 -0.4093
  185SLPC   C3321306   2.271   3.070   7.433  0.1184  0.0767 -0.2738
  185SLPC   H3X21307   2.344   3.049   7.513  1.4620 -0.0569 -1.5217
  185SLPC   H3Y21308   2.207   2.981   7.414  0.4721 -0.7826  2.4460
  185SLPC   C3421309   2.171   3.165   7.505  0.1617  0.2240  0.2306
  185SLPC   H4X21310   2.075   3.110   7.515  0.7440 -0.3810  2.8665
  185SLPC   H4Y21311   2.151   3.243   7.429  2.0915  1.6519  1.1171
  185SLPC   C3521312   2.210   3.232   7.635  0.4604  0.6532  0.1265
  185SLPC   H5X21313   2.281   3.314   7.609  0.6760 -0.0285 -1.5189
  185SLPC   H5Y21314   2.259   3.162   7.706  0.6444 -0.7307 -1.3303
  185SLPC   C3621315   2.086   3.295   7.707 -0.4362  0.3248 -0.4363
  185SLPC   H6X21316   2.037   3.209   7.758  0.2402  0.3053  0.1802
  185SLPC   H6Y21317   2.016   3.325   7.627  0.1951 -1.6651 -1.8001
  185SLPC   C3721318   2.111   3.416   7.799  0.2307  0.3177 -0.5286
  185SLPC   H7X21319   2.011   3.452   7.834  0.6365  0.9283  0.0164
  185SLPC   H7Y21320   2.144   3.498   7.732 -0.5374  1.8596  0.9063
  185SLPC   C3821321   2.218   3.394   7.910 -0.3599 -0.2499  0.2257
  185SLPC   H8X21322   2.312   3.364   7.859 -1.6897 -1.7180 -1.4294
  185SLPC   H8Y21323   2.192   3.297   7.957  0.2493  0.2874  1.6898
  185SLPC   C3921324   2.237   3.510   8.007 -0.0058  1.2346  0.0365
  185SLPC   H9X21325   2.248   3.611   7.963  0.2994  0.6040 -1.3857
  185SLPC   H9Y21326   2.325   3.494   8.073  0.4451  0.3301 -0.7706
  185SLPC  C31021327   2.123   3.504   8.105  0.7031  0.4123 -0.8003
  185SLPC  H10X21328   2.101   3.397   8.126  1.4378  0.7327  1.6891
  185SLPC  H10Y21329   2.042   3.545   8.041  1.4372  1.2107 -1.2163
  185SLPC  C31121330   2.132   3.590   8.229 -0.5326  0.1470 -0.7233
  185SLPC  H11X21331   2.029   3.603   8.268  0.3670  1.7627  1.1580
  185SLPC  H11Y21332   2.177   3.690   8.214 -1.7192  1.0080  1.3043
  185SLPC  C31221333   2.200   3.523   8.351  0.4530  0.0152  0.2147
  185SLPC  H12X21334   2.293   3.478   8.311 -0.3421 -0.9399 -0.5715
  185SLPC  H12Y21335   2.145   3.436   8.391  1.1628 -0.0305  1.0988
  185SLPC  C31321336   2.249   3.618   8.466  0.1431  0.4828  0.9865
  185SLPC  H13X21337   2.162   3.658   8.522 -1.0080 -2.1254  1.1262
  185SLPC  H13Y21338   2.318   3.691   8.418  0.3226 -1.2552 -1.5083
  185SLPC  C31421339   2.350   3.547   8.563  0.1042 -0.2459 -0.4477
  185SLPC  H14X21340   2.425   3.490   8.503  1.6958  0.4849  0.8006
  185SLPC  H14Y21341   2.299   3.477   8.632 -0.1277  0.2554 -0.1127
  185SLPC  C31521342   2.416   3.647   8.664 -0.6649  0.5278 -0.2724
  185SLPC  H15X21343   2.499   3.705   8.619  0.5617 -1.8673 -1.1734
  185SLPC  H15Y21344   2.460   3.582   8.742  1.7951  0.5377 -1.6241
  185SLPC  C31621345   2.320   3.734   8.745  0.3337  0.1024  0.3276
  185SLPC  H16X21346   2.245   3.681   8.808  0.2676  1.3071  1.2577
  185SLPC  H16Y21347   2.255   3.785   8.671 -0.5655 -2.8217 -0.9906
  185SLPC  C31721348   2.387   3.847   8.823  0.3839  0.6386 -0.3653
  185SLPC  H17X21349   2.456   3.909   8.763 -0.2839  1.9607  0.1966
  185SLPC  H17Y21350   2.449   3.796   8.900 -1.0365  1.1103  1.1359
  185SLPC  C31821351   2.289   3.940   8.894 -0.5718  0.4716  0.1856
  185SLPC  H18X21352   2.220   3.886   8.961  0.8788 -2.1698 -0.3773
  185SLPC  H18Y21353   2.234   3.995   8.815  0.1531  2.1956  0.8401
  185SLPC  H18Z21354   2.349   4.008   8.959 -0.9445 -1.3350  2.4802
  186SLPC     N21355   3.168   5.578   6.005 -0.7753 -0.6873  0.3225
  186SLPC   C1321356   3.085   5.503   5.903  0.4301  0.7432  0.3099
  186SLPC  H13A21357   3.000   5.449   5.942  2.1560 -0.2918  2.7553
  186SLPC  H13B21358   3.045   5.576   5.833 -2.0576 -0.6270  0.2581
  186SLPC  H13C21359   3.139   5.434   5.839 -0.0928  1.2703 -0.7226
  186SLPC   C1421360   3.094   5.699   6.042  0.3790  0.5233  0.1661
  186SLPC  H14A21361   3.079   5.761   5.955  3.0308 -0.0714 -0.7704
  186SLPC  H14B21362   3.005   5.665   6.094 -0.0867 -0.1342 -1.0238
  186SLPC  H14C21363   3.150   5.757   6.113  0.8651  0.1306  0.1084
  186SLPC   C1521364   3.292   5.625   5.940  0.5951 -0.2430 -0.1097
  186SLPC  H15A21365   3.272   5.690   5.857  0.3629 -0.8430 -0.5260
  186SLPC  H15B21366   3.357   5.666   6.016 -0.1037 -1.2269  1.0421
  186SLPC  H15C21367   3.356   5.546   5.901  2.5183  1.4308 -0.4302
  186SLPC   C1221368   3.195   5.503   6.131 -0.0362  0.1573 -0.5838
  186SLPC  H12A21369   3.230   5.405   6.103  0.4847  0.0827  0.3247
  186SLPC  H12B21370   3.101   5.484   6.180  0.2524 -0.8775 -0.4124
  186SLPC   C1121371   3.298   5.553   6.237 -0.1843  0.7956 -0.2198
  186SLPC  H11A21372   3.266   5.506   6.332 -0.9733  1.7882  0.0271
  186SLPC  H11B21373   3.295   5.663   6.255  0.2748  0.5981  1.0826
  186SLPC     P21374   3.485   5.370   6.231 -0.4202 -0.0209 -0.2551
  186SLPC   O1321375   3.397   5.267   6.173  0.3260 -0.2058 -0.2612
  186SLPC   O1421376   3.628   5.358   6.192  0.0743  0.1056  0.0015
  186SLPC   O1221377   3.427   5.513   6.194  0.1208  0.0784 -0.0783
  186SLPC   O1121378   3.480   5.372   6.389 -0.0787 -0.0700  0.4596
  186SLPC    C121379   3.603   5.416   6.456  0.2700 -0.0448  0.5810
  186SLPC    HA21380   3.668   5.326   6.459 -2.0723 -1.7860  0.0903
  186SLPC    HB21381   3.656   5.502   6.409  1.6641 -0.8761  0.6280
  186SLPC    C221382   3.572   5.484   6.587 -0.1027  0.1797 -0.4803
  186SLPC    HS21383   3.671   5.512   6.628 -0.0009 -1.8744  0.7162
  186SLPC   O2121384   3.513   5.378   6.669  0.3814 -0.2429  0.0136
  186SLPC   C2121385   3.593   5.323   6.761  0.5062  0.3271 -0.8930
  186SLPC   O2221386   3.707   5.356   6.778  0.1450  0.0790  0.5163
  186SLPC   C2221387   3.520   5.206   6.830 -0.2803 -0.3522  0.0904
  186SLPC   H2R21388   3.413   5.229   6.850 -0.1729 -0.0018  0.2620
  186SLPC   H2S21389   3.531   5.116   6.766 -0.2503 -0.2596 -0.0365
  186SLPC    C321390   3.470   5.607   6.561  0.2479  0.7454  0.4830
  186SLPC    HX21391   3.382   5.545   6.532  0.0507  1.1246  0.2599
  186SLPC    HY21392   3.497   5.672   6.476  2.2567  0.5970  0.9757
  186SLPC   O3121393   3.445   5.688   6.681 -0.4029  0.4496  0.3220
  186SLPC   C3121394   3.345   5.772   6.689 -0.1516 -0.7971  0.5790
  186SLPC   O3221395   3.259   5.790   6.597 -0.1716 -0.2594  0.0284
  186SLPC   C3221396   3.350   5.851   6.827 -0.0432  0.0452  0.6407
  186SLPC   H2X21397   3.243   5.847   6.858  0.0204  0.9530  0.9896
  186SLPC   H2Y21398   3.382   5.954   6.800  1.7970 -0.3358  1.3121
  186SLPC   C2321399   3.592   5.191   6.973  0.2127  0.0362 -0.2037
  186SLPC   H3R21400   3.701   5.172   6.964  0.0659 -0.9757  0.0905
  186SLPC   H3S21401   3.544   5.105   7.024  0.8644 -1.4236 -2.0007
  186SLPC   C2421402   3.574   5.315   7.072 -0.0422  0.2363  0.3795
  186SLPC   H4R21403   3.472   5.357   7.060 -0.9856 -2.3209 -0.9168
  186SLPC   H4S21404   3.636   5.403   7.045 -1.2871  0.9248 -0.3167
  186SLPC   C2521405   3.607   5.273   7.212  0.0492 -0.5354  0.0858
  186SLPC   H5R21406   3.709   5.230   7.205 -0.0571 -0.5405 -1.4517
  186SLPC   H5S21407   3.536   5.196   7.249  0.0170  1.4559  4.5551
  186SLPC   C2621408   3.606   5.386   7.319  0.3219 -0.9600  0.6975
  186SLPC   H6R21409   3.508   5.438   7.308  0.7057  0.1187  2.1445
  186SLPC   H6S21410   3.690   5.457   7.306 -0.2857 -0.4193 -0.3636
  186SLPC   C2721411   3.614   5.327   7.457  0.3667  0.1226 -0.2343
  186SLPC   H7R21412   3.708   5.276   7.484 -1.2708 -1.7440  2.1610
  186SLPC   H7S21413   3.532   5.251   7.460  1.6212 -1.2272  0.1274
  186SLPC   C2821414   3.586   5.432   7.568  0.2985 -0.2004 -0.4804
  186SLPC   H8R21415   3.633   5.529   7.544 -2.0348  0.8399 -0.9742
  186SLPC   H8S21416   3.624   5.385   7.661 -0.3623 -1.1765 -0.6909
  186SLPC   C2921417   3.439   5.457   7.598 -0.0424 -0.1633 -0.0430
  186SLPC   H9R21418   3.390   5.529   7.531 -0.9268  0.1386  0.9096
  186SLPC  C21021419   3.363   5.416   7.707  0.6034 -1.1624  0.0201
  186SLPC  H10R21420   3.257   5.444   7.705  0.6724 -0.8784  0.1999
  186SLPC  C21121421   3.432   5.341   7.819 -0.0180 -1.2221  0.1625
  186SLPC  H11R21422   3.523   5.399   7.846  0.9182 -2.0331 -1.1935
  186SLPC  H11S21423   3.472   5.243   7.785  1.1708 -0.5188 -0.5120
  186SLPC  C21221424   3.330   5.288   7.918 -0.3214 -0.2409  0.3180
  186SLPC  H12R21425   3.223   5.276   7.895  0.0558 -0.5354 -1.3832
  186SLPC  C21321426   3.367   5.255   8.047 -0.4903  0.1191 -0.5324
  186SLPC  H13R21427   3.291   5.214   8.114  1.1495 -1.1109  0.5943
  186SLPC  C21421428   3.506   5.283   8.106 -0.0020 -0.7290  0.5357
  186SLPC  H14R21429   3.581   5.290   8.024 -0.4071  1.2136  0.3122
  186SLPC  H14S21430   3.530   5.207   8.184  0.7227 -0.0941  0.9360
  186SLPC  C21521431   3.510   5.425   8.176 -0.1606  0.3398 -0.1373
  186SLPC  H15R21432   3.427   5.429   8.249 -1.1143  2.1841 -1.3036
  186SLPC  H15S21433   3.474   5.490   8.094 -0.3564  0.8196  0.3295
  186SLPC  C21621434   3.646   5.477   8.233  0.1345 -0.0567  0.1829
  186SLPC  H16R21435   3.716   5.470   8.147 -0.4902  2.0718 -0.5300
  186SLPC  H16S21436   3.695   5.416   8.312  1.9031  1.6198  0.4258
  186SLPC  C21721437   3.636   5.625   8.265 -0.9386  0.1645  0.2257
  186SLPC  H17R21438   3.539   5.643   8.317 -1.1164 -2.1388  0.7382
  186SLPC  H17S21439   3.640   5.683   8.171 -2.3269 -1.8555 -1.1309
  186SLPC  C21821440   3.755   5.657   8.354  0.7322 -0.0827  0.8110
  186SLPC  H18R21441   3.746   5.757   8.403  1.7829  1.4424 -1.9856
  186SLPC  H18S21442   3.849   5.647   8.296 -0.0700  1.3331 -0.8006
  186SLPC  H18T21443   3.756   5.587   8.439  0.3215 -2.0832 -0.7905
  186SLPC   C3321444   3.430   5.766   6.926  0.2999 -0.4414 -0.3452
  186SLPC   H3X21445   3.540   5.784   6.920  0.7586 -2.9540  0.0442
  186SLPC   H3Y21446   3.414   5.656   6.927 -0.4485 -0.3291  0.2371
  186SLPC   C3421447   3.408   5.833   7.066  0.6138 -0.2019  0.2529
  186SLPC   H4X21448   3.305   5.874   7.074  0.8600  0.7170 -1.2083
  186SLPC   H4Y21449   3.478   5.919   7.064 -0.6622  0.8242 -0.0365
  186SLPC   C3521450   3.435   5.732   7.180  0.8983 -0.7523  0.2846
  186SLPC   H5X21451   3.532   5.682   7.161  0.6273 -1.8886  1.8284
  186SLPC   H5Y21452   3.363   5.648   7.190  0.9338 -0.7052  0.9798
  186SLPC   C3621453   3.434   5.800   7.319  0.4040  0.2407 -0.2945
  186SLPC   H6X21454   3.534   5.847   7.324 -0.3548  1.7818  0.6020
  186SLPC   H6Y21455   3.435   5.727   7.403 -3.2618  0.0434 -0.3337
  186SLPC   C3721456   3.328   5.903   7.352 -0.0261 -0.2659 -0.0944
  186SLPC   H7X21457   3.342   5.979   7.273 -0.7723 -1.1115 -1.0505
  186SLPC   H7Y21458   3.363   5.952   7.446 -0.5102  0.0240 -0.0654
  186SLPC   C3821459   3.184   5.853   7.365 -0.4730  0.1037  0.0106
  186SLPC   H8X21460   3.160   5.774   7.291  2.3402 -2.1354  1.4108
  186SLPC   H8Y21461   3.113   5.939   7.361 -0.0302  0.4179 -1.2446
  186SLPC   C3921462   3.162   5.789   7.505 -0.4798  0.5933  0.5021
  186SLPC   H9X21463   3.217   5.862   7.568 -0.0741  0.2255  0.5732
  186SLPC   H9Y21464   3.216   5.693   7.500 -0.9411  0.1859  2.8093
  186SLPC  C31021465   3.016   5.777   7.543  0.5334 -1.1238  0.5471
  186SLPC  H10X21466   2.972   5.713   7.463 -1.5965  0.8037  0.1234
  186SLPC  H10Y21467   2.972   5.879   7.541  0.0386 -1.3424  0.3723
  186SLPC  C31121468   2.994   5.712   7.684 -0.2329  1.0950 -0.4988
  186SLPC  H11X21469   3.062   5.623   7.683  1.5842  2.4437 -2.4057
  186SLPC  H11Y21470   2.887   5.685   7.693  0.6376 -2.4770 -0.1151
  186SLPC  C31221471   3.031   5.802   7.798 -0.2028 -0.1427 -0.7705
  186SLPC  H12X21472   2.980   5.901   7.797 -1.1500 -0.6348 -1.5253
  186SLPC  H12Y21473   3.135   5.839   7.805 -1.0313  1.6869  3.5448
  186SLPC  C31321474   2.992   5.736   7.935  0.4725  0.2091 -0.5030
  186SLPC  H13X21475   2.897   5.680   7.926  1.4914 -1.9481  1.5535
  186SLPC  H13Y21476   2.987   5.803   8.023  0.1992  1.7870 -1.7037
  186SLPC  C31421477   3.097   5.630   7.981  0.1624  0.6539 -0.0558
  186SLPC  H14X21478   3.108   5.569   7.889 -0.2401  0.9595 -0.3097
  186SLPC  H14Y21479   3.048   5.573   8.063  0.9876 -0.9053 -0.6126
  186SLPC  C31521480   3.239   5.677   8.022  0.0263 -0.0833  0.1354
  186SLPC  H15X21481   3.282   5.729   7.934  2.2979 -1.1624  0.5909
  186SLPC  H15Y21482   3.292   5.580   8.031  1.1052  0.6765  2.2754
  186SLPC  C31621483   3.254   5.771   8.139 -0.5798 -0.2452  0.1615
  186SLPC  H16X21484   3.234   5.877   8.115  0.9435 -0.5576 -2.7626
  186SLPC  H16Y21485   3.360   5.760   8.172  0.1296 -1.2789 -2.3577
  186SLPC  C31721486   3.178   5.704   8.257  0.2481  0.1604  0.2249
  186SLPC  H17X21487   3.230   5.607   8.267  2.6171  1.2405 -1.3399
  186SLPC  H17Y21488   3.071   5.687   8.229  0.6610 -2.6149  0.1830
  186SLPC  C31821489   3.202   5.801   8.375 -0.0001  0.5966 -0.2289
  186SLPC  H18X21490   3.140   5.782   8.465  0.2012 -1.8128 -0.5545
  186SLPC  H18Y21491   3.183   5.906   8.345  1.3422  1.2791  1.2717
  186SLPC  H18Z21492   3.309   5.800   8.403  0.1679  0.4791 -0.8739
  187SLPC     N21493   4.255   2.839   6.128  0.0936  0.0337 -0.9058
  187SLPC   C1321494   4.204   2.950   6.222  0.3960 -0.2245  0.1119
  187SLPC  H13A21495   4.185   3.040   6.166 -0.4293 -1.0880 -1.0316
  187SLPC  H13B21496   4.114   2.914   6.269 -0.1142 -0.9228 -1.3618
  187SLPC  H13C21497   4.268   2.968   6.307 -1.2090 -0.4682  1.3939
  187SLPC   C1421498   4.378   2.895   6.073 -0.7894  0.4568  0.0338
  187SLPC  H14A21499   4.428   2.819   6.016  0.4176  2.5504 -1.7757
  187SLPC  H14B21500   4.344   2.974   6.008 -1.2774  0.5119  0.3454
  187SLPC  H14C21501   4.453   2.931   6.143 -2.2747  1.6365  1.0536
  187SLPC   C1521502   4.162   2.832   6.016  0.0728 -0.1389 -0.9700
  187SLPC  H15A21503   4.159   2.931   5.972  1.3913  0.9589  1.3135
  187SLPC  H15B21504   4.209   2.762   5.948 -0.7320 -1.0130 -0.6209
  187SLPC  H15C21505   4.061   2.807   6.043  0.5029  0.6145  1.4421
  187SLPC   C1221506   4.270   2.705   6.204 -0.5750 -0.4272 -0.1656
  187SLPC  H12A21507   4.334   2.717   6.290  0.6934 -0.1054 -1.1419
  187SLPC  H12B21508   4.319   2.632   6.140 -0.4676  0.8928 -1.6347
  187SLPC   C1121509   4.131   2.644   6.242  0.3085  0.4298 -0.3654
  187SLPC  H11A21510   4.152   2.545   6.287  0.0943  0.0215 -1.1608
  187SLPC  H11B21511   4.077   2.620   6.149 -0.5822 -0.2717  0.3248
  187SLPC     P21512   4.049   2.712   6.481  0.2668  0.1707  0.3645
  187SLPC   O1321513   4.193   2.731   6.510 -1.1176 -0.3135  0.3011
  187SLPC   O1421514   3.954   2.799   6.541  0.4643  0.2668  0.4526
  187SLPC   O1221515   4.045   2.728   6.322  0.0312  0.1101 -0.0117
  187SLPC   O1121516   3.998   2.571   6.501 -0.1813 -0.2126  0.7450
  187SLPC    C121517   4.064   2.467   6.574  0.1965  0.4788 -0.1182
  187SLPC    HA21518   4.054   2.374   6.515  1.6026 -0.2952  0.8355
  187SLPC    HB21519   4.173   2.486   6.584  0.2375 -0.1131  0.5957
  187SLPC    C221520   4.009   2.452   6.723  0.3003  0.0721 -0.8979
  187SLPC    HS21521   3.902   2.423   6.724  0.5033 -0.9523 -3.5248
  187SLPC   O2121522   4.020   2.589   6.778  0.2021 -0.5250  0.0104
  187SLPC   C2121523   3.944   2.608   6.886  0.0693 -1.0136 -0.2184
  187SLPC   O2221524   3.860   2.525   6.918 -0.5878  0.4822 -0.4506
  187SLPC   C2221525   3.970   2.740   6.951 -0.2490  0.5182 -0.3185
  187SLPC   H2R21526   4.062   2.788   6.911  0.4388 -1.0944 -0.7194
  187SLPC   H2S21527   3.890   2.810   6.918  0.4632  1.0047 -1.0366
  187SLPC    C321528   4.103   2.358   6.799  0.0132  0.2414  0.2783
  187SLPC    HX21529   4.204   2.401   6.782 -0.3824 -0.1064 -3.4378
  187SLPC    HY21530   4.109   2.261   6.745  0.6047  0.3281  0.1835
  187SLPC   O3121531   4.066   2.348   6.938  0.3046  0.6860 -0.1068
  187SLPC   C3121532   3.972   2.259   6.965 -0.3980 -0.3981  0.3521
  187SLPC   O3221533   3.903   2.192   6.886 -0.1128  0.2754  0.2120
  187SLPC   C3221534   3.940   2.274   7.122  0.1280 -0.3441 -0.0123
  187SLPC   H2X21535   3.862   2.352   7.106 -0.4010 -0.7856  0.4076
  187SLPC   H2Y21536   4.029   2.299   7.184  1.4460 -0.9889 -1.6053
  187SLPC   C2321537   3.978   2.725   7.105  0.1454  0.6680 -0.0216
  187SLPC   H3R21538   3.896   2.666   7.150  0.9552 -0.5876 -0.1661
  187SLPC   H3S21539   3.966   2.826   7.150 -2.7607 -0.4242  1.7395
  187SLPC   C2421540   4.105   2.651   7.148 -0.2709 -0.1747 -0.1189
  187SLPC   H4R21541   4.203   2.698   7.129  0.2980 -0.6244  1.6259
  187SLPC   H4S21542   4.099   2.553   7.096  2.6340  0.6470 -2.1129
  187SLPC   C2521543   4.101   2.611   7.301 -0.2282  0.8813 -0.7130
  187SLPC   H5R21544   4.185   2.542   7.323 -0.0480  1.7730  1.5494
  187SLPC   H5S21545   4.009   2.550   7.316  2.6761 -3.9972 -1.6037
  187SLPC   C2621546   4.100   2.727   7.392  0.0139  0.0228  0.5877
  187SLPC   H6R21547   3.993   2.755   7.402  0.4264  0.9676  2.7244
  187SLPC   H6S21548   4.150   2.821   7.358  1.1497 -0.2166  1.5308
  187SLPC   C2721549   4.163   2.687   7.538  0.3998  0.2919  0.2351
  187SLPC   H7R21550   4.216   2.770   7.590 -1.2736  0.6439  1.4126
  187SLPC   H7S21551   4.235   2.605   7.519  0.2970  0.0562  0.8728
  187SLPC   C2821552   4.055   2.636   7.629 -0.6117  0.2658  0.1268
  187SLPC   H8R21553   4.098   2.568   7.705  1.1563  1.6981  0.4380
  187SLPC   H8S21554   3.990   2.581   7.558 -0.2335  2.4311 -1.9416
  187SLPC   C2921555   3.969   2.742   7.694 -0.8764 -0.2005 -0.1638
  187SLPC   H9R21556   3.924   2.815   7.625  0.1329 -0.4422 -1.0832
  187SLPC  C21021557   3.922   2.740   7.820 -0.4324  0.2138  0.0429
  187SLPC  H10R21558   3.863   2.827   7.854 -2.2503 -1.4195  1.1868
  187SLPC  C21121559   3.973   2.656   7.934  0.3979 -0.0915 -0.3621
  187SLPC  H11R21560   3.959   2.712   8.029  1.0047  4.3720 -2.8190
  187SLPC  H11S21561   4.074   2.612   7.917  1.3419  2.4438 -1.5139
  187SLPC  C21221562   3.900   2.529   7.932 -0.3465  0.5594 -0.1152
  187SLPC  H12R21563   3.914   2.466   7.842 -0.9763 -0.3201  0.3956
  187SLPC  C21321564   3.849   2.464   8.040  0.1838  0.3382 -0.2077
  187SLPC  H13R21565   3.792   2.370   8.026 -0.7706  1.0021 -0.8579
  187SLPC  C21421566   3.846   2.503   8.181 -0.0126  0.4965 -0.3671
  187SLPC  H14R21567   3.742   2.517   8.218 -1.1750 -2.1332 -2.5664
  187SLPC  H14S21568   3.905   2.593   8.210  2.1622 -1.8584  2.9091
  187SLPC  C21521569   3.907   2.389   8.264  0.6812 -0.1145 -0.2074
  187SLPC  H15R21570   3.988   2.335   8.210 -0.1368 -2.2838  0.6747
  187SLPC  H15S21571   3.813   2.334   8.288  0.4357 -0.0984 -1.1133
  187SLPC  C21621572   3.951   2.431   8.403 -0.1156 -0.7707 -0.1887
  187SLPC  H16R21573   3.881   2.511   8.436 -0.8412  0.1340 -3.7213
  187SLPC  H16S21574   4.049   2.482   8.391 -1.2067  1.2037 -0.9864
  187SLPC  C21721575   3.982   2.314   8.496 -0.1732  0.0246 -0.8468
  187SLPC  H17R21576   4.064   2.253   8.451 -0.3215  0.4476 -1.7008
  187SLPC  H17S21577   3.890   2.252   8.509 -0.6118  0.6890 -0.7935
  187SLPC  C21821578   4.026   2.363   8.634  0.1764 -0.0314 -0.1052
  187SLPC  H18R21579   4.058   2.282   8.702 -0.0856  0.6516  0.8483
  187SLPC  H18S21580   3.941   2.401   8.694 -0.4995 -2.1087  0.2643
  187SLPC  H18T21581   4.099   2.447   8.623  1.5501 -1.3735 -1.4128
  187SLPC   C3321582   3.853   2.154   7.175 -0.6635 -0.2259 -0.1144
  187SLPC   H3X21583   3.773   2.118   7.106 -2.5513  1.9998  0.8410
  187SLPC   H3Y21584   3.801   2.185   7.267  0.4709 -0.6768  0.6946
  187SLPC   C3421585   3.940   2.039   7.217 -0.2516 -0.8078  0.0704
  187SLPC   H4X21586   3.873   1.966   7.268 -0.9550  0.0632  0.4127
  187SLPC   H4Y21587   4.020   2.069   7.288  0.6382 -1.7595 -0.5044
  187SLPC   C3521588   4.020   1.963   7.112 -0.1730  0.0346 -0.0937
  187SLPC   H5X21589   4.082   2.020   7.039 -0.8745  2.9326  1.5097
  187SLPC   H5Y21590   3.949   1.905   7.049 -0.6708  0.1496  0.3668
  187SLPC   C3621591   4.125   1.869   7.179 -0.8252  0.5154  0.1768
  187SLPC   H6X21592   4.187   1.922   7.254  1.0552 -2.7121  0.9930
  187SLPC   H6Y21593   4.192   1.821   7.104  1.5981 -0.1096  2.6408
  187SLPC   C3721594   4.060   1.750   7.254 -0.1167 -0.4496  0.9372
  187SLPC   H7X21595   3.978   1.801   7.309 -0.8075 -0.9201  0.3483
  187SLPC   H7Y21596   4.012   1.676   7.187  0.3052 -0.5987  0.7940
  187SLPC   C3821597   4.138   1.692   7.377  0.1130  0.0471  0.1732
  187SLPC   H8X21598   4.176   1.769   7.448 -0.0856 -0.0063  0.3384
  187SLPC   H8Y21599   4.220   1.631   7.336  1.0457  2.2083 -1.2443
  187SLPC   C3921600   4.057   1.603   7.480  0.0864 -0.1214  0.7006
  187SLPC   H9X21601   4.043   1.499   7.441  0.2673 -0.5035  1.6476
  187SLPC   H9Y21602   3.956   1.644   7.503 -0.5246  1.2196 -3.8811
  187SLPC  C31021603   4.122   1.590   7.618 -0.5856  1.2561  0.4828
  187SLPC  H10X21604   4.161   1.689   7.650  1.7502  1.5956 -3.1355
  187SLPC  H10Y21605   4.200   1.511   7.617 -2.2172 -0.3780 -0.0970
  187SLPC  C31121606   4.038   1.535   7.734  0.6625  0.1647 -0.4769
  187SLPC  H11X21607   4.033   1.427   7.710 -0.6708  0.3871 -1.2474
  187SLPC  H11Y21608   3.933   1.571   7.732  0.3874 -0.5518  0.7934
  187SLPC  C31221609   4.088   1.577   7.873 -0.0298  0.1676  0.2635
  187SLPC  H12X21610   4.043   1.675   7.897 -2.6425 -0.7212 -0.7859
  187SLPC  H12Y21611   4.198   1.577   7.889  0.1889 -1.3731 -1.0923
  187SLPC  C31321612   4.042   1.473   7.978 -0.2769  0.4109 -0.9382
  187SLPC  H13X21613   4.103   1.381   7.968  0.4416  0.8992 -1.1553
  187SLPC  H13Y21614   3.933   1.453   7.966 -0.5962 -0.0798  2.2214
  187SLPC  C31421615   4.075   1.529   8.122 -0.2247  0.2066  0.2635
  187SLPC  H14X21616   4.006   1.609   8.155  1.6286  1.5274  1.0315
  187SLPC  H14Y21617   4.179   1.566   8.112 -0.4338  0.7734  0.2024
  187SLPC  C31521618   4.083   1.413   8.222  0.1835  0.3394 -0.0085
  187SLPC  H15X21619   4.176   1.352   8.212 -0.9387 -1.6058  1.1371
  187SLPC  H15Y21620   4.001   1.342   8.196 -0.8832  1.5306  0.0825
  187SLPC  C31621621   4.072   1.440   8.372  0.3414 -0.6460 -0.8890
  187SLPC  H16X21622   4.078   1.342   8.424 -0.5218  0.7790  2.0012
  187SLPC  H16Y21623   3.972   1.482   8.400  0.2324 -1.7257  0.3881
  187SLPC  C31721624   4.189   1.524   8.428 -0.0623  0.0430 -0.0494
  187SLPC  H17X21625   4.166   1.628   8.399 -0.9490 -0.5162 -1.3798
  187SLPC  H17Y21626   4.279   1.482   8.380  0.4231  1.7912 -0.7023
  187SLPC  C31821627   4.202   1.508   8.578 -0.2330  0.5998 -0.2496
  187SLPC  H18X21628   4.116   1.540   8.641  0.1833  0.9259  0.1521
  187SLPC  H18Y21629   4.289   1.565   8.618 -1.3494  0.3542  2.6987
  187SLPC  H18Z21630   4.221   1.399   8.589  0.8008  0.7455 -0.5336
  188SLPC     N21631   5.182   4.051   6.260  0.2233  0.1614 -0.2283
  188SLPC   C1321632   5.038   4.066   6.274  0.4814 -0.4304  0.0049
  188SLPC  H13A21633   4.992   3.969   6.283 -1.5340  0.3690 -1.2385
  188SLPC  H13B21634   5.015   4.127   6.360 -2.8337 -0.0187 -1.0903
  188SLPC  H13C21635   4.995   4.109   6.184  0.5642  0.4058  0.3543
  188SLPC   C1421636   5.214   3.984   6.123  0.7958  0.0995 -0.4897
  188SLPC  H14A21637   5.172   4.034   6.036 -0.1470 -1.2919 -0.8397
  188SLPC  H14B21638   5.320   3.995   6.110  0.8467  0.0932 -0.0894
  188SLPC  H14C21639   5.181   3.882   6.136 -3.2780  1.4177  0.4013
  188SLPC   C1521640   5.232   3.964   6.371  0.1221  0.6621 -0.6194
  188SLPC  H15A21641   5.220   3.860   6.345 -0.3274  0.6152 -0.2407
  188SLPC  H15B21642   5.337   3.981   6.388  0.1064  0.4007 -0.2687
  188SLPC  H15C21643   5.177   3.994   6.459  0.2121 -2.1403  0.4380
  188SLPC   C1221644   5.254   4.186   6.274  0.0614  0.4607 -0.3369
  188SLPC  H12A21645   5.213   4.239   6.189 -0.1103 -0.6933 -0.9944
  188SLPC  H12B21646   5.361   4.176   6.257  0.2588  0.6719  0.7691
  188SLPC   C1121647   5.238   4.263   6.408  1.0260 -0.5705 -0.3977
  188SLPC  H11A21648   5.304   4.352   6.413 -0.6626  0.6051  1.6027
  188SLPC  H11B21649   5.276   4.206   6.496 -0.0075 -1.3033 -0.4128
  188SLPC     P21650   5.038   4.445   6.381  0.4677 -0.0754  0.1136
  188SLPC   O1321651   5.096   4.476   6.249  0.8106  0.0187  0.0564
  188SLPC   O1421652   4.889   4.437   6.382 -0.8068 -0.1383 -0.1104
  188SLPC   O1221653   5.103   4.312   6.433 -0.0394  0.7124 -0.1414
  188SLPC   O1121654   5.086   4.551   6.491  0.5642 -0.1275  0.7693
  188SLPC    C121655   5.098   4.521   6.632  0.2779 -0.3074 -0.0902
  188SLPC    HA21656   5.041   4.594   6.693  2.9301 -0.9590  3.3272
  188SLPC    HB21657   5.068   4.416   6.650  1.4975 -0.5130  0.7323
  188SLPC    C221658   5.243   4.545   6.661  0.4446 -0.6290 -0.0210
  188SLPC    HS21659   5.302   4.459   6.621 -1.0232 -1.8655  0.3954
  188SLPC   O2121660   5.250   4.534   6.806  0.4671 -0.0912  0.3846
  188SLPC   C2121661   5.283   4.421   6.862 -0.7575 -0.6778 -0.3643
  188SLPC   O2221662   5.320   4.319   6.809  0.0418  0.3939  0.2017
  188SLPC   C2221663   5.226   4.432   7.008 -0.7862  0.2070 -0.7938
  188SLPC   H2R21664   5.281   4.515   7.058 -0.8847 -0.5001  0.4808
  188SLPC   H2S21665   5.119   4.461   6.999 -0.7147  1.3013  1.6299
  188SLPC    C321666   5.286   4.685   6.606 -0.4133  0.2915 -0.7700
  188SLPC    HX21667   5.288   4.678   6.495  0.2530 -1.2892 -0.6628
  188SLPC    HY21668   5.395   4.692   6.628 -0.3228  0.8397 -1.3720
  188SLPC   O3121669   5.210   4.798   6.642 -0.2214  0.1512 -0.7192
  188SLPC   C3121670   5.254   4.862   6.753  0.6336 -0.2764 -0.2113
  188SLPC   O3221671   5.356   4.849   6.817  0.6594 -0.1398 -0.9391
  188SLPC   C3221672   5.137   4.955   6.798  0.6763 -0.0270 -0.1211
  188SLPC   H2X21673   5.041   4.899   6.789  1.6171 -2.0069  1.6581
  188SLPC   H2Y21674   5.141   5.056   6.752  1.5953  0.0124  0.0466
  188SLPC   C2321675   5.253   4.307   7.091 -0.2039  0.0708 -0.2588
  188SLPC   H3R21676   5.360   4.277   7.084 -0.3885 -0.1659 -2.4980
  188SLPC   H3S21677   5.201   4.218   7.049  3.0086 -1.0460 -2.1129
  188SLPC   C2421678   5.200   4.321   7.234  0.4594 -0.0025 -0.7134
  188SLPC   H4R21679   5.094   4.354   7.234  0.2758 -0.4915  1.7305
  188SLPC   H4S21680   5.263   4.392   7.293  2.0936  0.8643 -3.4200
  188SLPC   C2521681   5.199   4.179   7.299  0.3088  0.0567 -0.9786
  188SLPC   H5R21682   5.302   4.145   7.322  0.4807  0.1431 -1.6270
  188SLPC   H5S21683   5.148   4.113   7.226  0.6228  0.3839 -1.4965
  188SLPC   C2621684   5.120   4.174   7.436  0.5337  0.6790  0.3947
  188SLPC   H6R21685   5.016   4.209   7.419  0.3690 -0.4121 -0.9366
  188SLPC   H6S21686   5.169   4.254   7.496  0.6952  0.6379  0.3179
  188SLPC   C2721687   5.127   4.047   7.507 -0.0979  0.4453  0.5663
  188SLPC   H7R21688   5.224   3.998   7.485 -0.7755 -0.8360  0.3844
  188SLPC   H7S21689   5.040   3.988   7.469  2.0219 -2.0949 -0.5096
  188SLPC   C2821690   5.103   4.073   7.658  0.1236  0.1603  0.4341
  188SLPC   H8R21691   5.006   4.127   7.667  0.0878 -0.0027  1.0707
  188SLPC   H8S21692   5.170   4.149   7.703  0.6273  0.1256 -0.2539
  188SLPC   C2921693   5.106   3.940   7.736  0.0781  0.1868  0.0166
  188SLPC   H9R21694   5.204   3.890   7.739  0.5907  1.1774  0.1196
  188SLPC  C21021695   4.998   3.886   7.790 -0.0774 -0.1733 -0.4993
  188SLPC  H10R21696   4.995   3.785   7.833 -1.9075 -0.5440 -1.4137
  188SLPC  C21121697   4.853   3.938   7.780  0.2692  1.0074 -0.3656
  188SLPC  H11R21698   4.838   4.025   7.712 -0.3631  2.6724  1.8628
  188SLPC  H11S21699   4.821   3.969   7.882  0.5208 -0.3665  0.1456
  188SLPC  C21221700   4.762   3.824   7.752 -0.1659  0.3842  0.4230
  188SLPC  H12R21701   4.789   3.740   7.687 -1.5103  0.7868 -0.6727
  188SLPC  C21321702   4.643   3.808   7.804  0.6327  0.3379  0.2963
  188SLPC  H13R21703   4.589   3.714   7.786  0.2549  0.3809  1.2042
  188SLPC  C21421704   4.566   3.890   7.904  0.5106  0.6884 -0.5653
  188SLPC  H14R21705   4.461   3.903   7.869 -1.7245 -0.9120  4.9964
  188SLPC  H14S21706   4.605   3.991   7.929 -1.8131  1.8815 -1.5807
  188SLPC  C21521707   4.575   3.813   8.036 -0.4649 -0.1045 -0.4469
  188SLPC  H15R21708   4.535   3.711   8.017  0.4847 -0.6347  0.3829
  188SLPC  H15S21709   4.514   3.878   8.102 -0.7687 -1.4230  0.6098
  188SLPC  C21621710   4.707   3.806   8.108  0.2116  0.3010 -0.6179
  188SLPC  H16R21711   4.737   3.913   8.117  2.5152 -0.3129 -0.5535
  188SLPC  H16S21712   4.779   3.745   8.049 -0.0374 -0.1478 -0.4557
  188SLPC  C21721713   4.692   3.745   8.248  0.5796 -0.0493 -0.1459
  188SLPC  H17R21714   4.631   3.653   8.235  0.6067  0.2125 -2.4312
  188SLPC  H17S21715   4.645   3.816   8.319  1.3311  0.6240 -0.3091
  188SLPC  C21821716   4.821   3.701   8.313  0.6904 -0.0605 -0.6241
  188SLPC  H18R21717   4.878   3.639   8.240  1.1993 -0.0536 -0.2339
  188SLPC  H18S21718   4.788   3.632   8.393 -1.7620  0.8358 -0.8166
  188SLPC  H18T21719   4.885   3.784   8.349 -0.4098  0.1707  0.8574
  188SLPC   C3321720   5.152   4.977   6.949  0.4432  1.2239 -0.1400
  188SLPC   H3X21721   5.066   5.036   6.988  0.5261  1.2313  0.0309
  188SLPC   H3Y21722   5.243   5.033   6.978  2.4706 -1.4864 -1.0258
  188SLPC   C3421723   5.137   4.844   7.025 -0.4651  0.7155 -0.0105
  188SLPC   H4X21724   5.225   4.782   6.998 -1.4495 -0.5746 -0.3009
  188SLPC   H4Y21725   5.051   4.790   6.979 -0.6240  0.0388  1.0586
  188SLPC   C3521726   5.117   4.851   7.179 -0.4982  0.2371  0.2672
  188SLPC   H5X21727   5.035   4.921   7.205  1.0177  2.2872 -0.3473
  188SLPC   H5Y21728   5.207   4.898   7.223  1.0401 -0.3198 -2.2079
  188SLPC   C3621729   5.077   4.719   7.240  0.1406  0.2853  0.1540
  188SLPC   H6X21730   5.164   4.650   7.231  0.3605  0.6271 -0.3290
  188SLPC   H6Y21731   4.992   4.666   7.194 -0.2876  1.2386 -0.1653
  188SLPC   C3721732   5.053   4.744   7.389  0.4351 -0.4539 -0.3125
  188SLPC   H7X21733   4.951   4.786   7.385  0.2324 -1.0125 -1.0071
  188SLPC   H7Y21734   5.132   4.812   7.429  0.2030 -0.2197 -0.2500
  188SLPC   C3821735   5.066   4.610   7.460  0.4539 -0.7356 -0.3066
  188SLPC   H8X21736   5.165   4.563   7.471  0.4396 -0.2651  2.1141
  188SLPC   H8Y21737   4.995   4.537   7.417 -1.0037  0.4656 -0.0161
  188SLPC   C3921738   5.008   4.614   7.604 -0.4879 -0.2519 -0.4762
  188SLPC   H9X21739   4.903   4.645   7.585 -0.6267 -0.8941 -0.7665
  188SLPC   H9Y21740   5.065   4.690   7.660  0.8274 -3.2800  2.4943
  188SLPC  C31021741   4.996   4.476   7.668 -0.0146  0.3192 -0.2816
  188SLPC  H10X21742   5.096   4.434   7.696  0.3621  1.3512 -0.0478
  188SLPC  H10Y21743   4.946   4.400   7.603 -0.2955  1.4765 -1.4285
  188SLPC  C31121744   4.923   4.491   7.802  0.2476  0.5565  0.1256
  188SLPC  H11X21745   4.815   4.511   7.787  0.6120  0.2159 -3.2062
  188SLPC  H11Y21746   4.977   4.576   7.849  2.7368 -0.3672 -0.9949
  188SLPC  C31221747   4.929   4.364   7.893 -0.0589  0.0170 -0.1665
  188SLPC  H12X21748   5.035   4.341   7.915  0.4894  1.0420 -1.6561
  188SLPC  H12Y21749   4.892   4.270   7.846 -1.2842 -0.2329  1.2773
  188SLPC  C31321750   4.862   4.391   8.030  0.0268 -0.2018  0.0827
  188SLPC  H13X21751   4.751   4.383   8.038  0.1691  0.2406  3.1084
  188SLPC  H13Y21752   4.895   4.491   8.065 -1.3246 -0.0953  1.0789
  188SLPC  C31421753   4.915   4.293   8.138  0.0628  0.7395 -0.4576
  188SLPC  H14X21754   5.002   4.349   8.177  0.4816  1.0615 -1.8216
  188SLPC  H14Y21755   4.956   4.201   8.092  1.1111 -0.2993  2.4373
  188SLPC  C31521756   4.807   4.246   8.234  0.3348  0.4515  0.3044
  188SLPC  H15X21757   4.754   4.162   8.186  1.5352  1.4977 -2.9599
  188SLPC  H15Y21758   4.732   4.327   8.248 -1.0355 -0.4821 -1.4973
  188SLPC  C31621759   4.860   4.206   8.372  0.2458  0.2161 -0.1771
  188SLPC  H16X21760   4.774   4.189   8.439  0.8828  0.4451  0.7160
  188SLPC  H16Y21761   4.928   4.278   8.423  0.8280  0.1433 -0.8341
  188SLPC  C31721762   4.927   4.067   8.356  0.2808  0.3608 -0.0249
  188SLPC  H17X21763   5.030   4.091   8.321  0.1048 -0.7641 -1.3422
  188SLPC  H17Y21764   4.877   3.995   8.287 -0.2431  0.4139  0.3012
  188SLPC  C31821765   4.925   3.991   8.490 -0.0249 -0.1974  0.3908
  188SLPC  H18X21766   4.820   3.958   8.503 -1.1108  2.9508  0.0585
  188SLPC  H18Y21767   4.945   4.054   8.579 -1.6109 -0.4665  0.9468
  188SLPC  H18Z21768   4.999   3.907   8.489 -0.6041 -0.7140 -1.1116
  189SLPC     N21769   0.751   5.322   6.346 -0.2380  0.5192  0.3203
  189SLPC   C1321770   0.690   5.444   6.296 -0.4907  0.2229 -0.2033
  189SLPC  H13A21771   0.630   5.429   6.207  0.4966  1.0946 -1.0352
  189SLPC  H13B21772   0.620   5.485   6.367 -0.1599  2.2297 -0.9907
  189SLPC  H13C21773   0.766   5.516   6.268  0.7170 -0.7095  0.6473
  189SLPC   C1421774   0.654   5.210   6.361 -0.2613 -0.2019  0.1833
  189SLPC  H14A21775   0.681   5.130   6.429  0.4692  1.1034  1.4536
  189SLPC  H14B21776   0.564   5.255   6.400 -1.3771 -1.4610 -0.8776
  189SLPC  H14C21777   0.621   5.174   6.265 -0.3645  1.3569 -0.3619
  189SLPC   C1521778   0.809   5.355   6.478 -0.1390  0.1802 -0.1277
  189SLPC  H15A21779   0.729   5.372   6.548  2.0014 -0.5720  2.6001
  189SLPC  H15B21780   0.842   5.263   6.524 -0.8844 -0.2932 -0.5246
  189SLPC  H15C21781   0.891   5.426   6.475 -2.0771  2.5427  1.0566
  189SLPC   C1221782   0.866   5.273   6.252 -0.1552 -0.4877 -0.7631
  189SLPC  H12A21783   0.822   5.268   6.153 -0.1627  0.8596 -0.8480
  189SLPC  H12B21784   0.901   5.174   6.276 -1.0884 -0.6875 -0.1890
  189SLPC   C1121785   0.989   5.368   6.236  0.5172 -0.1603 -0.4424
  189SLPC  H11A21786   1.060   5.326   6.161  2.2934  1.8155  0.0629
  189SLPC  H11B21787   1.041   5.366   6.334 -1.1939  2.1688  0.5724
  189SLPC     P21788   1.023   5.623   6.243  0.2248  0.0974 -0.5899
  189SLPC   O1321789   1.166   5.629   6.214  0.7759  0.0587 -1.2550
  189SLPC   O1421790   0.937   5.737   6.217 -0.1688 -0.8910  0.1051
  189SLPC   O1221791   0.953   5.491   6.177 -0.0000  0.3230 -0.0403
  189SLPC   O1121792   1.009   5.587   6.404 -0.4137 -0.9259  0.3385
  189SLPC    C121793   1.067   5.668   6.499 -0.2799 -0.8410  0.3164
  189SLPC    HA21794   1.156   5.612   6.535  0.7302 -0.1074 -0.9840
  189SLPC    HB21795   1.110   5.759   6.452 -1.4878 -1.4988 -2.1034
  189SLPC    C221796   0.979   5.698   6.616 -0.2387 -0.1961  0.2357
  189SLPC    HS21797   1.049   5.748   6.686  0.6116  0.6269 -1.1755
  189SLPC   O2121798   0.925   5.571   6.668  0.4852 -0.1339  0.5031
  189SLPC   C2121799   0.988   5.536   6.781  0.6491  0.1542  0.3205
  189SLPC   O2221800   1.081   5.594   6.830  0.0268 -0.7703 -0.0221
  189SLPC   C2221801   0.931   5.401   6.828 -0.5463  0.5058 -0.4682
  189SLPC   H2R21802   0.823   5.396   6.804 -0.2051  2.6346 -2.5880
  189SLPC   H2S21803   0.982   5.329   6.760 -0.1938  0.4171 -0.1196
  189SLPC    C321804   0.868   5.798   6.580 -0.2621  0.9239 -0.5204
  189SLPC    HX21805   0.790   5.762   6.510 -0.5013 -3.3704  1.8031
  189SLPC    HY21806   0.910   5.882   6.521 -0.4386  0.6915 -0.9787
  189SLPC   O3121807   0.812   5.849   6.700  0.3742 -0.4392 -0.6260
  189SLPC   C3121808   0.694   5.788   6.743 -0.8253 -0.0105  0.1564
  189SLPC   O3221809   0.657   5.678   6.703 -0.0744 -0.0246 -0.6178
  189SLPC   C3221810   0.620   5.874   6.846 -1.0746  0.6618 -0.5152
  189SLPC   H2X21811   0.514   5.839   6.850 -0.4386 -1.0908  2.9988
  189SLPC   H2Y21812   0.634   5.981   6.820 -1.1516  0.6985 -0.4065
  189SLPC   C2321813   0.963   5.355   6.969 -0.0161 -0.0610  0.0407
  189SLPC   H3R21814   1.069   5.382   6.987 -0.3995  0.8263  1.0300
  189SLPC   H3S21815   0.958   5.244   6.981 -0.6871 -0.0545 -0.1493
  189SLPC   C2421816   0.874   5.418   7.072  0.1223 -0.5992 -0.0222
  189SLPC   H4R21817   0.776   5.365   7.077  0.1938 -0.9603 -2.0996
  189SLPC   H4S21818   0.857   5.526   7.049  0.3634 -0.9772 -2.0240
  189SLPC   C2521819   0.934   5.414   7.216 -0.4475 -0.3318  0.1650
  189SLPC   H5R21820   1.041   5.441   7.228 -0.8858  1.0115  1.1554
  189SLPC   H5S21821   0.922   5.307   7.244  5.9794 -1.1778  0.3266
  189SLPC   C2621822   0.860   5.485   7.330 -0.6282  0.9297  0.1923
  189SLPC   H6R21823   0.751   5.469   7.324 -0.6962  2.0434 -2.7283
  189SLPC   H6S21824   0.867   5.594   7.312 -2.3082  0.7087 -2.0130
  189SLPC   C2721825   0.921   5.459   7.465  0.5923  0.0032 -0.7658
  189SLPC   H7R21826   1.030   5.481   7.461  1.2567 -3.0034 -0.7462
  189SLPC   H7S21827   0.924   5.350   7.487  0.9543  0.7641  3.3685
  189SLPC   C2821828   0.854   5.528   7.583 -0.3559  0.3465  0.0726
  189SLPC   H8R21829   0.747   5.500   7.600 -0.8362  1.2970 -1.2636
  189SLPC   H8S21830   0.845   5.636   7.559  1.1054  0.2564 -0.8773
  189SLPC   C2921831   0.935   5.525   7.714  0.4592 -0.3121 -0.6011
  189SLPC   H9R21832   1.010   5.605   7.727 -2.8970  2.8916  0.1077
  189SLPC  C21021833   0.910   5.438   7.815 -0.1472 -0.7159  0.6106
  189SLPC  H10R21834   0.977   5.438   7.903  1.1640  1.0103 -0.3554
  189SLPC  C21121835   0.811   5.327   7.812  0.4154 -0.1531  0.2350
  189SLPC  H11R21836   0.859   5.248   7.750  0.0518 -1.1520  1.2023
  189SLPC  H11S21837   0.720   5.342   7.749  1.0894  0.7010 -0.5511
  189SLPC  C21221838   0.753   5.284   7.948  0.6054  0.8111  0.4761
  189SLPC  H12R21839   0.703   5.368   7.999 -0.2356  0.9904 -0.6203
  189SLPC  C21321840   0.767   5.161   8.006 -0.4539  0.5482 -0.7881
  189SLPC  H13R21841   0.704   5.135   8.092 -0.1329 -1.1143 -1.0485
  189SLPC  C21421842   0.828   5.036   7.946 -0.2338  0.5648 -0.0678
  189SLPC  H14R21843   0.939   5.051   7.944  0.1230 -1.3953  2.0417
  189SLPC  H14S21844   0.802   5.020   7.840  0.2603  0.1730 -0.1336
  189SLPC  C21521845   0.804   4.906   8.030  0.5171  0.1268 -0.4483
  189SLPC  H15R21846   0.863   4.819   7.993  2.2285 -0.1124  2.7137
  189SLPC  H15S21847   0.696   4.886   8.016  0.5642  0.7098 -1.7476
  189SLPC  C21621848   0.839   4.905   8.178 -0.5590  0.4661  0.2352
  189SLPC  H16R21849   0.837   4.804   8.223  1.9912 -0.0483 -0.6918
  189SLPC  H16S21850   0.761   4.965   8.229 -1.3959 -0.6510  0.2655
  189SLPC  C21721851   0.981   4.957   8.202  0.1005  0.2128  0.3261
  189SLPC  H17R21852   0.979   5.067   8.186  2.2549 -0.3130 -4.4164
  189SLPC  H17S21853   1.049   4.901   8.134 -1.3428  0.9733 -1.7680
  189SLPC  C21821854   1.020   4.938   8.349 -0.6884 -0.5322 -0.5109
  189SLPC  H18R21855   1.038   4.829   8.362 -1.9751 -0.3643  3.2064
  189SLPC  H18S21856   0.941   4.981   8.415 -1.6248 -3.9233  0.6689
  189SLPC  H18T21857   1.122   4.980   8.363  0.2328 -2.5590 -0.9669
  189SLPC   C3321858   0.676   5.851   6.986 -0.2025 -0.2042  0.1669
  189SLPC   H3X21859   0.654   5.933   7.058 -1.5561 -2.1184  1.9815
  189SLPC   H3Y21860   0.785   5.862   6.967 -0.2758  0.0814 -0.0995
  189SLPC   C3421861   0.633   5.724   7.051  0.1212 -0.5312  0.0609
  189SLPC   H4X21862   0.690   5.706   7.145  0.7934 -4.3233 -0.9964
  189SLPC   H4Y21863   0.673   5.639   6.992 -1.1055  0.1925 -1.8306
  189SLPC   C3521864   0.480   5.700   7.087 -0.2642 -0.7477  0.7201
  189SLPC   H5X21865   0.441   5.661   6.990  1.6616 -0.9701 -0.0017
  189SLPC   H5Y21866   0.440   5.799   7.116  2.6013  0.4499  0.7842
  189SLPC   C3621867   0.468   5.586   7.197  0.4262 -0.4720  0.1431
  189SLPC   H6X21868   0.547   5.509   7.182 -0.1055 -1.1550  0.7595
  189SLPC   H6Y21869   0.370   5.534   7.185  1.1477 -2.1301  1.1473
  189SLPC   C3721870   0.483   5.650   7.341  0.4235 -0.4741 -0.6638
  189SLPC   H7X21871   0.399   5.723   7.343 -0.5393 -1.5361 -1.4538
  189SLPC   H7Y21872   0.577   5.708   7.351 -0.0194 -0.3042  3.5744
  189SLPC   C3821873   0.474   5.551   7.458 -0.3006 -0.0615  0.2419
  189SLPC   H8X21874   0.569   5.494   7.462  0.1009  0.5392 -0.5030
  189SLPC   H8Y21875   0.403   5.470   7.430 -0.2721 -0.5752  1.6189
  189SLPC   C3921876   0.454   5.621   7.593  0.0284 -0.6705 -0.0698
  189SLPC   H9X21877   0.375   5.699   7.591 -0.7888 -1.4327  1.5232
  189SLPC   H9Y21878   0.547   5.677   7.618 -0.9062 -0.2073  2.5435
  189SLPC  C31021879   0.423   5.516   7.706 -0.1106  0.6417  0.3563
  189SLPC  H10X21880   0.503   5.440   7.712 -0.4441  0.2231 -0.4611
  189SLPC  H10Y21881   0.329   5.462   7.682 -0.1219  0.0049  1.7785
  189SLPC  C31121882   0.403   5.590   7.840 -0.4224 -0.7646  0.6727
  189SLPC  H11X21883   0.329   5.671   7.821  0.7535  0.1099 -0.2173
  189SLPC  H11Y21884   0.498   5.630   7.880 -0.9467 -0.7131  1.9255
  189SLPC  C31221885   0.345   5.500   7.952 -0.7347  0.0520 -0.2152
  189SLPC  H12X21886   0.417   5.416   7.964 -3.1198 -2.0761 -0.3360
  189SLPC  H12Y21887   0.253   5.452   7.914 -1.1670  0.6327  0.0951
  189SLPC  C31321888   0.306   5.572   8.084  0.9536 -0.4302 -0.1722
  189SLPC  H13X21889   0.245   5.663   8.068 -1.7643 -2.2900 -0.7808
  189SLPC  H13Y21890   0.406   5.600   8.124 -0.5799  1.8864  2.1939
  189SLPC  C31421891   0.241   5.485   8.185  0.4705  0.3565 -0.5293
  189SLPC  H14X21892   0.297   5.389   8.194  2.2078  1.5676  1.9601
  189SLPC  H14Y21893   0.139   5.471   8.142 -0.3403  2.7177  0.5691
  189SLPC  C31521894   0.218   5.555   8.326 -0.7219 -0.4702  0.0868
  189SLPC  H15X21895   0.321   5.572   8.365 -0.6664 -1.8300  0.5492
  189SLPC  H15Y21896   0.173   5.480   8.394  0.2011 -1.4932 -0.4116
  189SLPC  C31621897   0.143   5.686   8.323 -0.7190 -0.2373 -1.0128
  189SLPC  H16X21898   0.041   5.666   8.284 -0.1173 -1.5225 -1.9835
  189SLPC  H16Y21899   0.190   5.767   8.264  1.0632 -0.2667  0.3204
  189SLPC  C31721900   0.114   5.730   8.462 -0.1746 -0.3099 -0.5974
  189SLPC  H17X21901   0.210   5.725   8.518 -0.7696 -3.6869  0.2090
  189SLPC  H17Y21902   0.048   5.653   8.507 -1.0774  0.3955 -0.7120
  189SLPC  C31821903   0.056   5.869   8.480  0.5965 -1.0489 -0.0865
  189SLPC  H18X21904  -0.046   5.875   8.436  0.8480  0.9551 -0.4491
  189SLPC  H18Y21905   0.128   5.943   8.440  1.8331 -2.3424 -0.2949
  189SLPC  H18Z21906   0.040   5.890   8.588  0.6799 -1.9198  0.0983
  190SLPC     N21907   0.602   4.389   6.436 -0.0133  0.3847 -0.5120
  190SLPC   C1321908   0.582   4.244   6.413 -0.3998 -0.3118 -0.0603
  190SLPC  H13A21909   0.674   4.200   6.377 -0.1511  0.9233 -0.9361
  190SLPC  H13B21910   0.564   4.193   6.507  0.7538  1.1432  0.9755
  190SLPC  H13C21911   0.515   4.218   6.332 -2.2611 -1.7627  1.8878
  190SLPC   C1421912   0.649   4.444   6.302  0.0732  0.9731  0.2945
  190SLPC  H14A21913   0.750   4.407   6.291 -0.6634 -0.9479 -0.3439
  190SLPC  H14B21914   0.588   4.408   6.220  0.3257 -0.5372  0.7441
  190SLPC  H14C21915   0.639   4.551   6.295  2.4136  1.4461  3.2852
  190SLPC   C1521916   0.723   4.408   6.525 -0.2813  0.5343  0.3157
  190SLPC  H15A21917   0.718   4.513   6.548 -1.9157  0.8536 -1.3230
  190SLPC  H15B21918   0.728   4.342   6.610  0.0550  0.5009  0.2718
  190SLPC  H15C21919   0.805   4.390   6.456 -1.3452 -2.0170 -0.3446
  190SLPC   C1221920   0.477   4.457   6.485  0.0153  0.5285  1.0584
  190SLPC  H12A21921   0.440   4.418   6.578 -1.7071 -0.1268  0.1176
  190SLPC  H12B21922   0.404   4.426   6.411  1.8324 -3.5640  0.8254
  190SLPC   C1121923   0.480   4.607   6.516 -0.1219  0.2975 -1.0975
  190SLPC  H11A21924   0.557   4.636   6.590 -1.8613 -1.0589  1.3069
  190SLPC  H11B21925   0.383   4.632   6.565 -0.2197 -1.4060 -0.4018
  190SLPC     P21926   0.377   4.741   6.317 -0.0261 -0.4312  0.1835
  190SLPC   O1321927   0.439   4.825   6.211  0.1692 -0.4221  0.2803
  190SLPC   O1421928   0.295   4.633   6.275 -0.2360  0.2556  0.3699
  190SLPC   O1221929   0.497   4.682   6.396  0.3394 -0.4186 -0.1835
  190SLPC   O1121930   0.300   4.832   6.428  0.0613 -0.3484 -0.0578
  190SLPC    C121931   0.383   4.919   6.504  0.3359  0.4791 -0.0637
  190SLPC    HA21932   0.469   4.865   6.548  1.6574  2.4215 -0.2285
  190SLPC    HB21933   0.425   5.004   6.447  1.2074 -0.6289 -1.1066
  190SLPC    C221934   0.315   4.974   6.638 -0.4280  0.3224  0.1107
  190SLPC    HS21935   0.398   5.013   6.701 -0.3391 -0.6175  0.5777
  190SLPC   O2121936   0.231   4.873   6.701 -0.1485  0.4456  0.0981
  190SLPC   C2121937   0.295   4.791   6.785 -0.4667  0.6011 -0.1425
  190SLPC   O2221938   0.418   4.787   6.796 -0.5628 -0.4394 -0.1177
  190SLPC   C2221939   0.182   4.720   6.875  0.1241 -0.2431 -0.2274
  190SLPC   H2R21940   0.107   4.797   6.904 -0.6594 -1.0996  0.0697
  190SLPC   H2S21941   0.119   4.648   6.818 -1.7983 -0.1033  1.6644
  190SLPC    C321942   0.223   5.093   6.599  0.3016  0.1653  0.0012
  190SLPC    HX21943   0.185   5.088   6.495  0.6745  2.5703 -0.2737
  190SLPC    HY21944   0.291   5.180   6.588  1.5333 -0.7708  0.1684
  190SLPC   O3121945   0.120   5.118   6.697  0.2632  0.2119  0.3055
  190SLPC   C3121946   0.001   5.080   6.662  0.4061 -0.8731  0.4646
  190SLPC   O3221947  -0.035   5.042   6.552  0.1654 -0.2509 -0.0342
  190SLPC   C3221948  -0.085   5.084   6.789 -0.1935 -1.2096  0.3626
  190SLPC   H2X21949  -0.124   4.982   6.807  0.6139 -1.7443 -0.8605
  190SLPC   H2Y21950  -0.172   5.147   6.758  0.1505 -0.4608  0.8963
  190SLPC   C2321951   0.227   4.661   7.008 -0.4341  0.6229 -0.1109
  190SLPC   H3R21952   0.336   4.678   7.024 -0.4963 -0.5513  1.7087
  190SLPC   H3S21953   0.227   4.550   7.007 -0.5817  0.6316 -1.0065
  190SLPC   C2421954   0.147   4.702   7.127 -0.0650 -0.2536 -0.7529
  190SLPC   H4R21955   0.043   4.664   7.115  0.2132 -0.5892 -2.2117
  190SLPC   H4S21956   0.156   4.810   7.150  0.7686 -0.5958  0.5656
  190SLPC   C2521957   0.204   4.640   7.258  0.0214  0.7889  0.7156
  190SLPC   H5R21958   0.304   4.676   7.291  0.1339  0.3583  0.8476
  190SLPC   H5S21959   0.205   4.532   7.232  2.9357  0.9845 -0.1886
  190SLPC   C2621960   0.107   4.664   7.369 -0.9829  0.4034  0.5362
  190SLPC   H6R21961   0.006   4.621   7.348 -0.9881 -0.4393  2.2166
  190SLPC   H6S21962   0.074   4.770   7.375  2.8487  1.6063  1.4331
  190SLPC   C2721963   0.136   4.617   7.514  0.1773  0.0129  0.1275
  190SLPC   H7R21964   0.223   4.679   7.545  2.3143 -1.6163 -2.4274
  190SLPC   H7S21965   0.170   4.511   7.515  1.1582  0.3115 -0.8878
  190SLPC   C2821966   0.023   4.623   7.609 -0.1235  0.5018  0.1805
  190SLPC   H8R21967  -0.059   4.559   7.569 -0.1024  2.0457 -2.4481
  190SLPC   H8S21968  -0.013   4.728   7.614  2.9391  1.5879  0.5533
  190SLPC   C2921969   0.053   4.579   7.752 -0.0116  0.0944  0.1623
  190SLPC   H9R21970   0.146   4.524   7.769 -1.0032 -1.7945 -0.4297
  190SLPC  C21021971   0.003   4.639   7.860  0.0215  0.4450 -0.2700
  190SLPC  H10R21972   0.023   4.591   7.957 -0.6726  1.4992  0.4065
  190SLPC  C21121973  -0.104   4.745   7.862  0.0578 -0.2019  0.3706
  190SLPC  H11R21974  -0.174   4.738   7.776  1.2511 -1.7579 -0.5053
  190SLPC  H11S21975  -0.061   4.847   7.852 -2.8620  1.0053 -0.3814
  190SLPC  C21221976  -0.187   4.749   7.992 -1.0717  0.5697  0.0177
  190SLPC  H12R21977  -0.198   4.660   8.054 -0.9304  1.6760  1.6606
  190SLPC  C21321978  -0.256   4.855   8.036  0.4825 -0.0404 -0.0322
  190SLPC  H13R21979  -0.316   4.846   8.127  0.8341 -1.8391  0.0446
  190SLPC  C21421980  -0.261   4.984   7.966 -0.1493  0.0670 -0.3736
  190SLPC  H14R21981  -0.366   5.017   7.956  0.2646  1.5846  0.1395
  190SLPC  H14S21982  -0.212   4.980   7.866  0.0740 -0.3852 -0.2460
  190SLPC  C21521983  -0.194   5.099   8.042  0.3907  0.3157  0.6657
  190SLPC  H15R21984  -0.184   5.195   7.987  2.2458 -0.5910 -0.6389
  190SLPC  H15S21985  -0.088   5.075   8.065  0.3420 -3.1857 -2.3591
  190SLPC  C21621986  -0.261   5.139   8.170 -1.3955 -0.2283 -0.1594
  190SLPC  H16R21987  -0.255   5.058   8.246  0.3948 -0.8715 -0.9403
  190SLPC  H16S21988  -0.371   5.152   8.163 -1.5102 -0.6954  0.7171
  190SLPC  C21721989  -0.196   5.262   8.229  0.7089 -0.6351 -0.7377
  190SLPC  H17R21990  -0.262   5.351   8.222  0.3190 -0.6779  2.0507
  190SLPC  H17S21991  -0.106   5.292   8.171  1.5950  1.1925  1.5161
  190SLPC  C21821992  -0.160   5.246   8.380  0.1661 -0.2236 -0.0946
  190SLPC  H18R21993  -0.244   5.272   8.447  2.3920  1.1665  2.2367
  190SLPC  H18S21994  -0.083   5.324   8.398 -0.4351  0.1873  0.7032
  190SLPC  H18T21995  -0.118   5.147   8.407 -0.3360 -0.2192  0.6931
  190SLPC   C3321996  -0.022   5.155   6.914 -0.9681 -0.5040 -0.8947
  190SLPC   H3X21997  -0.011   5.265   6.907 -0.9550 -0.3279  1.7404
  190SLPC   H3Y21998   0.080   5.112   6.927 -0.7846 -0.0967 -0.9812
  190SLPC   C3421999  -0.099   5.141   7.045 -0.2054 -0.1924 -0.5362
  190SLPC   H4X22000  -0.209   5.148   7.032 -0.0588  0.7244 -1.3050
  190SLPC   H4Y22001  -0.058   5.218   7.114  1.9795 -2.3255  0.6601
  190SLPC   C3522002  -0.064   5.009   7.107  0.5379  0.1531  0.3010
  190SLPC   H5X22003   0.045   4.990   7.093  0.3951  0.8355 -1.8806
  190SLPC   H5Y22004  -0.108   4.928   7.045 -1.1585 -0.4071  2.2064
  190SLPC   C3622005  -0.092   4.990   7.255 -0.2002  0.7703 -0.6403
  190SLPC   H6X22006  -0.014   5.044   7.312 -0.5265 -2.1546  2.7080
  190SLPC   H6Y22007  -0.085   4.883   7.287  2.2477  2.3143  4.4787
  190SLPC   C3722008  -0.229   5.032   7.309 -0.5191  0.0848 -0.4239
  190SLPC   H7X22009  -0.310   5.003   7.239 -0.7593 -0.3308  0.0300
  190SLPC   H7Y22010  -0.240   5.143   7.319 -1.8439 -0.0724 -0.1173
  190SLPC   C3822011  -0.242   4.972   7.451 -0.1072  0.6579 -0.8425
  190SLPC   H8X22012  -0.195   4.871   7.454 -0.5756  0.4245 -1.2397
  190SLPC   H8Y22013  -0.348   4.945   7.469 -0.1625  1.6938  0.4309
  190SLPC   C3922014  -0.171   5.060   7.553  0.0338  1.2058  0.8355
  190SLPC   H9X22015  -0.069   5.087   7.518  0.1591 -1.4095 -0.9502
  190SLPC   H9Y22016  -0.161   4.989   7.639 -0.3729 -1.7818 -1.5128
  190SLPC  C31022017  -0.237   5.187   7.601 -0.8749 -0.0045 -0.1049
  190SLPC  H10X22018  -0.226   5.266   7.524 -0.6477 -1.7918 -1.9609
  190SLPC  H10Y22019  -0.185   5.218   7.695  0.6984  0.0726 -0.9846
  190SLPC  C31122020  -0.393   5.184   7.635 -0.6041  0.0944  0.4640
  190SLPC  H11X22021  -0.399   5.110   7.718  0.5474 -0.1106  0.3767
  190SLPC  H11Y22022  -0.427   5.151   7.535  0.1012  0.4516  0.1045
  190SLPC  C31222023  -0.459   5.315   7.677 -0.2401  0.1592  0.2321
  190SLPC  H12X22024  -0.560   5.301   7.632  0.3738 -1.4696 -0.7010
  190SLPC  H12Y22025  -0.408   5.397   7.623 -0.8469 -0.9805 -2.1890
  190SLPC  C31322026  -0.466   5.319   7.822 -0.1243  0.4116 -0.3373
  190SLPC  H13X22027  -0.368   5.299   7.871 -0.2918 -2.2989 -0.9795
  190SLPC  H13Y22028  -0.533   5.238   7.858 -0.7997  0.7385 -0.8420
  190SLPC  C31422029  -0.525   5.457   7.849 -0.2961  0.7963 -0.2299
  190SLPC  H14X22030  -0.618   5.474   7.791 -0.1055 -0.0609 -0.8012
  190SLPC  H14Y22031  -0.459   5.531   7.799 -0.1723 -0.3919 -1.8508
  190SLPC  C31522032  -0.548   5.488   7.999 -0.8042  0.5549  0.0668
  190SLPC  H15X22033  -0.530   5.596   8.016  1.7525 -0.0188  1.3695
  190SLPC  H15Y22034  -0.473   5.429   8.057  1.8858  1.3534 -2.4910
  190SLPC  C31622035  -0.695   5.442   8.031  0.3907  0.3179 -0.7822
  190SLPC  H16X22036  -0.715   5.332   8.029  0.7937  0.2506 -1.0488
  190SLPC  H16Y22037  -0.766   5.487   7.959 -1.6322  0.2112  1.0800
  190SLPC  C31722038  -0.728   5.491   8.177  0.2861  0.1170 -0.3836
  190SLPC  H17X22039  -0.733   5.602   8.185  1.3584  0.3324 -2.3648
  190SLPC  H17Y22040  -0.646   5.449   8.239  0.9119  0.8389 -0.7081
  190SLPC  C31822041  -0.860   5.439   8.238 -0.2309  0.3279 -0.0481
  190SLPC  H18X22042  -0.851   5.336   8.279 -2.7025  0.9278  2.1538
  190SLPC  H18Y22043  -0.955   5.450   8.181 -0.9346 -1.1617  0.8117
  190SLPC  H18Z22044  -0.880   5.498   8.330 -0.1996 -1.1544  0.9305
  191SLPC     N22045   6.566   0.691   5.577  0.7172 -0.0765 -0.4218
  191SLPC   C1322046   6.531   0.577   5.664 -0.6359 -0.1744  0.4562
  191SLPC  H13A22047   6.532   0.612   5.766 -2.4165  0.4139  0.2959
  191SLPC  H13B22048   6.437   0.531   5.638 -0.8318  2.2385 -3.5703
  191SLPC  H13C22049   6.607   0.501   5.652  0.2253  0.7179  0.2077
  191SLPC   C1422050   6.457   0.793   5.593 -0.8638  0.6831 -0.4698
  191SLPC  H14A22051   6.481   0.876   5.528  2.6166  0.7634  0.8089
  191SLPC  H14B22052   6.364   0.757   5.554  0.0847 -3.1992  0.6734
  191SLPC  H14C22053   6.446   0.840   5.690 -1.5943  1.0463 -0.7303
  191SLPC   C1522054   6.572   0.647   5.433  0.4334  0.1498 -0.4207
  191SLPC  H15A22055   6.588   0.739   5.380 -2.0950  1.1021  0.4175
  191SLPC  H15B22056   6.654   0.579   5.411  0.9636  0.8685 -0.6733
  191SLPC  H15C22057   6.484   0.598   5.395  1.3882 -1.5522 -0.4966
  191SLPC   C1222058   6.701   0.747   5.630  0.4397 -0.2590  0.6373
  191SLPC  H12A22059   6.744   0.824   5.568 -1.1924 -1.6668 -2.3060
  191SLPC  H12B22060   6.768   0.663   5.614  0.8506  0.0678  0.6473
  191SLPC   C1122061   6.716   0.787   5.780  0.3449  0.3991  0.1727
  191SLPC  H11A22062   6.655   0.878   5.800  0.1813  0.2695  0.2559
  191SLPC  H11B22063   6.817   0.830   5.795 -0.2300  1.8877 -0.0988
  191SLPC     P22064   6.788   0.586   5.946 -0.3227  0.4388 -0.3933
  191SLPC   O1322065   6.703   0.464   5.973 -0.0100  0.0497  1.1199
  191SLPC   O1422066   6.922   0.567   5.880  0.0321  0.0034  0.3345
  191SLPC   O1222067   6.686   0.674   5.863 -0.6596  1.0920  0.2594
  191SLPC   O1122068   6.809   0.677   6.078  0.0800 -0.3012  0.6904
  191SLPC    C122069   6.694   0.721   6.156 -0.1263  0.4826  0.3098
  191SLPC    HA22070   6.696   0.831   6.172 -0.0072  0.5713 -0.2876
  191SLPC    HB22071   6.593   0.688   6.124 -1.2092  4.5543 -0.8402
  191SLPC    C222072   6.721   0.665   6.298  0.2021  0.5597 -0.5649
  191SLPC    HS22073   6.757   0.560   6.288 -1.7773 -0.2398  0.3851
  191SLPC   O2122074   6.597   0.667   6.366  0.4932 -0.2019 -0.4048
  191SLPC   C2122075   6.601   0.576   6.460 -0.1480 -0.1501  0.8233
  191SLPC   O2222076   6.681   0.487   6.482  0.0140  0.2858  0.8060
  191SLPC   C2222077   6.471   0.600   6.539  0.2855 -0.7323 -0.6411
  191SLPC   H2R22078   6.408   0.674   6.485 -0.9959 -1.0208  0.4460
  191SLPC   H2S22079   6.425   0.499   6.538  3.1316 -2.0660 -1.6502
  191SLPC    C322080   6.826   0.755   6.360  0.1593 -0.9988  0.1469
  191SLPC    HX22081   6.787   0.858   6.352  1.5886 -0.4324  0.3382
  191SLPC    HY22082   6.918   0.759   6.297 -0.5729 -0.6965 -0.9178
  191SLPC   O3122083   6.851   0.728   6.497 -0.4147  0.0729  0.5389
  191SLPC   C3122084   6.963   0.654   6.517 -0.1063 -0.2962 -0.0998
  191SLPC   O3222085   7.033   0.608   6.428  0.3695  0.5252  0.1534
  191SLPC   C3222086   6.979   0.621   6.660 -0.4852 -0.3453 -0.3765
  191SLPC   H2X22087   7.078   0.574   6.682 -0.1000  1.1810  1.2917
  191SLPC   H2Y22088   6.899   0.545   6.675  0.1136 -0.9631 -0.2717
  191SLPC   C2322089   6.481   0.651   6.688 -0.0709  0.5044 -0.3347
  191SLPC   H3R22090   6.381   0.665   6.734  0.3899 -0.1545  0.9013
  191SLPC   H3S22091   6.527   0.752   6.695 -1.5586  1.2551 -1.0704
  191SLPC   C2422092   6.554   0.557   6.782  0.1263 -0.3417 -0.2950
  191SLPC   H4R22093   6.654   0.539   6.737 -1.5542  0.5986 -4.6517
  191SLPC   H4S22094   6.515   0.453   6.782  0.1858 -0.3754 -1.4634
  191SLPC   C2522095   6.543   0.604   6.927 -0.2060 -0.7082 -0.0776
  191SLPC   H5R22096   6.434   0.609   6.949 -0.7130  0.0815 -2.6440
  191SLPC   H5S22097   6.582   0.705   6.950  2.7545 -1.9795  0.7926
  191SLPC   C2622098   6.606   0.507   7.027 -0.6551  0.3820  0.4211
  191SLPC   H6R22099   6.717   0.507   7.015 -0.8987  0.5016 -1.8869
  191SLPC   H6S22100   6.569   0.403   7.033  2.0689 -0.8277 -2.4409
  191SLPC   C2722101   6.582   0.548   7.176 -0.3382  0.5216  0.0405
  191SLPC   H7R22102   6.472   0.561   7.184 -0.1839  0.2719  2.9994
  191SLPC   H7S22103   6.627   0.649   7.186 -0.4126  0.3926  1.7612
  191SLPC   C2822104   6.641   0.440   7.277  0.0644 -0.3886  0.2238
  191SLPC   H8R22105   6.751   0.439   7.264  0.0204 -3.0637 -0.2075
  191SLPC   H8S22106   6.592   0.348   7.239 -0.3002  0.1632 -0.6513
  191SLPC   C2922107   6.606   0.482   7.419 -0.3190  0.6531 -0.3131
  191SLPC   H9R22108   6.614   0.589   7.441  0.1471  1.1513 -2.8333
  191SLPC  C21022109   6.573   0.397   7.513  0.0269  0.3669  0.1483
  191SLPC  H10R22110   6.553   0.443   7.611  0.6330  2.7967 -0.8124
  191SLPC  C21122111   6.546   0.244   7.496 -0.2363  0.2668  0.5035
  191SLPC  H11R22112   6.645   0.193   7.490  0.0372  0.9140 -0.6016
  191SLPC  H11S22113   6.503   0.226   7.395  0.4443 -2.2264  0.6179
  191SLPC  C21222114   6.458   0.189   7.601  0.9153  0.0276  0.9731
  191SLPC  H12R22115   6.352   0.179   7.571  1.6839  1.2682 -2.3072
  191SLPC  C21322116   6.479   0.164   7.727  0.2556 -0.3900 -0.5593
  191SLPC  H13R22117   6.393   0.123   7.782 -0.2519 -2.0842 -2.5093
  191SLPC  C21422118   6.604   0.177   7.814  0.4088 -0.3718  0.4061
  191SLPC  H14R22119   6.689   0.229   7.765 -1.3034  2.5032  0.3458
  191SLPC  H14S22120   6.644   0.076   7.835 -1.0219 -1.2114 -0.8230
  191SLPC  C21522121   6.579   0.237   7.959 -0.0958  0.7831 -0.3927
  191SLPC  H15R22122   6.548   0.344   7.958  1.4582  1.2345 -1.2516
  191SLPC  H15S22123   6.682   0.231   8.000 -0.4732  1.3459  0.6498
  191SLPC  C21622124   6.491   0.158   8.057  0.5717  0.2477 -0.7516
  191SLPC  H16R22125   6.385   0.153   8.024  0.6823 -1.2282 -0.8875
  191SLPC  H16S22126   6.477   0.211   8.154  1.3624  0.3542 -0.6881
  191SLPC  C21722127   6.530   0.015   8.074  0.2235 -0.5511 -0.6317
  191SLPC  H17R22128   6.633   0.002   8.115 -0.3254  1.3365  1.4641
  191SLPC  H17S22129   6.533  -0.010   7.966  0.9197 -0.5695 -0.6141
  191SLPC  C21822130   6.428  -0.074   8.153  0.1176  0.8028  0.4030
  191SLPC  H18R22131   6.448  -0.177   8.116 -0.2671  1.5094 -1.8868
  191SLPC  H18S22132   6.326  -0.052   8.115 -0.3442 -0.1604  1.0785
  191SLPC  H18T22133   6.447  -0.072   8.262 -2.1172 -1.9192  0.8924
  191SLPC   C3322134   6.960   0.744   6.753 -0.1361  0.4370 -0.2334
  191SLPC   H3X22135   6.854   0.772   6.735 -0.4599  0.1050  1.0966
  191SLPC   H3Y22136   7.024   0.830   6.724  0.3846 -0.0536 -0.5731
  191SLPC   C3422137   6.997   0.708   6.897 -0.0548  0.2021 -0.0730
  191SLPC   H4X22138   7.108   0.706   6.893  0.0248 -2.2615  1.9438
  191SLPC   H4Y22139   6.963   0.606   6.926  0.4390  0.1986  0.4985
  191SLPC   C3522140   6.932   0.808   6.995  0.6626  0.0594  0.0094
  191SLPC   H5X22141   6.822   0.798   7.005  0.9573 -4.5064 -0.4785
  191SLPC   H5Y22142   6.954   0.910   6.955  0.2458 -0.0822 -0.5987
  191SLPC   C3622143   6.988   0.782   7.129 -0.1930  0.5149 -0.1724
  191SLPC   H6X22144   7.097   0.775   7.115  0.0888 -1.0044  2.3945
  191SLPC   H6Y22145   6.950   0.684   7.165 -1.2608  0.8916 -0.2369
  191SLPC   C3722146   6.961   0.881   7.238  0.0173  0.0507  0.5923
  191SLPC   H7X22147   6.855   0.914   7.233  0.3846  1.3112  0.9587
  191SLPC   H7Y22148   7.028   0.968   7.219  1.4489 -1.2456 -0.4431
  191SLPC   C3822149   6.984   0.832   7.384 -0.4436 -0.6700  0.7184
  191SLPC   H8X22150   6.980   0.915   7.459 -1.7329  0.6117 -0.7128
  191SLPC   H8Y22151   7.076   0.771   7.385 -1.5632 -2.3892  0.6509
  191SLPC   C3922152   6.872   0.742   7.425  0.0707  0.1076 -0.5712
  191SLPC   H9X22153   6.877   0.641   7.378  0.5288 -0.5422  0.8274
  191SLPC   H9Y22154   6.773   0.781   7.395 -1.3947 -2.9713  0.0551
  191SLPC  C31022155   6.868   0.710   7.574  0.0522  0.5538  0.5951
  191SLPC  H10X22156   6.775   0.655   7.598  0.0432 -0.2269 -1.1114
  191SLPC  H10Y22157   6.864   0.803   7.634 -2.7725  0.2549  0.9487
  191SLPC  C31122158   6.974   0.603   7.619 -1.3367 -0.2027  0.1017
  191SLPC  H11X22159   7.079   0.636   7.605 -1.1242 -0.1637  1.6657
  191SLPC  H11Y22160   6.962   0.522   7.544 -2.1141 -0.3337  0.3734
  191SLPC  C31222161   6.937   0.562   7.765  0.2604  0.1929 -0.2309
  191SLPC  H12X22162   6.832   0.527   7.778  0.3754  0.0303  0.2384
  191SLPC  H12Y22163   6.963   0.649   7.830  1.5055 -0.4646  0.1657
  191SLPC  C31322164   7.030   0.455   7.821  0.3762 -0.3624  0.7702
  191SLPC  H13X22165   7.132   0.495   7.842  0.0622  0.6420  0.3943
  191SLPC  H13Y22166   7.045   0.389   7.733  0.6895 -0.3741  0.8310
  191SLPC  C31422167   6.986   0.381   7.943 -0.3253  0.2050  0.1050
  191SLPC  H14X22168   6.887   0.332   7.933  0.4351 -1.2341 -0.5297
  191SLPC  H14Y22169   6.979   0.456   8.024  0.3303  0.6994 -0.2894
  191SLPC  C31522170   7.089   0.273   7.965  0.5089  0.4238  0.1103
  191SLPC  H15X22171   7.184   0.326   7.947 -0.4747  2.2861  0.3078
  191SLPC  H15Y22172   7.087   0.191   7.890 -0.5836  0.2258  0.3477
  191SLPC  C31622173   7.078   0.226   8.111 -0.2515  0.0527  0.8722
  191SLPC  H16X22174   7.031   0.307   8.170 -0.9438  2.3819 -2.6910
  191SLPC  H16Y22175   7.180   0.215   8.155  0.4155  1.4663 -0.2615
  191SLPC  C31722176   7.013   0.084   8.131  0.2321 -0.6510 -0.9173
  191SLPC  H17X22177   6.910   0.086   8.090 -1.8951 -1.5032  3.9898
  191SLPC  H17Y22178   7.016   0.073   8.242 -0.6455 -2.7594 -1.0799
  191SLPC  C31822179   7.093  -0.031   8.081 -0.3336  0.1969  0.0859
  191SLPC  H18X22180   7.178  -0.047   8.151  1.9307  0.0092 -2.6225
  191SLPC  H18Y22181   7.140  -0.018   7.981  1.3253 -0.3438  0.7725
  191SLPC  H18Z22182   7.030  -0.122   8.083 -0.4911  0.2357 -2.3901
  192SLPC     N22183   0.566   0.819   6.263  0.0768 -0.4741 -0.2132
  192SLPC   C1322184   0.431   0.810   6.329 -0.4934  0.8140  0.6369
  192SLPC  H13A22185   0.457   0.809   6.434  0.3132  0.8132  0.4396
  192SLPC  H13B22186   0.365   0.890   6.299 -1.5363 -0.4161 -0.4208
  192SLPC  H13C22187   0.379   0.716   6.311  1.7413 -0.2601 -0.3599
  192SLPC   C1422188   0.618   0.963   6.275 -0.1789  0.2922  0.0283
  192SLPC  H14A22189   0.543   1.029   6.236 -3.0780 -1.6188  2.1771
  192SLPC  H14B22190   0.638   0.999   6.375 -1.8513  1.1794  0.0521
  192SLPC  H14C22191   0.712   0.966   6.222  0.5862  2.5565  1.4584
  192SLPC   C1522192   0.552   0.790   6.114 -0.0319 -0.2520 -0.6302
  192SLPC  H15A22193   0.503   0.697   6.093 -1.5556  0.8178 -1.9060
  192SLPC  H15B22194   0.502   0.866   6.056 -0.5277 -1.2135 -1.4683
  192SLPC  H15C22195   0.652   0.782   6.074  0.6922 -0.9737  1.2646
  192SLPC   C1222196   0.662   0.718   6.325 -0.5868 -0.6985  0.5918
  192SLPC  H12A22197   0.753   0.736   6.269 -1.1241  0.2678  0.0142
  192SLPC  H12B22198   0.622   0.620   6.302 -1.0631 -1.4955  4.5528
  192SLPC   C1122199   0.686   0.720   6.473 -0.0556 -0.1956  0.3339
  192SLPC  H11A22200   0.747   0.633   6.506 -0.3701 -1.3805 -2.1191
  192SLPC  H11B22201   0.585   0.692   6.508  0.1437 -0.9740  0.2951
  192SLPC     P22202   0.868   0.884   6.562  0.1062 -0.2676 -0.3967
  192SLPC   O1322203   0.954   0.767   6.554  0.2147  0.1493  0.2162
  192SLPC   O1422204   0.908   1.003   6.479 -0.1978  0.6923 -0.8183
  192SLPC   O1222205   0.712   0.850   6.530  0.2548  0.1784 -0.2485
  192SLPC   O1122206   0.856   0.918   6.715  0.7812  0.9272 -0.3738
  192SLPC    C122207   0.951   0.877   6.820  0.6521 -0.5023 -0.0449
  192SLPC    HA22208   1.047   0.843   6.777  0.7488 -0.1126 -0.1348
  192SLPC    HB22209   0.966   0.972   6.875  2.4461 -0.3643 -0.7594
  192SLPC    C222210   0.877   0.786   6.918 -0.3296  0.3570  0.4165
  192SLPC    HS22211   0.781   0.835   6.945  0.3030  2.4163 -0.9992
  192SLPC   O2122212   0.950   0.769   7.029  0.7471 -0.1045  0.2812
  192SLPC   C2122213   0.896   0.763   7.152 -0.3223 -0.0687 -0.1236
  192SLPC   O2222214   0.789   0.811   7.188  0.4118  0.3951 -0.2590
  192SLPC   C2222215   1.007   0.699   7.245  0.0292  0.2908  0.2472
  192SLPC   H2R22216   1.083   0.654   7.177  0.4638  2.1438 -0.5195
  192SLPC   H2S22217   1.052   0.795   7.278 -0.1005  0.6326 -0.5486
  192SLPC    C322218   0.844   0.654   6.848  0.2683 -0.1645  0.0779
  192SLPC    HX22219   0.944   0.607   6.835  1.1119  1.5884  0.1060
  192SLPC    HY22220   0.814   0.672   6.742 -1.6913 -1.9523  0.2999
  192SLPC   O3122221   0.751   0.581   6.931  0.4507 -0.1599 -0.1380
  192SLPC   C3122222   0.627   0.625   6.937 -0.4704 -0.0475  0.4441
  192SLPC   O3222223   0.574   0.714   6.878  0.1917 -0.3066 -1.1307
  192SLPC   C3222224   0.542   0.528   7.026  0.0589 -0.8333  0.3539
  192SLPC   H2X22225   0.589   0.429   7.038 -1.1201 -1.6983 -1.8833
  192SLPC   H2Y22226   0.450   0.495   6.972  1.2879 -1.6323 -1.3040
  192SLPC   C2322227   0.954   0.611   7.358  1.1354 -0.4851 -0.1423
  192SLPC   H3R22228   0.918   0.512   7.323 -1.9582  0.9157 -1.0254
  192SLPC   H3S22229   0.867   0.661   7.405  1.5649 -0.9198  1.1546
  192SLPC   C2422230   1.062   0.584   7.461 -0.2136  0.2637  0.1162
  192SLPC   H4R22231   1.090   0.677   7.514 -0.7849  0.0114  0.8756
  192SLPC   H4S22232   1.150   0.536   7.414  0.8748  1.9694  0.3983
  192SLPC   C2522233   1.009   0.485   7.568  1.1327 -0.2631 -0.1871
  192SLPC   H5R22234   1.020   0.380   7.534 -1.5742  0.0746 -2.3371
  192SLPC   H5S22235   0.899   0.503   7.570  1.7853  4.1770  1.2740
  192SLPC   C2622236   1.055   0.504   7.713 -0.2306  0.3884  0.2469
  192SLPC   H6R22237   0.984   0.453   7.781  0.6732 -0.7839  0.3373
  192SLPC   H6S22238   1.063   0.613   7.737 -0.8235  0.4715  0.0580
  192SLPC   C2722239   1.193   0.441   7.733  0.2554  0.7957  0.9980
  192SLPC   H7R22240   1.266   0.517   7.697 -1.1319  1.5162 -0.3722
  192SLPC   H7S22241   1.215   0.347   7.678 -0.2215 -0.4005  2.7909
  192SLPC   C2822242   1.219   0.427   7.881 -0.4617  0.0759 -0.0894
  192SLPC   H8R22243   1.209   0.527   7.929 -0.6627 -0.1900  0.4235
  192SLPC   H8S22244   1.321   0.388   7.900 -0.0478  0.7339 -0.9319
  192SLPC   C2922245   1.131   0.326   7.948  0.2258 -0.4827  0.1247
  192SLPC   H9R22246   1.119   0.235   7.887  1.1147  0.9869 -2.3289
  192SLPC  C21022247   1.059   0.340   8.059  0.2813  0.1877 -1.2885
  192SLPC  H10R22248   0.999   0.255   8.096  2.6247 -1.5098 -1.3314
  192SLPC  C21122249   1.066   0.474   8.134 -0.1676 -0.1592  0.9905
  192SLPC  H11R22250   0.970   0.500   8.183 -1.0146  0.1657 -0.7810
  192SLPC  H11S22251   1.074   0.566   8.071 -0.7916 -1.1641 -0.5909
  192SLPC  C21222252   1.176   0.473   8.233 -0.5668  0.1155  0.1295
  192SLPC  H12R22253   1.271   0.510   8.193 -1.9284  1.8033 -1.5959
  192SLPC  C21322254   1.172   0.448   8.362 -0.3901  0.1266 -0.2576
  192SLPC  H13R22255   1.269   0.448   8.415 -0.2950  0.1540 -0.4320
  192SLPC  C21422256   1.056   0.398   8.441  0.1463 -0.2446 -0.0680
  192SLPC  H14R22257   1.022   0.311   8.379  1.4411  0.8489 -2.3761
  192SLPC  H14S22258   0.968   0.463   8.459  0.9994  1.1577 -0.9371
  192SLPC  C21522259   1.089   0.324   8.568 -0.4216 -0.3325  0.0532
  192SLPC  H15R22260   1.173   0.253   8.555  0.8121  0.6944  2.1095
  192SLPC  H15S22261   1.002   0.271   8.612 -0.0982 -0.4349  0.5772
  192SLPC  C21622262   1.135   0.425   8.674  0.2372  0.4745 -0.8797
  192SLPC  H16R22263   1.044   0.481   8.704 -0.3058 -0.8670  0.0706
  192SLPC  H16S22264   1.204   0.504   8.639  0.8467  0.6938  0.7497
  192SLPC  C21722265   1.193   0.362   8.793  0.2031 -0.4146  0.1758
  192SLPC  H17R22266   1.287   0.317   8.755  1.1635  0.6249  1.2840
  192SLPC  H17S22267   1.210   0.441   8.870 -0.5359  0.2262 -0.3087
  192SLPC  C21822268   1.113   0.243   8.858 -0.1426 -0.7525  0.1815
  192SLPC  H18R22269   1.137   0.147   8.809  0.4495 -0.4733 -0.0771
  192SLPC  H18S22270   1.003   0.260   8.857  0.0113  0.3168 -0.1256
  192SLPC  H18T22271   1.156   0.233   8.959  3.8006 -0.4284 -1.3851
  192SLPC   C3322272   0.519   0.582   7.168  0.4715 -0.2097  0.3456
  192SLPC   H3X22273   0.410   0.575   7.192  0.6942 -1.4038  1.0452
  192SLPC   H3Y22274   0.542   0.690   7.178 -2.9389  0.6042  0.2189
  192SLPC   C3422275   0.587   0.492   7.275  0.3763  0.6881 -0.7737
  192SLPC   H4X22276   0.571   0.551   7.368 -1.8215  0.4429 -0.9712
  192SLPC   H4Y22277   0.693   0.475   7.247 -0.0410 -1.2075 -1.2725
  192SLPC   C3522278   0.509   0.361   7.297 -0.4600 -0.1703  0.0545
  192SLPC   H5X22279   0.528   0.287   7.216  0.8984 -0.7845  0.9263
  192SLPC   H5Y22280   0.399   0.377   7.303 -0.5029 -0.5185  0.2243
  192SLPC   C3622281   0.553   0.277   7.421 -0.2420 -0.9656 -0.0342
  192SLPC   H6X22282   0.642   0.223   7.383 -0.6089 -1.3354 -0.3640
  192SLPC   H6Y22283   0.475   0.201   7.442 -0.3944 -0.4167  1.4667
  192SLPC   C3722284   0.574   0.346   7.547 -0.3228 -0.2431 -0.2800
  192SLPC   H7X22285   0.484   0.408   7.564 -1.1268 -1.6304  0.6485
  192SLPC   H7Y22286   0.662   0.414   7.538  0.3970 -1.2000 -0.5397
  192SLPC   C3822287   0.587   0.248   7.659  0.4567 -0.2965 -0.6148
  192SLPC   H8X22288   0.658   0.169   7.628  0.4725 -0.7317  0.4933
  192SLPC   H8Y22289   0.492   0.200   7.691  1.9896 -2.2100  1.2549
  192SLPC   C3922290   0.648   0.309   7.790  0.1743  0.2389  0.1549
  192SLPC   H9X22291   0.590   0.402   7.804  0.4290  0.4586 -0.2332
  192SLPC   H9Y22292   0.755   0.334   7.780  0.9633 -2.4832  1.2610
  192SLPC  C31022293   0.641   0.212   7.909 -0.1259  0.0160 -0.7665
  192SLPC  H10X22294   0.713   0.127   7.907  0.0710  0.0895  1.7001
  192SLPC  H10Y22295   0.537   0.171   7.907  0.6430 -2.0016 -0.9525
  192SLPC  C31122296   0.678   0.278   8.043  0.4149 -0.9084 -0.1105
  192SLPC  H11X22297   0.589   0.337   8.071  2.4161  1.7977  0.7187
  192SLPC  H11Y22298   0.776   0.329   8.030 -0.4294  0.7949  0.1232
  192SLPC  C31222299   0.688   0.171   8.156 -0.2780 -0.5106 -0.5023
  192SLPC  H12X22300   0.766   0.095   8.132 -0.7161 -0.6840 -1.4166
  192SLPC  H12Y22301   0.591   0.120   8.175 -0.4719  0.4566  1.1747
  192SLPC  C31322302   0.734   0.241   8.285 -0.8138  0.2741  0.0758
  192SLPC  H13X22303   0.673   0.329   8.315  1.2487  1.5628  0.6421
  192SLPC  H13Y22304   0.836   0.283   8.268 -1.7093  2.3922 -0.2653
  192SLPC  C31422305   0.742   0.151   8.411  0.0735 -0.3932  0.1311
  192SLPC  H14X22306   0.789   0.211   8.492  2.4413 -1.2695 -0.5409
  192SLPC  H14Y22307   0.811   0.068   8.383  0.4908  0.7231 -2.2340
  192SLPC  C31522308   0.607   0.096   8.460 -0.7446  0.5111 -0.3709
  192SLPC  H15X22309   0.619   0.033   8.551 -2.2162  0.2926 -0.3144
  192SLPC  H15Y22310   0.558   0.036   8.382  1.3419 -1.0484 -0.5173
  192SLPC  C31622311   0.515   0.211   8.502  0.4296  0.3119  0.1795
  192SLPC  H16X22312   0.483   0.265   8.410  0.6942  1.0653  0.5284
  192SLPC  H16Y22313   0.567   0.293   8.556  1.2243  0.0736 -0.2173
  192SLPC  C31722314   0.405   0.162   8.592  0.1528  0.0423  0.2635
  192SLPC  H17X22315   0.435   0.157   8.699  1.0315 -1.1660 -0.0297
  192SLPC  H17Y22316   0.375   0.063   8.553  4.1955  0.2081 -3.6374
  192SLPC  C31822317   0.294   0.258   8.594  0.7556 -0.0509  0.7897
  192SLPC  H18X22318   0.235   0.267   8.500 -2.4658 -1.2420  2.6242
  192SLPC  H18Y22319   0.329   0.359   8.623  0.9022 -0.3383  1.6251
  192SLPC  H18Z22320   0.215   0.222   8.663 -0.8030 -2.2536 -2.0428
  193SOD    SOD22321   3.624   2.581   5.780  0.2593  0.1199 -0.0933
  194SOD    SOD22322   0.841   2.653   0.580 -0.2666 -0.4016  0.1778
  195SOD    SOD22323   1.628   4.232  11.192 -0.0221 -0.4109 -0.2641
  196SOD    SOD22324   5.698   3.129   5.644 -0.6056  0.4792 -0.3844
  197SOD    SOD22325   6.162   4.904  10.284 -0.2391 -0.1630 -0.3467
  198SOD    SOD22326   6.007   1.627  11.117 -0.1203  0.4052 -0.1974
  199SOD    SOD22327   0.323   1.067   2.460  0.0168 -0.3727  0.4002
  200SOD    SOD22328   1.138   6.427   0.342 -0.3422  0.6154  0.2226
  201SOD    SOD22329   0.675   2.005   0.881  0.1633  0.2001 -0.1372
  202SOD    SOD22330   5.312   5.563  10.896  0.0794 -0.1755  0.6176
  203SOD    SOD22331   5.516   2.597   2.204  0.5530  0.0105  0.3909
  204SOD    SOD22332   0.630   4.639   5.810 -0.4675 -0.1491  0.1689
  205SOD    SOD22333   6.627   3.651   2.760  0.3876  0.2798 -0.0689
  206SOD    SOD22334   3.338   6.596   2.893 -0.1357 -0.0065 -0.2588
  207SOD    SOD22335   2.106   2.169  14.710  0.0796 -0.4101 -0.0278
  208SOD    SOD22336   2.227   3.908   5.715  0.2675 -0.4721  0.1048
  209SOD    SOD22337   5.885   0.773   5.999 -0.3901  0.4332  0.2952
  210SOD    SOD22338   2.862   6.119   4.393  0.1686 -0.0013  0.1972
  211SOD    SOD22339   1.898   6.015   3.276  0.0912 -0.1039  0.1178
  212SOD    SOD22340   1.058   4.266  15.230  0.3272  0.1886  0.0136
  213SOD    SOD22341   1.831   4.630  12.960  0.0857 -0.2765  0.1048
  214SOD    SOD22342   3.184   3.762   5.768  0.0815 -0.2352  0.3360
  215SOD    SOD22343   6.777   0.616  11.716  0.3344  0.6491  0.4415
  216SOD    SOD22344   0.328   0.228  13.974  0.4773 -0.6869 -1.1422
  217SOD    SOD22345   5.735   6.165   1.931  0.2151 -0.3071  0.1305
  218SOD    SOD22346   4.509   4.231  12.539  0.2497  0.1550  0.1109
  219SOD    SOD22347   5.959   2.354   4.176  0.2072 -0.2183 -0.3496
  220SOD    SOD22348   0.453   1.716  16.234 -0.0633 -0.0824 -0.0864
  221SOD    SOD22349   4.169   0.670  16.469 -0.3756 -0.0582 -0.1759
  222SOD    SOD22350   2.900   4.415  10.598  0.2895  0.3458  0.3198
  223SOD    SOD22351   2.179   3.635   0.175 -0.2861 -0.0790  0.5795
  224SOD    SOD22352   4.620   5.219   2.927  0.1743  0.0579  0.3300
  225SOD    SOD22353   0.132   1.900   3.249 -0.0575  0.2510 -0.0752
  226SOD    SOD22354   2.107   2.164  15.839  0.0244 -0.0954  0.1495
  227SOD    SOD22355   2.028   0.965  11.926 -0.3989  0.2124 -0.3816
  228SOD    SOD22356   3.658   2.030  11.620  0.1874 -0.4234 -0.6227
  229SOD    SOD22357   4.820   5.125  12.842  0.2852  0.0458  0.1563
  230SOD    SOD22358   5.290   3.896  16.515 -0.2759  0.0257 -0.3140
  231SOD    SOD22359   0.069   6.615   6.094 -0.0567 -1.0346  0.1547
  232SOD    SOD22360   3.750   4.309  15.633  0.7573  0.0130  0.0020
  233SOD    SOD22361   2.562   6.810   5.727  0.0375  0.4576 -0.4728
  234SOD    SOD22362   6.468   3.085  14.878 -0.1909 -0.1742 -0.3122
  235SOD    SOD22363   0.460   5.561   0.066 -0.4047  0.4831 -0.0876
  236SOD    SOD22364   2.709   0.725  11.730  0.1670 -0.4515 -0.1502
  237SOD    SOD22365   1.987   3.471  10.736  0.8504 -0.5472  0.5847
  238SOD    SOD22366   4.216   4.491   4.284  0.3822 -0.0069 -0.4725
  239SOD    SOD22367   1.102   4.771   0.751  0.1503  0.7699 -0.2206
  240SOD    SOD22368   5.710   6.636   3.856 -0.4322  0.5987  0.5009
  241SOD    SOD22369   2.192   1.577   1.490 -0.2903  0.2615  0.1459
  242SOD    SOD22370   2.402   1.354   5.480  0.3602 -0.1627  0.0266
  243SOD    SOD22371   3.013   2.436  15.502 -0.4970  0.0856 -0.1371
  244SOD    SOD22372   4.136   5.811  13.581 -0.3974 -0.1747  0.2885
  245SOD    SOD22373   0.699   3.029  12.326 -0.0852  0.2468  0.3722
  246SOD    SOD22374   1.243   0.465   5.973 -0.2377  0.0070  0.0983
  247SOD    SOD22375   0.441   6.617  15.715 -1.1622  0.1092  0.3623
  248SOD    SOD22376   5.369   3.102   3.021 -0.2810  0.2339  0.5514
  249SOD    SOD22377   0.517   4.361   0.301  0.5991 -0.3516  0.2297
  250SOD    SOD22378   4.456   2.608   1.006  0.1913 -0.8417 -0.2093
  251SOD    SOD22379   4.536   5.076  15.012  0.4048 -0.1826 -0.2692
  252SOD    SOD22380   3.725   6.148  10.770 -0.1197  0.2630  0.0241
  253SOD    SOD22381   4.855   0.783  11.578 -0.2656 -0.0879 -0.0568
  254SOD    SOD22382   6.483   6.272  15.116  0.2645  0.1065 -0.2932
  255SOD    SOD22383   4.877   0.723  14.987  0.0406  0.0938  0.2738
  256SOD    SOD22384   1.173   0.159   4.059  0.1262  0.3701 -0.6134
  257SOD    SOD22385   3.427   3.197  14.338 -0.2307  0.2249 -0.6639
  258SOD    SOD22386   1.484   4.216  11.995  0.1735 -0.3143 -0.9027
  259SOD    SOD22387   4.906   3.539   0.336  0.0086  0.1306 -0.1194
  260SOD    SOD22388   0.372   0.450   2.679 -0.0505  0.2572  0.3094
  261SOD    SOD22389   6.809   4.488  14.634 -0.6236 -0.5436  0.1584
  262SOD    SOD22390   4.790   4.261   2.607  0.3908  0.1407 -0.2876
  263SOD    SOD22391   4.637   0.140   5.568  0.7753 -0.0511 -0.1577
  264SOD    SOD22392   1.983   0.311  15.003  0.3614  0.1516 -0.4875
  265SOD    SOD22393   4.538   2.277   4.030  0.1063  0.4889 -0.2310
  266CLA    CLA22394   1.080   2.928  16.999  0.0833  0.2642 -0.0202
  267CLA    CLA22395   5.951   5.349  15.347  0.2659  0.1124 -0.3948
  268CLA    CLA22396   5.006   2.696  11.962  0.1466  0.0325  0.2890
  269CLA    CLA22397   2.934   1.795   4.561  0.4285  0.3937 -0.5811
  270CLA    CLA22398   5.875   6.378   1.859  0.2946 -0.1847 -0.0635
  271CLA    CLA22399   2.320   6.744  15.167  0.4296 -0.3053 -0.1415
  272CLA    CLA22400   6.518   1.793  14.552  0.1431  0.0538 -0.3496
  273CLA    CLA22401   3.643   2.897  15.295 -0.0955  0.2358 -0.1783
  274CLA    CLA22402   0.620   3.772   4.287  0.0940 -0.1622 -0.3967
  275CLA    CLA22403   3.238   3.774   2.428  0.1463  0.4028 -0.0853
  276CLA    CLA22404   0.261   0.016   3.681 -0.0324  0.1612 -0.0287
  277CLA    CLA22405   2.635   3.608   2.329 -0.2413  0.0239 -0.3550
  278CLA    CLA22406   6.776   4.962  15.664  0.2898  0.0124 -0.0965
  279CLA    CLA22407   5.127   0.963  11.917 -0.4121  0.2531  0.1427
  280CLA    CLA22408   4.427   3.101   0.752  0.3893  0.0652 -0.3273
  281CLA    CLA22409   2.814   3.253   3.826  0.1938 -0.1524 -0.2653
  282CLA    CLA22410   0.557   6.594  14.005 -0.3809 -0.1054  0.1321
  283CLA    CLA22411   0.519   5.319   3.552 -0.3160 -0.4362 -0.1092
  284CLA    CLA22412   4.534   4.349   2.158 -0.4257 -0.1009 -0.1640
  285CLA    CLA22413   4.472   5.548  15.578  0.1586  0.0632  0.1931
  286CLA    CLA22414   6.114   1.152   1.509  0.0549  0.1018  0.1946
  287CLA    CLA22415   6.291   5.500   0.848  0.4626 -0.5376 -0.2939
  288CLA    CLA22416   4.508   3.562  13.449  0.5213  0.1965  0.1904
  289CLA    CLA22417   0.289   3.110   1.884  0.3392  0.1281 -0.0869
  290CLA    CLA22418   0.408   0.028  11.376 -0.0556  0.0625  0.0383
  291CLA    CLA22419   3.892   2.662   0.252 -0.4247  0.2782  0.1710
  292CLA    CLA22420   3.419   2.173  15.617 -0.0889  0.6949  0.2723
  293CLA    CLA22421   1.284   1.360  14.924  0.2601  0.1711  0.2559
  294CLA    CLA22422   2.127   3.264  15.694 -0.1719 -0.2348  0.2650
  295CLA    CLA22423   0.646   0.569   0.445  0.2097 -0.3670 -0.0181
  296CLA    CLA22424   2.497   4.457   0.009  0.0483 -0.1470  0.1483
  297CLA    CLA22425   2.513   0.519  12.129  0.1000  0.2117  0.3345
  298CLA    CLA22426   1.545   5.072  16.999 -0.3848  0.0278  0.0081
  299CLA    CLA22427   5.520   4.532  11.505  0.0828  0.2038  0.7639
  300CLA    CLA22428   0.062   5.974  16.346 -0.1096 -0.4090 -0.1739
  301CLA    CLA22429   6.085   5.308  13.484  0.1469 -0.4824  0.4953
  302CLA    CLA22430   5.749   1.399   4.729  0.0081  0.6099 -0.2103
  303CLA    CLA22431   5.504   5.773   2.762  0.0197 -0.1464  0.4658
  304CLA    CLA22432   4.192   6.051   4.044 -0.1835  0.0637  0.0220
  305CLA    CLA22433   2.318   0.031  14.361 -0.0048  0.4575 -0.0992
  306CLA    CLA22434   2.365   2.264  13.399 -0.0123  0.6474  0.0276
  307CLA    CLA22435   4.634   0.739  16.741 -0.1901 -0.1224  0.0969
  308CLA    CLA22436   4.279   0.609   0.564  0.2473  0.4084  0.0222
  309CLA    CLA22437   2.074   0.376   3.865 -0.3397 -0.1753  0.1336
  310CLA    CLA22438   5.977   3.955   2.753 -0.2689  0.1171  0.1876
  311CLA    CLA22439   5.620   2.680   1.155  0.0988 -0.4051  0.2398
  312CLA    CLA22440   6.391   0.074  15.825 -0.2095 -0.2853  0.2326
  313CLA    CLA22441   3.473   3.296  13.419 -0.4993 -0.0900 -0.3565
  314CLA    CLA22442   1.324   2.801  12.138 -0.0968 -0.3398 -0.2066
  315CLA    CLA22443   4.206   1.682   0.817  0.7506  0.1552  0.0066
  316CLA    CLA22444   5.598   4.454   1.293  0.1486 -0.1705 -0.1219
  317CLA    CLA22445   2.119   6.163  16.910 -0.1280  0.0401 -0.5856
  318CLA    CLA22446   6.481   3.979  15.171 -0.2008  0.4907  0.0168
  319TIP3   OH222447   4.850   0.891   5.371 -0.0731 -0.3720  0.4408
  319TIP3    H122448   4.782   0.920   5.432 -1.4860 -1.8451 -0.3765
  319TIP3    H222449   4.872   0.803   5.401 -0.8641 -1.1517 -1.2151
  320TIP3   OH222450   1.859   5.412   5.339 -0.2934  0.3492 -0.3245
  320TIP3    H122451   1.763   5.414   5.331 -0.2224 -1.4623 -1.9188
  320TIP3    H222452   1.889   5.381   5.253  1.7540  1.2771  0.0329
  321TIP3   OH222453   2.754   1.090  11.916  0.3421  0.2101 -0.2768
  321TIP3    H122454   2.696   1.041  11.858 -1.1671  0.7140  0.7684
  321TIP3    H222455   2.783   1.026  11.982 -0.5256  0.3885  0.2838
  322TIP3   OH222456   1.348   4.187   0.659 -0.6227  0.4413  0.4699
  322TIP3    H122457   1.320   4.273   0.690  1.5463  0.7569  1.5874
  322TIP3    H222458   1.350   4.196   0.563 -0.1862  1.7052  0.5895
  323TIP3   OH222459   0.114   3.898   6.227  0.7453 -0.2127 -0.0364
  323TIP3    H122460   0.025   3.885   6.193  1.3992 -1.6801 -1.2850
  323TIP3    H222461   0.109   3.979   6.278 -0.5426  1.5277 -2.7876
  324TIP3   OH222462   0.536   1.525  14.224  0.2517  0.0086  0.4648
  324TIP3    H122463   0.504   1.467  14.294  0.2206  0.4682  0.8320
  324TIP3    H222464   0.486   1.606  14.235 -0.9993 -0.4998 -1.1601
  325TIP3   OH222465   5.121   2.307   3.451  0.3326 -0.0469  0.5052
  325TIP3    H122466   5.090   2.223   3.417 -0.2468  0.5142 -0.3850
  325TIP3    H222467   5.144   2.289   3.542  2.3658 -1.6998 -0.2979
  326TIP3   OH222468   5.097   5.130   3.101 -0.0446  0.3539 -0.2808
  326TIP3    H122469   5.133   5.139   3.013 -0.6755 -2.9339 -0.9434
  326TIP3    H222470   5.003   5.113   3.087 -0.9157  3.4596  1.2152
  327TIP3   OH222471   1.854   1.530   4.087 -0.2166 -0.1266 -0.5811
  327TIP3    H122472   1.780   1.574   4.044  0.7406  0.8266 -1.2688
  327TIP3    H222473   1.905   1.493   4.014 -0.1095 -0.9550 -0.0966
  328TIP3   OH222474   3.552   5.632   4.957 -0.2503  0.8629 -0.1592
  328TIP3    H122475   3.506   5.705   4.999 -0.3608  0.7255 -0.0362
  328TIP3    H222476   3.485   5.564   4.950 -0.5796  1.3408 -1.7393
  329TIP3   OH222477   1.286   0.719   6.616  1.1507 -0.6579  0.4498
  329TIP3    H122478   1.304   0.625   6.630 -0.8119 -0.9054  1.4734
  329TIP3    H222479   1.271   0.753   6.704 -1.2442 -0.0624 -0.1444
  330TIP3   OH222480   6.236   6.257  13.866  0.8545  0.5316 -0.2072
  330TIP3    H122481   6.279   6.313  13.802 -1.6486 -0.0760 -2.5266
  330TIP3    H222482   6.152   6.301  13.882 -0.5687 -1.7981 -1.0372
  331TIP3   OH222483   3.878   0.311  15.992  0.2414  1.0844 -0.2511
  331TIP3    H122484   3.822   0.236  16.015  2.9255 -0.9695 -0.1879
  331TIP3    H222485   3.826   0.361  15.929 -1.1513 -1.5089 -1.2382
  332TIP3   OH222486   2.742   5.799  14.325 -0.1212 -0.0694  0.1585
  332TIP3    H122487   2.786   5.866  14.273  1.2761  1.0212  2.7020
  332TIP3    H222488   2.794   5.720  14.309  1.0875  0.5612  0.9033
  333TIP3   OH222489   3.319   2.445  15.878  0.2899 -0.2738 -0.3271
  333TIP3    H122490   3.334   2.483  15.964 -1.1449  1.5453 -0.8496
  333TIP3    H222491   3.405   2.415  15.850  1.5155  2.6170  0.1275
  334TIP3   OH222492   5.349   3.880   0.349  0.0433 -0.2130  0.2519
  334TIP3    H122493   5.379   3.954   0.296 -0.1247  0.1643  0.6836
  334TIP3    H222494   5.429   3.830   0.367  0.0904 -0.3849 -0.4173
  335TIP3   OH222495   2.094   4.744  16.902 -0.2200  0.7657  0.6680
  335TIP3    H122496   2.172   4.733  16.956 -0.0790 -1.0123  0.1407
  335TIP3    H222497   2.021   4.728  16.963 -0.0801 -0.4902  0.5264
  336TIP3   OH222498   1.062   4.326  15.778 -0.7757 -0.0367  0.0127
  336TIP3    H122499   0.968   4.320  15.764 -1.1409  0.7169  2.0196
  336TIP3    H222500   1.095   4.239  15.754 -2.3396 -1.1769  1.8353
  337TIP3   OH222501   2.035   3.525  15.835  0.0199  0.1837  0.1333
  337TIP3    H122502   2.054   3.451  15.777 -0.5933 -0.0183  0.1894
  337TIP3    H222503   2.055   3.602  15.782 -1.9526  0.0312 -0.8754
  338TIP3   OH222504   5.381   3.777  10.995 -0.1284 -0.2414 -0.3088
  338TIP3    H122505   5.387   3.747  10.904 -1.5148 -1.4558 -0.0191
  338TIP3    H222506   5.423   3.707  11.046  0.3125  0.2594  0.0199
  339TIP3   OH222507   2.195   2.589   0.401  0.0355 -0.3299  0.3448
  339TIP3    H122508   2.241   2.576   0.484 -1.0076 -2.4343  0.6494
  339TIP3    H222509   2.123   2.526   0.404 -0.2078 -0.2098 -2.0250
  340TIP3   OH222510   5.489   0.220   5.369  0.3915 -0.1775  0.1668
  340TIP3    H122511   5.546   0.192   5.298 -0.2217 -1.0975  0.0225
  340TIP3    H222512   5.545   0.222   5.446  1.1564  1.2364 -0.4217
  341TIP3   OH222513   1.198   1.009   2.463 -0.5999  0.0376  0.3948
  341TIP3    H122514   1.103   1.023   2.455 -0.3573  0.8194 -1.4110
  341TIP3    H222515   1.237   1.088   2.424  0.7928 -2.2011 -2.9887
  342TIP3   OH222516   0.320   4.357  11.069 -0.1449 -0.5186 -0.2395
  342TIP3    H122517   0.375   4.436  11.071  0.0732 -0.6660 -0.4247
  342TIP3    H222518   0.377   4.288  11.103 -0.5746 -0.4458  0.6297
  343TIP3   OH222519   5.847   3.306   0.145 -0.2615  0.6230 -0.2274
  343TIP3    H122520   5.828   3.389   0.189  0.0827  1.2511 -1.2597
  343TIP3    H222521   5.925   3.272   0.189  0.5592  1.6466 -0.8920
  344TIP3   OH222522   1.900   6.662   1.005  0.5963  0.0898  0.3164
  344TIP3    H122523   1.980   6.611   1.014  1.1469  0.6182 -1.3574
  344TIP3    H222524   1.837   6.602   0.964  0.6048  0.1211  0.2567
  345TIP3   OH222525   6.783   1.593   6.098 -0.2498  0.0385  0.0111
  345TIP3    H122526   6.808   1.535   6.025  0.1276  0.0377  0.1378
  345TIP3    H222527   6.710   1.644   6.064  1.2760  1.5185 -1.0957
  346TIP3   OH222528   2.045   2.804  13.872  0.0195 -0.6604  0.3096
  346TIP3    H122529   2.008   2.886  13.905  2.2584  1.0814 -1.3427
  346TIP3    H222530   2.039   2.811  13.777 -1.1759 -3.1335  0.1635
  347TIP3   OH222531   4.817   4.969   1.343 -0.1695 -0.4824 -0.2174
  347TIP3    H122532   4.770   4.965   1.426  1.6856  0.9637  0.9290
  347TIP3    H222533   4.748   4.982   1.277 -1.5718 -0.7544  1.1742
  348TIP3   OH222534   6.578   2.048  11.119 -0.2567 -0.0523 -0.3164
  348TIP3    H122535   6.552   1.958  11.099 -0.5849  0.3551 -1.7869
  348TIP3    H222536   6.591   2.088  11.034 -0.9367  1.5283  0.3071
  349TIP3   OH222537   3.553   0.810   3.362  0.6533 -0.1743  0.0195
  349TIP3    H122538   3.522   0.804   3.272  1.6016 -2.3981 -0.1895
  349TIP3    H222539   3.648   0.805   3.355  0.8649  1.9677  0.9907
  350TIP3   OH222540   5.802   0.815  12.258 -0.0466 -0.0632 -0.6955
  350TIP3    H122541   5.769   0.855  12.178  2.1687  2.0606 -0.6213
  350TIP3    H222542   5.735   0.834  12.324 -0.5881  0.5908 -1.4263
  351TIP3   OH222543   6.259   3.406   6.462  0.2284 -0.2313  0.0102
  351TIP3    H122544   6.256   3.362   6.377 -1.4569 -0.5100  0.1798
  351TIP3    H222545   6.298   3.492   6.444  1.7115 -1.0361 -0.6737
  352TIP3   OH222546   3.460   2.172  13.643  0.2554  0.0258  0.7371
  352TIP3    H122547   3.515   2.228  13.588  1.1946  1.0960  2.7084
  352TIP3    H222548   3.411   2.118  13.581  1.2368  1.2360 -1.1399
  353TIP3   OH222549   5.854   0.413   4.618 -0.2653 -0.5987  0.2192
  353TIP3    H122550   5.928   0.371   4.661  1.4648  0.4706 -1.6272
  353TIP3    H222551   5.812   0.343   4.568 -0.8234 -1.3170  1.6847
  354TIP3   OH222552   6.149   0.994  13.383  0.3088  0.4735 -0.5782
  354TIP3    H122553   6.180   0.928  13.445 -0.2229 -0.1927 -1.0145
  354TIP3    H222554   6.225   1.010  13.326  0.2349 -0.2938 -0.9119
  355TIP3   OH222555   4.087   1.575  14.218  0.0229 -0.1758 -0.1362
  355TIP3    H122556   4.054   1.661  14.245  0.0021  0.2371 -1.4827
  355TIP3    H222557   4.085   1.577  14.123  1.2120 -1.2147 -0.1915
  356TIP3   OH222558   5.774   3.261   3.210 -0.0751  0.3435 -0.5423
  356TIP3    H122559   5.838   3.275   3.140  0.7481 -0.9086 -0.0497
  356TIP3    H222560   5.777   3.343   3.261 -0.5544  1.1899 -1.8591
  357TIP3   OH222561   6.759   3.249  14.153 -0.1531 -0.1190 -0.1119
  357TIP3    H122562   6.770   3.159  14.122 -0.0369 -0.6296  1.3395
  357TIP3    H222563   6.737   3.239  14.246  0.2253  1.3693  0.1466
  358TIP3   OH222564   3.960   0.965  15.237 -0.5723  0.5678 -0.3591
  358TIP3    H122565   3.951   0.904  15.164 -1.6805  1.0432 -0.6354
  358TIP3    H222566   4.047   1.002  15.227 -0.0282 -0.7131 -0.3854
  359TIP3   OH222567   3.858   6.535  12.597  0.4793 -0.2430  0.0332
  359TIP3    H122568   3.862   6.462  12.535 -2.0288  1.0153 -1.7012
  359TIP3    H222569   3.928   6.594  12.570  1.2904 -1.0914  0.2552
  360TIP3   OH222570   2.548   3.936  14.740 -0.2870 -0.7263 -0.1896
  360TIP3    H122571   2.634   3.952  14.702 -0.9723  2.7775 -0.4052
  360TIP3    H222572   2.486   3.957  14.670 -1.4316  1.8017  1.5064
  361TIP3   OH222573   4.406   2.423   0.230  0.0708  0.0480  0.3929
  361TIP3    H122574   4.333   2.472   0.268 -0.2684  0.2521 -0.5212
  361TIP3    H222575   4.450   2.485   0.173  2.6577  0.7804  3.0448
  362TIP3   OH222576   0.557   4.688  11.678 -0.6975 -0.3981  0.3609
  362TIP3    H122577   0.573   4.773  11.718  1.2587  0.6128 -2.3706
  362TIP3    H222578   0.484   4.703  11.617  2.4412  0.5751 -3.3976
  363TIP3   OH222579   0.164   2.406  10.861 -0.0999 -0.0144  0.4487
  363TIP3    H122580   0.143   2.395  10.953 -0.5849  2.4140  0.6602
  363TIP3    H222581   0.090   2.367  10.814 -0.1672 -0.6487  1.0825
  364TIP3   OH222582   2.852   1.059  13.592  0.3766 -0.4520  0.6036
  364TIP3    H122583   2.890   1.111  13.662  0.8230 -0.4428  0.3599
  364TIP3    H222584   2.842   0.971  13.630 -0.9084 -0.0544  1.1949
  365TIP3   OH222585   6.416   4.892   3.094  0.0930 -0.0958  0.1466
  365TIP3    H122586   6.323   4.913   3.084 -0.3727 -2.2102 -0.2026
  365TIP3    H222587   6.461   4.968   3.057 -1.5091  0.4519 -0.7709
  366TIP3   OH222588   3.810   1.010   1.022 -0.3518 -0.6948  0.1027
  366TIP3    H122589   3.903   1.008   0.999 -0.3724 -1.7494  0.1177
  366TIP3    H222590   3.798   1.095   1.064  0.1741  0.2950 -1.6996
  367TIP3   OH222591   5.326   5.234  10.425 -0.6438  0.1870 -0.0853
  367TIP3    H122592   5.419   5.226  10.409 -0.4349  3.2644 -0.7120
  367TIP3    H222593   5.309   5.177  10.499  1.2845 -2.1793 -1.4203
  368TIP3   OH222594   1.668   3.301  16.009 -0.5009 -0.1230 -0.2994
  368TIP3    H122595   1.690   3.258  16.091 -1.2823  0.4221  0.2032
  368TIP3    H222596   1.740   3.279  15.950 -0.0388 -0.6805  0.4712
  369TIP3   OH222597   4.067   3.331   4.741 -0.5776  0.1641 -0.2069
  369TIP3    H122598   4.016   3.324   4.661 -0.2463 -0.8624 -0.3323
  369TIP3    H222599   4.148   3.375   4.714 -1.1640  1.3543 -0.0985
  370TIP3   OH222600   5.641   5.372   0.188 -0.1999 -0.1641  0.3253
  370TIP3    H122601   5.725   5.326   0.190 -0.6669 -1.0310  0.3454
  370TIP3    H222602   5.587   5.326   0.252 -2.2883 -2.7266 -3.0951
  371TIP3   OH222603   5.586   4.065  11.658 -0.4986 -0.4898 -0.7276
  371TIP3    H122604   5.498   4.080  11.693  0.4577  1.4795  0.9384
  371TIP3    H222605   5.589   4.117  11.578 -0.3547  0.7264  0.0496
  372TIP3   OH222606   0.023   3.703   3.344 -0.9158 -0.6421  0.6729
  372TIP3    H122607   0.118   3.696   3.357 -0.4757  0.8009 -1.6568
  372TIP3    H222608   0.010   3.681   3.252 -2.5951  1.4036  0.4068
  373TIP3   OH222609   0.199   5.931   5.581  0.2313  0.1887  0.5236
  373TIP3    H122610   0.269   5.974   5.533 -0.2399 -0.8468 -1.1404
  373TIP3    H222611   0.226   5.936   5.673  2.8052 -0.8101 -0.1421
  374TIP3   OH222612   3.763   4.685  13.265 -0.1385  0.0668 -0.3197
  374TIP3    H122613   3.821   4.656  13.196  0.6518  0.1553  0.3023
  374TIP3    H222614   3.791   4.775  13.284 -0.3633  0.0528  0.0929
  375TIP3   OH222615   5.012   4.115  14.186 -0.2990  0.1083  0.0508
  375TIP3    H122616   4.966   4.199  14.188 -0.5851  0.0286 -2.4079
  375TIP3    H222617   5.097   4.135  14.147 -0.0193 -0.5918  0.2890
  376TIP3   OH222618   1.523   4.030  15.651 -0.0607 -0.3491 -1.0837
  376TIP3    H122619   1.586   4.065  15.714  0.0233 -2.5704  0.1041
  376TIP3    H222620   1.572   4.021  15.570  0.4891  0.2255 -0.8190
  377TIP3   OH222621   5.386   5.286  11.910  0.2945 -0.3529  0.1381
  377TIP3    H122622   5.386   5.378  11.886  0.2050 -0.6971 -1.1956
  377TIP3    H222623   5.407   5.240  11.829 -2.3163 -1.6827  0.1760
  378TIP3   OH222624   3.014   0.861   1.694 -0.6029 -0.2392 -0.2720
  378TIP3    H122625   3.050   0.942   1.657  0.1234 -0.3726  0.1370
  378TIP3    H222626   2.919   0.869   1.681 -0.5868  0.9248  0.2393
  379TIP3   OH222627   2.457   4.035   1.319 -0.4108  0.3496  0.3507
  379TIP3    H122628   2.481   3.963   1.377 -0.5800  0.1303  0.1517
  379TIP3    H222629   2.490   4.008   1.233 -0.2523  0.6248  0.3241
  380TIP3   OH222630   5.072   2.073   3.338 -0.4787  0.2108  0.5569
  380TIP3    H122631   4.976   2.076   3.342 -0.5773 -0.6579 -0.9416
  380TIP3    H222632   5.095   1.999   3.395 -0.7959 -0.4449 -0.1462
  381TIP3   OH222633   4.067   0.406  15.791 -0.2661 -0.3087 -0.4099
  381TIP3    H122634   3.998   0.378  15.851 -0.4709  0.5986 -0.2115
  381TIP3    H222635   4.060   0.501  15.790  1.9451 -0.1036  0.7493
  382TIP3   OH222636   5.072   3.778   1.180 -0.2825 -0.1788 -0.5171
  382TIP3    H122637   5.117   3.815   1.104 -0.7228  3.8406  1.0888
  382TIP3    H222638   5.129   3.798   1.254 -1.5657 -0.8802  0.6819
  383TIP3   OH222639   3.880   1.141   5.060 -0.8244 -0.1607 -0.1687
  383TIP3    H122640   3.930   1.066   5.092  0.0768  1.2991  1.9420
  383TIP3    H222641   3.883   1.204   5.131 -2.2329  1.5918 -1.6105
  384TIP3   OH222642   3.520   5.527   1.726 -0.2134  0.2130 -0.8050
  384TIP3    H122643   3.490   5.465   1.792  2.2531 -0.1557  0.0122
  384TIP3    H222644   3.614   5.510   1.718  0.0523  2.2189 -2.3133
  385TIP3   OH222645   6.442   3.013  13.629 -0.3856 -0.0510  0.3858
  385TIP3    H122646   6.523   2.976  13.663  0.0701  0.0360 -0.5854
  385TIP3    H222647   6.378   2.942  13.637 -0.4769  0.1877  2.0548
  386TIP3   OH222648   6.392   1.123   2.261 -0.1064 -0.6963 -0.6413
  386TIP3    H122649   6.339   1.046   2.239 -1.4120 -0.0766  0.2979
  386TIP3    H222650   6.338   1.197   2.234 -0.5611  0.0023  2.0686
  387TIP3   OH222651   4.446   1.789  15.031 -0.3663 -0.3163  0.3243
  387TIP3    H122652   4.442   1.883  15.043 -1.7493 -0.4216  0.8329
  387TIP3    H222653   4.434   1.753  15.120 -0.4304 -0.9646  0.0573
  388TIP3   OH222654   5.393   2.207   2.313 -0.2764 -0.4632  0.0850
  388TIP3    H122655   5.377   2.143   2.245  2.4126 -1.6509  0.4919
  388TIP3    H222656   5.404   2.290   2.266 -1.0565 -0.7962 -0.6832
  389TIP3   OH222657   5.940   6.032  13.197  0.2159  0.0104 -0.2389
  389TIP3    H122658   5.960   6.040  13.290  0.8686  1.1787 -0.4716
  389TIP3    H222659   6.022   6.002  13.157  0.4819  1.3261 -0.6961
  390TIP3   OH222660   5.794   2.223   2.380  0.1651  0.4777 -0.1702
  390TIP3    H122661   5.811   2.223   2.474 -0.1841  1.1358 -0.0988
  390TIP3    H222662   5.877   2.201   2.340  0.2805  0.0601  0.3051
  391TIP3   OH222663   0.702   3.198  16.684  0.4280  0.0205 -0.6916
  391TIP3    H122664   0.731   3.289  16.693 -0.4621  0.1331  1.3593
  391TIP3    H222665   0.752   3.150  16.750  0.6726 -0.9393 -1.5619
  392TIP3   OH222666   0.669   6.062  11.164  0.4334  0.2191 -0.5699
  392TIP3    H122667   0.745   6.007  11.145  0.4580 -0.2622  0.8911
  392TIP3    H222668   0.631   6.025  11.243 -0.3799  1.4583 -0.3572
  393TIP3   OH222669   0.774   0.875   4.507  0.3536  0.2038  0.2463
  393TIP3    H122670   0.757   0.792   4.551  0.5719 -0.6113 -1.1865
  393TIP3    H222671   0.690   0.919   4.505  0.1790 -0.0962  0.7621
  394TIP3   OH222672   0.397   2.134  15.577  0.2890  0.3355  0.3800
  394TIP3    H122673   0.378   2.139  15.483 -1.5587  1.7309  0.7898
  394TIP3    H222674   0.314   2.158  15.619  1.5771  1.3955  2.3627
  395TIP3   OH222675   1.671   0.735  14.102 -0.2443  0.4511  0.0731
  395TIP3    H122676   1.746   0.771  14.148  1.0616 -1.6756 -0.3105
  395TIP3    H222677   1.684   0.640  14.106 -1.8466  0.1257 -1.7807
  396TIP3   OH222678   5.686   2.398  12.237  0.2268 -0.0118  0.5370
  396TIP3    H122679   5.644   2.477  12.271 -1.3145 -0.9007  0.7112
  396TIP3    H222680   5.629   2.368  12.166  0.1723 -1.6288  1.2434
  397TIP3   OH222681   5.833   1.316  11.044 -0.2310  0.0869 -0.2162
  397TIP3    H122682   5.828   1.230  11.003 -1.7083 -0.4455  1.0480
  397TIP3    H222683   5.855   1.376  10.972 -0.1282 -1.2021 -1.2664
  398TIP3   OH222684   0.654   5.727  11.976 -0.0240  0.1493  0.0319
  398TIP3    H122685   0.711   5.666  12.021  0.3817  1.6619  1.6180
  398TIP3    H222686   0.631   5.683  11.894  1.5026 -1.4545  0.4444
  399TIP3   OH222687   0.354   2.371   5.417 -0.5877  0.5376 -0.3036
  399TIP3    H122688   0.400   2.294   5.381  0.1777  0.6640  0.3865
  399TIP3    H222689   0.289   2.335   5.477  1.5311  0.4969  2.0443
  400TIP3   OH222690   6.224   1.037  15.836  0.8775 -0.3887  0.1469
  400TIP3    H122691   6.278   1.023  15.758  0.3665  0.4033 -0.3557
  400TIP3    H222692   6.170   0.957  15.842  0.4864 -0.1953 -0.6706
  401TIP3   OH222693   3.364   5.774   3.227 -0.0206 -0.0542 -0.5916
  401TIP3    H122694   3.348   5.753   3.135 -1.1785  0.0615 -0.4250
  401TIP3    H222695   3.278   5.800   3.260  0.6034  0.9087  0.2594
  402TIP3   OH222696   5.425   6.708   4.279  0.4254  0.1249 -0.0163
  402TIP3    H122697   5.397   6.696   4.370  0.5884 -0.2520 -0.0144
  402TIP3    H222698   5.418   6.802   4.264  0.4595  0.1964  0.4098
  403TIP3   OH222699   3.121   4.080  13.024 -0.3364  0.3137  0.0073
  403TIP3    H122700   3.170   4.090  13.105 -0.2874  0.7648 -0.0744
  403TIP3    H222701   3.187   4.060  12.958 -0.4283 -0.5135  0.1610
  404TIP3   OH222702   5.887   0.143  17.232  0.1492 -0.0555  0.3799
  404TIP3    H122703   5.869   0.147  17.326  2.1314 -0.8369  0.8067
  404TIP3    H222704   5.977   0.172  17.223 -0.0128  0.0027 -1.3033
  405TIP3   OH222705   0.426   2.648   0.059 -0.2232 -0.4562  0.0647
  405TIP3    H122706   0.436   2.631  -0.035 -0.9165 -3.5108  0.4947
  405TIP3    H222707   0.349   2.598   0.084  0.0286  0.2368  2.3038
  406TIP3   OH222708   5.635   4.276  10.976  0.3796  0.9480  0.3277
  406TIP3    H122709   5.730   4.265  10.988  0.2485 -0.8527 -0.2687
  406TIP3    H222710   5.596   4.229  11.050 -0.1109 -0.2191 -0.6733
  407TIP3   OH222711   2.677   3.527   1.449 -0.2838  0.2962 -0.0374
  407TIP3    H122712   2.771   3.509   1.451 -0.9796 -3.5983  1.9087
  407TIP3    H222713   2.663   3.586   1.523  0.2436 -1.5650  1.5935
  408TIP3   OH222714   5.731   6.360  14.280  0.0216 -0.4767  0.5779
  408TIP3    H122715   5.693   6.279  14.246  0.7503 -0.5417 -0.1050
  408TIP3    H222716   5.775   6.400  14.204  1.2864 -0.3933  1.3371
  409TIP3   OH222717   6.557   6.359   4.150  0.2546  0.4455  0.5429
  409TIP3    H122718   6.583   6.269   4.132 -0.6245  0.3553 -0.3171
  409TIP3    H222719   6.624   6.392   4.210  0.7126 -0.6997  0.6677
  410TIP3   OH222720   4.767   2.954  10.907 -0.1528 -0.4205 -0.3931
  410TIP3    H122721   4.790   2.934  10.997  1.2006  0.0181 -0.6394
  410TIP3    H222722   4.766   2.869  10.863  3.1187 -0.2636 -0.8637
  411TIP3   OH222723   4.954   3.584   5.750  0.2500  0.0454 -0.9207
  411TIP3    H122724   4.869   3.574   5.708 -1.0887 -1.3234  1.9371
  411TIP3    H222725   4.945   3.665   5.801  0.7428  0.0193 -0.7922
  412TIP3   OH222726   3.115   3.552  12.964 -0.0211 -0.5750  0.4123
  412TIP3    H122727   3.127   3.520  13.053  2.4224 -1.2731 -0.1540
  412TIP3    H222728   3.063   3.632  12.974 -0.3212 -0.9979  2.3864
  413TIP3   OH222729   4.221   2.844  12.438  0.1525  0.4965 -0.2959
  413TIP3    H122730   4.162   2.842  12.362  1.5040  1.7290 -1.4142
  413TIP3    H222731   4.298   2.794  12.410 -0.4316 -1.3609  1.2605
  414TIP3   OH222732   5.840   5.804  16.814 -0.5450 -0.3458 -0.2533
  414TIP3    H122733   5.809   5.727  16.864  0.5248 -0.7277 -0.1719
  414TIP3    H222734   5.810   5.879  16.865  0.2053 -0.7321  0.7693
  415TIP3   OH222735   5.878   3.275   5.704  0.1065  0.5414  0.1669
  415TIP3    H122736   5.963   3.240   5.680 -0.0415  0.0837  0.3011
  415TIP3    H222737   5.860   3.343   5.640  0.6286  0.7221  0.2131
  416TIP3   OH222738   4.336   4.277  12.197  0.1926  0.4590 -0.2884
  416TIP3    H122739   4.274   4.283  12.270 -0.5658  0.3458 -0.9115
  416TIP3    H222740   4.349   4.183  12.185  0.8543  0.4911  0.1403
  417TIP3   OH222741   2.127   2.552   1.163  0.0684  0.0124 -0.0261
  417TIP3    H122742   2.168   2.636   1.182 -2.8030  1.9451 -1.9893
  417TIP3    H222743   2.110   2.553   1.069 -0.1324 -2.7084 -0.0683
  418TIP3   OH222744   6.763   4.251  10.599 -0.2779  0.1105  0.2364
  418TIP3    H122745   6.688   4.288  10.550 -0.6924 -1.7853 -0.6015
  418TIP3    H222746   6.773   4.310  10.674 -0.7953  2.0431 -1.1522
  419TIP3   OH222747   0.089   3.423  12.922  0.0913  0.3876 -0.0549
  419TIP3    H122748   0.164   3.432  12.981 -0.1692 -0.7882  0.4600
  419TIP3    H222749   0.126   3.437  12.835  0.6424  1.2354  0.2968
  420TIP3   OH222750   3.490   1.182   4.773  0.3962  0.4070  0.2595
  420TIP3    H122751   3.438   1.259   4.795 -1.8171 -0.5247 -1.5462
  420TIP3    H222752   3.575   1.218   4.746 -0.3080  2.1413  0.3023
  421TIP3   OH222753   0.988   0.769   4.152 -0.0679 -0.4954  0.4392
  421TIP3    H122754   1.062   0.739   4.099  1.3260 -1.2989  2.7828
  421TIP3    H222755   1.014   0.857   4.182 -0.9284  0.0301 -0.3207
  422TIP3   OH222756   5.363   6.277   0.591  0.4209  0.2655 -0.2998
  422TIP3    H122757   5.383   6.254   0.500  0.0874 -0.2367 -0.2470
  422TIP3    H222758   5.439   6.247   0.641  0.3886  0.0993 -0.3503
  423TIP3   OH222759   1.321   4.840   1.923 -0.1229 -0.3035  0.2469
  423TIP3    H122760   1.413   4.844   1.949 -0.1484  1.6688  0.0826
  423TIP3    H222761   1.293   4.931   1.915 -1.9106 -0.8647 -0.3819
  424TIP3   OH222762   2.248   1.112   2.252 -0.4388 -0.6306 -0.3874
  424TIP3    H122763   2.236   1.193   2.202 -0.1008 -0.3567 -0.0233
  424TIP3    H222764   2.160   1.090   2.283 -0.3858  0.1260  0.3251
  425TIP3   OH222765   5.234   6.063   0.022 -0.4500 -0.0398  0.0743
  425TIP3    H122766   5.325   6.033   0.021 -0.1373  0.8536  1.2944
  425TIP3    H222767   5.190   6.008  -0.044  0.9896 -0.3860 -0.6174
  426TIP3   OH222768   4.320   4.640   0.409 -0.4065 -0.3502 -0.1097
  426TIP3    H122769   4.346   4.568   0.466 -0.3767  0.8203  1.3934
  426TIP3    H222770   4.387   4.641   0.341 -0.3418 -1.6639 -0.0884
  427TIP3   OH222771   0.236   5.829  14.607 -0.3875  0.1130 -0.4521
  427TIP3    H122772   0.284   5.850  14.527  0.2053 -0.3621 -0.2282
  427TIP3    H222773   0.291   5.862  14.678 -0.8440  0.4063 -0.2280
  428TIP3   OH222774   6.588   6.604  12.620 -0.1789 -0.3890  0.4274
  428TIP3    H122775   6.550   6.518  12.637  1.5517 -1.4091 -0.6464
  428TIP3    H222776   6.555   6.629  12.534  0.8694 -0.8869 -0.1277
  429TIP3   OH222777   0.947   2.692  15.219 -0.0784 -0.1709  0.3347
  429TIP3    H122778   1.016   2.756  15.237 -0.3913  0.4924 -0.7367
  429TIP3    H222779   0.956   2.673  15.126 -0.1394 -1.5217  0.6013
  430TIP3   OH222780   0.433   5.408  16.481 -0.4361  0.6293  0.5254
  430TIP3    H122781   0.412   5.485  16.428  0.8958  0.8431  0.3071
  430TIP3    H222782   0.375   5.416  16.557 -0.5026  1.6977  0.3704
  431TIP3   OH222783   2.308   5.854   2.107 -0.1302  0.5267  0.3465
  431TIP3    H122784   2.262   5.811   2.180  0.0863 -1.5333 -0.7085
  431TIP3    H222785   2.253   5.930   2.087  0.2297  1.5933  3.1706
  432TIP3   OH222786   2.781   3.937  16.551  0.3595  0.0224 -0.1390
  432TIP3    H122787   2.838   4.000  16.507  2.3294 -0.8761  1.0703
  432TIP3    H222788   2.804   3.944  16.644 -2.4914  0.6189  0.5819
  433TIP3   OH222789   6.450   6.042   2.000 -0.4693  0.4447  0.1347
  433TIP3    H122790   6.498   5.980   2.054 -0.9068  1.3136  1.5558
  433TIP3    H222791   6.404   5.988   1.936 -0.0270 -0.6209  0.7057
  434TIP3   OH222792   0.839   1.133  15.925  0.3380  0.6810 -0.1032
  434TIP3    H122793   0.871   1.195  15.860 -1.3948  1.4462 -0.2551
  434TIP3    H222794   0.761   1.094  15.886 -1.3030  1.8801  1.8835
  435TIP3   OH222795   0.419   2.091  14.568  0.5795 -0.3927 -0.0151
  435TIP3    H122796   0.482   2.091  14.640 -2.2029  0.8554  2.5298
  435TIP3    H222797   0.345   2.142  14.601 -1.7747 -1.7877 -2.8995
  436TIP3   OH222798   5.776   5.657   2.905 -0.4707  0.4212 -0.0573
  436TIP3    H122799   5.710   5.650   2.836  0.0214  2.0518 -0.7142
  436TIP3    H222800   5.726   5.645   2.986 -0.9360 -2.2460 -0.6707
  437TIP3   OH222801   1.495   4.809   1.052  0.5527 -0.0932  0.5394
  437TIP3    H122802   1.451   4.892   1.034 -1.9917 -1.0096  2.4013
  437TIP3    H222803   1.580   4.817   1.007  0.3260  3.4570  0.6494
  438TIP3   OH222804   1.239   4.200   1.549 -0.0501 -0.0053  0.2624
  438TIP3    H122805   1.166   4.248   1.510  1.4940  2.0375 -0.2480
  438TIP3    H222806   1.213   4.187   1.640 -0.4540  1.9787  0.4526
  439TIP3   OH222807   1.968   3.823   1.613  0.9953 -0.3344  0.2404
  439TIP3    H122808   1.912   3.870   1.674  0.9275 -0.8611  0.5870
  439TIP3    H222809   1.915   3.749   1.583  0.8758  0.1589 -0.7809
  440TIP3   OH222810   0.755   3.536  16.981 -0.2138 -0.1782 -0.2662
  440TIP3    H122811   0.773   3.448  17.016  1.8556  1.3997  2.8593
  440TIP3    H222812   0.660   3.547  16.992 -0.1941 -1.2610  1.1128
  441TIP3   OH222813   3.513   2.716   2.965  0.6214  0.0836  0.2152
  441TIP3    H122814   3.481   2.766   3.040  1.7559 -2.0642  2.1933
  441TIP3    H222815   3.433   2.690   2.918 -0.1018  1.2240  0.7882
  442TIP3   OH222816   1.397   3.002  16.856  0.0525 -0.0811  0.4802
  442TIP3    H122817   1.416   3.039  16.769  3.1373 -1.7104  0.4185
  442TIP3    H222818   1.304   2.977  16.851 -0.3860  1.7563 -1.6150
  443TIP3   OH222819   4.527   6.386   5.823  0.1483  0.0356 -0.0641
  443TIP3    H122820   4.504   6.374   5.730  0.9990 -1.3791 -0.1015
  443TIP3    H222821   4.442   6.395   5.867 -0.2556  1.2072 -1.0217
  444TIP3   OH222822   6.363   5.756  11.182  0.1591  0.6365 -0.3658
  444TIP3    H122823   6.382   5.815  11.255 -0.9601  0.8209 -0.2217
  444TIP3    H222824   6.360   5.669  11.221  1.2017  0.5344 -0.4773
  445TIP3   OH222825   3.692   1.033  15.378  0.6329  0.2144  0.4282
  445TIP3    H122826   3.710   1.118  15.418 -0.3818  1.5814 -1.8958
  445TIP3    H222827   3.775   1.006  15.340  1.0410 -0.0074  1.4612
  446TIP3   OH222828   1.353   3.485   0.497 -0.1295  0.6430 -0.5778
  446TIP3    H122829   1.315   3.511   0.413 -0.1717  0.7195 -0.5343
  446TIP3    H222830   1.291   3.421   0.532  0.3449 -0.0881 -1.0339
  447TIP3   OH222831   4.766   6.127   2.676  0.0670  0.5428  0.1534
  447TIP3    H122832   4.809   6.209   2.701 -0.3408  0.5227  0.9182
  447TIP3    H222833   4.717   6.149   2.597  0.6899  0.8053 -0.1658
  448TIP3   OH222834   1.648   1.797   0.242 -0.0225 -0.2273 -0.2723
  448TIP3    H122835   1.677   1.884   0.270  0.4023  0.0831 -1.6715
  448TIP3    H222836   1.721   1.762   0.193 -0.1584 -1.4310  0.3743
  449TIP3   OH222837   1.333   6.704  15.610 -0.3123 -0.1868  0.6297
  449TIP3    H122838   1.370   6.618  15.593 -0.1473 -0.1724  0.9265
  449TIP3    H222839   1.303   6.734  15.524 -0.1804 -0.4487  0.4927
  450TIP3   OH222840   2.179   6.578   1.572 -0.8360  0.0216  0.5517
  450TIP3    H122841   2.139   6.625   1.499 -0.7885  2.2385  1.9071
  450TIP3    H222842   2.273   6.574   1.551 -0.4112  3.0202  1.7026
  451TIP3   OH222843   1.051   3.168  11.805 -0.5631 -0.0150 -0.7323
  451TIP3    H122844   1.144   3.175  11.787 -0.7767  0.8528 -1.5404
  451TIP3    H222845   1.011   3.157  11.718 -0.9373 -3.7990 -0.1942
  452TIP3   OH222846   1.456   2.836  14.088 -0.3461 -0.3059 -0.6188
  452TIP3    H122847   1.433   2.746  14.113 -2.5949  0.8926  1.8561
  452TIP3    H222848   1.450   2.886  14.169  0.3429  2.2078 -2.0511
  453TIP3   OH222849   6.657   1.578  15.595  0.6026  0.3562 -0.0702
  453TIP3    H122850   6.725   1.572  15.527  0.4865 -1.6463 -0.0375
  453TIP3    H222851   6.591   1.636  15.558  0.6850 -0.4709 -1.5408
  454TIP3   OH222852   6.291   3.256  11.123 -0.2286  0.2114 -0.3944
  454TIP3    H122853   6.331   3.339  11.149  0.1536 -0.2452  0.5062
  454TIP3    H222854   6.338   3.190  11.174 -1.8102 -0.3855  0.3483
  455TIP3   OH222855   1.589   5.924  11.371 -0.3586 -0.6562 -0.3640
  455TIP3    H122856   1.511   5.966  11.406 -0.1792 -0.8818  0.3144
  455TIP3    H222857   1.555   5.854  11.314 -0.6582 -1.3925  0.7002
  456TIP3   OH222858   0.134   2.926   3.467  0.1579 -0.0767  0.8959
  456TIP3    H122859   0.078   2.933   3.390 -0.4528 -0.1497  1.3293
  456TIP3    H222860   0.223   2.941   3.434  0.0694 -1.6272 -0.0642
  457TIP3   OH222861   1.634   3.642  15.013 -0.2438  0.5193 -0.6264
  457TIP3    H122862   1.638   3.561  14.963  1.1075  1.0439 -1.4006
  457TIP3    H222863   1.658   3.710  14.950  0.4925  1.3062  0.4973
  458TIP3   OH222864   3.621   5.188  16.322 -0.4028 -0.5670 -0.6528
  458TIP3    H122865   3.659   5.255  16.263 -0.7672 -0.2778 -0.5601
  458TIP3    H222866   3.588   5.238  16.396  0.8011 -1.0182  0.1905
  459TIP3   OH222867   3.594   3.904  14.362  0.1315  0.1493  0.5616
  459TIP3    H122868   3.508   3.922  14.399 -0.5110 -0.0070 -0.8135
  459TIP3    H222869   3.649   3.881  14.437 -1.0911  0.0137  1.4170
  460TIP3   OH222870   3.212   1.212  11.231  0.1381  0.4907  0.1348
  460TIP3    H122871   3.262   1.158  11.170 -0.6149 -0.3401  0.2342
  460TIP3    H222872   3.215   1.300  11.194  1.4581  0.3996  0.0181
  461TIP3   OH222873   5.729   0.374  17.102  0.1377  0.2236 -0.3025
  461TIP3    H122874   5.735   0.424  17.183 -0.9861  0.7824 -0.5512
  461TIP3    H222875   5.778   0.294  17.120 -0.0326  0.3779  0.9069
  462TIP3   OH222876   2.279   1.952   6.871  0.6076  0.6021 -0.1317
  462TIP3    H122877   2.304   2.029   6.821  0.7294  0.2816 -0.5760
  462TIP3    H222878   2.339   1.883   6.840 -2.1529 -0.7534 -2.8091
  463TIP3   OH222879   1.416   2.451   2.683 -0.0289 -0.3908  0.0174
  463TIP3    H122880   1.354   2.524   2.673 -0.6445 -0.9843 -0.5300
  463TIP3    H222881   1.499   2.494   2.705 -0.3707  0.4894 -0.3563
  464TIP3   OH222882   0.800   0.172   4.234  0.1779  0.1044  0.7643
  464TIP3    H122883   0.802   0.263   4.202 -0.7623 -0.0700  0.1705
  464TIP3    H222884   0.716   0.166   4.281 -0.6093 -0.9497 -0.7366
  465TIP3   OH222885   5.394   0.156  12.317  0.3660 -0.8309 -0.1049
  465TIP3    H122886   5.390   0.242  12.274  0.4930 -0.2612  0.9888
  465TIP3    H222887   5.306   0.120  12.305  0.7734 -1.2479 -1.9537
  466TIP3   OH222888   5.842   5.943  15.580  0.0923  0.0038 -0.6239
  466TIP3    H122889   5.827   5.868  15.521 -0.4778  1.6823 -2.6985
  466TIP3    H222890   5.894   5.907  15.652 -0.1665 -2.3898 -1.5783
  467TIP3   OH222891   4.364   1.172   5.491  0.2881  0.4953 -0.4199
  467TIP3    H122892   4.280   1.216   5.477  1.2022  2.2791 -0.5095
  467TIP3    H222893   4.346   1.105   5.557 -1.8663 -1.3037 -2.7730
  468TIP3   OH222894   3.371   3.714  12.436 -0.2151 -0.6737 -0.5400
  468TIP3    H122895   3.341   3.803  12.453 -0.0508 -1.1737  2.7350
  468TIP3    H222896   3.462   3.713  12.466  0.3034 -1.5420 -2.0634
  469TIP3   OH222897   6.349   6.637  10.399 -0.1751  0.2005  0.1001
  469TIP3    H122898   6.289   6.585  10.346 -1.3165 -0.6369  2.1729
  469TIP3    H222899   6.293   6.705  10.438  0.6189  0.7078  0.3610
  470TIP3   OH222900   5.290   2.940  13.271  0.2781 -0.5293  0.0896
  470TIP3    H122901   5.248   2.987  13.199  0.4018 -1.3186 -0.5059
  470TIP3    H222902   5.310   3.008  13.336 -0.3521  0.0990 -0.3705
  471TIP3   OH222903   0.346   1.301   0.821  0.0107  0.8918  0.1239
  471TIP3    H122904   0.383   1.374   0.772  0.5346  1.8311  1.8965
  471TIP3    H222905   0.412   1.232   0.816 -0.8776  0.1455 -2.3495
  472TIP3   OH222906   6.729   4.005  16.321  0.3874 -0.0834  0.1882
  472TIP3    H122907   6.641   4.040  16.333  0.2802 -0.2852  0.0012
  472TIP3    H222908   6.736   3.934  16.384  0.2256 -0.4155 -0.1698
  473TIP3   OH222909   5.732   3.391   0.432  0.0403 -0.2416 -0.0689
  473TIP3    H122910   5.790   3.455   0.390 -0.2983  0.4615  0.5387
  473TIP3    H222911   5.721   3.424   0.521 -3.1815  0.9096 -0.8325
  474TIP3   OH222912   6.639   6.581   5.201  0.2017  0.1732 -0.3108
  474TIP3    H122913   6.629   6.491   5.232 -0.2879  0.6466  0.9382
  474TIP3    H222914   6.615   6.635   5.276  0.3778  1.3495 -1.0872
  475TIP3   OH222915   0.235   1.257   2.873 -0.3444 -0.1163  0.2476
  475TIP3    H122916   0.157   1.313   2.879 -0.4719 -0.1919 -0.6493
  475TIP3    H222917   0.294   1.291   2.941 -0.7111  0.6590  0.1880
  476TIP3   OH222918   1.918   6.581  16.486 -0.2953 -0.2881  0.4082
  476TIP3    H122919   1.883   6.546  16.568 -0.1182  0.4815  0.8219
  476TIP3    H222920   2.001   6.536  16.474  0.4706  0.8057  1.5301
  477TIP3   OH222921   1.570   0.340  17.067 -0.3330  0.7703  0.4854
  477TIP3    H122922   1.645   0.285  17.045 -0.8958  0.3296 -0.3668
  477TIP3    H222923   1.543   0.378  16.984 -1.4642  0.4073  0.6829
  478TIP3   OH222924   0.934   1.628  12.837 -0.0852 -0.2560 -0.3883
  478TIP3    H122925   0.892   1.577  12.906 -0.7131 -0.6466 -1.0503
  478TIP3    H222926   0.907   1.718  12.854  2.7137  0.2061  2.0268
  479TIP3   OH222927   6.814   6.708  16.030 -0.2210 -0.1974  0.0899
  479TIP3    H122928   6.737   6.761  16.051 -0.5324 -0.6145  0.0099
  479TIP3    H222929   6.779   6.636  15.978  0.3586  0.1075 -0.7218
  480TIP3   OH222930   0.306   0.943  13.390  0.5682 -0.0483 -0.4020
  480TIP3    H122931   0.388   0.991  13.401  1.3122 -1.1874 -0.9080
  480TIP3    H222932   0.243   0.991  13.444  1.5177  0.9531 -0.1684
  481TIP3   OH222933   0.671   0.232  15.727  0.4202  0.3807  0.1731
  481TIP3    H122934   0.611   0.250  15.800  0.2403 -1.4507  0.5001
  481TIP3    H222935   0.726   0.310  15.722  0.9363  0.2399  2.7711
  482TIP3   OH222936   4.184   0.945   2.354  0.5316  0.0252 -0.1229
  482TIP3    H122937   4.142   0.924   2.437  0.5515  2.1504  0.4498
  482TIP3    H222938   4.151   0.880   2.293 -0.7809 -0.5282  1.1613
  483TIP3   OH222939   6.745   0.319   3.272 -0.1353  0.1686  0.2691
  483TIP3    H122940   6.760   0.274   3.354  1.5312  2.3105  1.1889
  483TIP3    H222941   6.672   0.272   3.231  1.8928 -3.6944  0.8670
  484TIP3   OH222942   2.210   4.512  16.449 -0.2516 -0.1936 -0.0352
  484TIP3    H122943   2.164   4.570  16.510  0.6893 -1.3244  1.8069
  484TIP3    H222944   2.272   4.465  16.504 -0.2042 -2.1192 -1.6913
  485TIP3   OH222945   5.348   5.170   2.978 -0.1878  0.0013 -0.0934
  485TIP3    H122946   5.395   5.253   2.973  1.8997 -1.2272 -1.4531
  485TIP3    H222947   5.355   5.144   3.070  1.0795  0.2560 -0.1083
  486TIP3   OH222948   4.261   4.475   2.194  0.2984 -0.0786 -0.0851
  486TIP3    H122949   4.357   4.470   2.191  0.2998  0.4523 -0.9277
  486TIP3    H222950   4.240   4.458   2.286  1.2204  0.1500  0.1769
  487TIP3   OH222951   5.530   0.672   4.409  0.0841  0.0924 -1.0501
  487TIP3    H122952   5.537   0.578   4.394  2.4683  0.0517  0.1814
  487TIP3    H222953   5.598   0.710   4.353  0.4584  0.9065 -0.0552
  488TIP3   OH222954   2.020   5.147  14.054 -0.3880  0.9306 -0.0529
  488TIP3    H122955   2.024   5.164  13.960  2.4335 -1.0199 -0.3322
  488TIP3    H222956   2.065   5.222  14.094  0.3840  0.6568 -0.4060
  489TIP3   OH222957   4.379   3.977  14.359 -0.6020 -0.3141 -0.1683
  489TIP3    H122958   4.319   3.932  14.299 -2.0543  1.1072  0.1702
  489TIP3    H222959   4.322   4.007  14.430  0.6033  0.6874  0.3827
  490TIP3   OH222960   5.102   2.297   6.542  0.0851  0.3474 -0.4744
  490TIP3    H122961   5.085   2.292   6.447 -0.2173 -0.0333 -0.4012
  490TIP3    H222962   5.023   2.261   6.582  0.4848 -0.1187 -0.0942
  491TIP3   OH222963   1.890   6.416  15.575 -0.2895 -0.0054  0.4047
  491TIP3    H122964   1.804   6.457  15.582 -0.9126 -1.4266  1.2484
  491TIP3    H222965   1.948   6.471  15.627 -0.4196  1.6237 -1.1279
  492TIP3   OH222966   5.523   0.077  14.726 -0.0050  0.0998  0.0593
  492TIP3    H122967   5.518   0.089  14.821  1.2561 -0.2040  0.1791
  492TIP3    H222968   5.615   0.057  14.710 -0.1057  0.6991 -1.3003
  493TIP3   OH222969   2.943   5.768   0.590  0.5033  0.1076  0.3540
  493TIP3    H122970   2.880   5.830   0.553  1.1938  0.0591 -0.9363
  493TIP3    H222971   2.914   5.682   0.557 -1.0590 -0.4380  2.9590
  494TIP3   OH222972   1.177   3.047   1.302 -0.0628 -0.5848 -0.0274
  494TIP3    H122973   1.173   3.037   1.207 -1.2603  3.5709 -0.4837
  494TIP3    H222974   1.086   3.045   1.331  0.2349 -0.8666  0.9409
  495TIP3   OH222975   1.193   0.509  12.488  0.2411 -0.2322 -0.0728
  495TIP3    H122976   1.267   0.485  12.433  0.2531  0.6000 -0.4410
  495TIP3    H222977   1.200   0.454  12.565  0.6362 -0.9054 -0.5894
  496TIP3   OH222978   0.926   0.320   3.716  0.1026  0.1351 -0.6813
  496TIP3    H122979   0.845   0.285   3.678  0.9899 -1.5887 -1.0124
  496TIP3    H222980   0.966   0.370   3.644  0.0706 -0.2373 -0.9577
  497TIP3   OH222981   3.424   4.817   3.942 -0.4472  0.1805  0.4653
  497TIP3    H122982   3.372   4.739   3.924  0.3312 -0.4375  0.8332
  497TIP3    H222983   3.360   4.887   3.956 -1.1469 -0.3932  0.1384
  498TIP3   OH222984   0.081   2.904  13.810 -0.0721  0.3673 -1.1390
  498TIP3    H122985   0.125   2.823  13.786  2.5149  0.9879  1.2813
  498TIP3    H222986   0.117   2.969  13.749  0.8400  0.4557 -0.5181
  499TIP3   OH222987   5.564   6.488  15.596 -0.5777 -0.3293 -0.2909
  499TIP3    H122988   5.481   6.442  15.611  0.1245 -2.1654 -1.7702
  499TIP3    H222989   5.562   6.511  15.503 -0.5679  1.9805  0.2728
  500TIP3   OH222990   1.255   1.285  16.841  0.5952  0.0843  0.4191
  500TIP3    H122991   1.191   1.275  16.912 -1.4990 -0.0945 -1.4548
  500TIP3    H222992   1.321   1.344  16.877 -1.7726  2.0592  1.6751
  501TIP3   OH222993   1.775   3.364  13.055  0.3706 -0.0709  0.6838
  501TIP3    H122994   1.721   3.443  13.057  1.7153  0.8658  0.5002
  501TIP3    H222995   1.744   3.317  12.977 -0.8667 -0.0498  1.1499
  502TIP3   OH222996   0.365   6.777  14.202 -0.0846  0.4278  0.0834
  502TIP3    H122997   0.411   6.729  14.134  0.1205 -0.8752  1.1303
  502TIP3    H222998   0.430   6.838  14.237  0.8022 -1.1899  1.3456
  503TIP3   OH222999   6.628   2.436  15.385  0.0084  0.2227  0.8285
  503TIP3    H123000   6.537   2.464  15.398  0.1831  0.9220  0.5654
  503TIP3    H223001   6.640   2.439  15.290  0.8579  1.8772  0.9827
  504TIP3   OH223002   3.492   6.250   6.444  0.3029  0.0473 -0.5127
  504TIP3    H123003   3.556   6.189   6.480 -0.4267 -0.4936 -0.1389
  504TIP3    H223004   3.520   6.336   6.476 -1.1533 -0.5664  2.5497
  505TIP3   OH223005   1.355   5.249  14.743  0.0716  0.1022  0.1888
  505TIP3    H123006   1.437   5.298  14.741 -0.8492  1.6479 -0.0459
  505TIP3    H223007   1.287   5.315  14.733 -1.0936 -1.5559 -3.8331
  506TIP3   OH223008   3.999   5.069   4.160  0.1335 -0.2397 -0.2940
  506TIP3    H123009   3.929   5.133   4.167  0.3861  0.2348 -1.8578
  506TIP3    H223010   3.960   4.997   4.110  0.2065 -0.7873  0.4351
  507TIP3   OH223011   5.028   5.069   5.237 -0.0099 -0.2922 -0.3701
  507TIP3    H123012   5.099   5.005   5.235  0.4472  0.1828  0.4475
  507TIP3    H223013   4.957   5.026   5.190 -0.3803 -2.2060  1.8247
  508TIP3   OH223014   3.964   6.649  11.003  0.0985  0.2289 -0.3777
  508TIP3    H123015   4.055   6.638  10.975  0.0743  0.0627 -0.3930
  508TIP3    H223016   3.947   6.574  11.061  0.5621  1.2851  1.1537
  509TIP3   OH223017   1.979   1.308  11.207 -0.2491  0.0828 -0.4146
  509TIP3    H123018   2.052   1.285  11.265  0.8395  1.2370 -1.2860
  509TIP3    H223019   2.017   1.303  11.119 -1.7349 -1.1248 -1.0130
  510TIP3   OH223020   0.814   5.635   2.001 -0.1310  0.1833  0.5529
  510TIP3    H123021   0.829   5.728   1.984 -1.3679  0.6379  1.8811
  510TIP3    H223022   0.898   5.603   2.033 -0.0693  1.1742  1.4264
  511TIP3   OH223023   5.939   5.318  16.684  0.1756  0.0406  0.2299
  511TIP3    H123024   6.030   5.308  16.656  0.1601 -0.0200  0.2001
  511TIP3    H223025   5.909   5.398  16.641  0.5551  0.6710  1.1255
  512TIP3   OH223026   3.692   5.823   5.761  0.5424 -0.5887  0.4253
  512TIP3    H123027   3.785   5.845   5.761  0.6392 -0.9851  1.3855
  512TIP3    H223028   3.657   5.866   5.839  0.0877 -1.1550  0.5368
  513TIP3   OH223029   1.142   4.163  11.148 -0.0639  0.3094 -0.0664
  513TIP3    H123030   1.137   4.200  11.060 -1.7301  0.9714  0.2784
  513TIP3    H223031   1.158   4.070  11.135 -1.1551  0.2590 -1.0975
  514TIP3   OH223032   3.091   5.408   2.733 -0.1587 -0.1021  0.3386
  514TIP3    H123033   3.036   5.486   2.734  0.5920  0.4479  1.8708
  514TIP3    H223034   3.062   5.358   2.658 -1.2708  1.2281 -0.1307
  515TIP3   OH223035   1.955   4.148  15.476  0.3795 -0.0690 -0.4722
  515TIP3    H123036   1.893   4.181  15.540 -1.0720 -1.0880 -1.3276
  515TIP3    H223037   2.014   4.091  15.526 -0.2153 -0.1846  0.0905
  516TIP3   OH223038   4.838   4.328   0.123  0.4196  0.1402 -0.5513
  516TIP3    H123039   4.868   4.306   0.211  1.7093  0.4989 -0.8916
  516TIP3    H223040   4.773   4.397   0.137 -2.0322 -2.2500  0.3588
  517TIP3   OH223041   2.840   5.691   1.780  0.1717  0.8455 -0.6841
  517TIP3    H123042   2.829   5.654   1.867  1.3112  0.1003 -0.8436
  517TIP3    H223043   2.934   5.699   1.769 -0.0171  2.7550 -1.1071
  518TIP3   OH223044   0.288   6.800  15.664 -0.1821  0.1704  0.1430
  518TIP3    H123045   0.314   6.891  15.675  0.1906  0.1554 -0.5834
  518TIP3    H223046   0.265   6.793  15.571 -0.2238 -0.4643  0.2010
  519TIP3   OH223047   3.385   1.372   5.159 -0.1230  0.0160 -0.1174
  519TIP3    H123048   3.311   1.357   5.219 -1.7062 -0.2208 -2.0770
  519TIP3    H223049   3.451   1.309   5.186 -1.4048 -1.1326  0.4240
  520TIP3   OH223050   4.176   4.236   1.499  0.3258  0.0413 -0.0833
  520TIP3    H123051   4.270   4.252   1.512 -0.1410  2.2577  0.8870
  520TIP3    H223052   4.147   4.197   1.582  0.2865 -0.1362 -0.1807
  521TIP3   OH223053   4.632   5.256   1.750 -0.0743  0.0621 -0.7155
  521TIP3    H123054   4.641   5.318   1.822  0.2215 -0.9138  0.0970
  521TIP3    H223055   4.696   5.284   1.685  0.5227  0.1947 -0.0657
  522TIP3   OH223056   1.685   1.672   1.008 -0.1193 -0.0127 -0.2276
  522TIP3    H123057   1.687   1.730   1.084 -1.9396  0.3182 -0.4103
  522TIP3    H223058   1.607   1.699   0.959 -0.1541 -1.6186 -1.0964
  523TIP3   OH223059   5.379   4.131   4.258  0.1953 -0.3345  0.2035
  523TIP3    H123060   5.357   4.039   4.269  0.3382 -0.5005 -0.7918
  523TIP3    H223061   5.352   4.152   4.168 -0.8469  0.8859  0.7833
  524TIP3   OH223062   3.636   5.265   5.626  0.0260  0.4267  0.4659
  524TIP3    H123063   3.721   5.249   5.584 -1.2145  0.4740 -2.1534
  524TIP3    H223064   3.626   5.194   5.689  1.0446 -0.8266 -0.7550
  525TIP3   OH223065   1.048   1.292  16.183 -1.1743 -0.6686  0.3241
  525TIP3    H123066   1.010   1.378  16.203 -2.1394 -1.2594  1.0954
  525TIP3    H223067   0.980   1.249  16.130  0.3094 -0.0603 -2.1794
  526TIP3   OH223068   2.218   6.094  13.086 -0.0485  0.2426 -0.3928
  526TIP3    H123069   2.291   6.151  13.063 -0.6132  0.0504 -2.8029
  526TIP3    H223070   2.258   6.017  13.125  0.8402  1.4113  1.0413
  527TIP3   OH223071   5.296   6.056   1.858 -0.6593  0.0398 -0.3148
  527TIP3    H123072   5.377   6.027   1.815  0.2142 -1.4484  2.2580
  527TIP3    H223073   5.228   6.041   1.792  0.3614 -4.0890 -0.6017
  528TIP3   OH223074   0.616   6.212  12.847 -0.1445 -0.4335  0.0156
  528TIP3    H123075   0.627   6.300  12.883  1.2985  0.2084 -1.8994
  528TIP3    H223076   0.702   6.171  12.857 -0.7181 -1.5161  0.5989
  529TIP3   OH223077   2.334   2.903  10.956 -0.2022 -0.4535  0.1618
  529TIP3    H123078   2.257   2.945  10.995  0.1722 -0.1870  0.6109
  529TIP3    H223079   2.299   2.857  10.879 -0.2258  2.7260 -1.8098
  530TIP3   OH223080   3.450   0.477   5.927  0.2991  0.1996 -0.3597
  530TIP3    H123081   3.456   0.414   5.855 -0.2369 -0.6582  0.3450
  530TIP3    H223082   3.379   0.444   5.982  0.7200  0.8435  0.5690
  531TIP3   OH223083   3.441   5.971   4.759  0.2294  0.6979  0.1557
  531TIP3    H123084   3.365   5.912   4.755 -0.3545  1.5160 -1.4814
  531TIP3    H223085   3.427   6.022   4.838 -1.6408  1.7377 -0.7967
  532TIP3   OH223086   4.076   5.365  13.443  0.2131  0.4693 -0.1166
  532TIP3    H123087   4.134   5.315  13.385 -1.6534 -0.8712 -0.8767
  532TIP3    H223088   4.129   5.382  13.521  1.5672 -0.8997 -0.7134
  533TIP3   OH223089   4.362   4.373   5.592  0.0874 -0.0344 -0.1458
  533TIP3    H123090   4.375   4.287   5.552  0.0092  0.3516 -1.0044
  533TIP3    H223091   4.322   4.427   5.523  1.5020  1.1109 -0.1033
  534TIP3   OH223092   5.463   2.743   0.027  0.5305  0.5277  0.1655
  534TIP3    H123093   5.495   2.804   0.092  0.5221 -1.2888  1.9192
  534TIP3    H223094   5.517   2.665   0.038  0.8282  0.3205 -2.2991
  535TIP3   OH223095   0.626   5.632   4.439  0.7323  0.2311 -0.1782
  535TIP3    H123096   0.641   5.641   4.533  1.1389 -0.0168 -0.2170
  535TIP3    H223097   0.588   5.715   4.412 -0.2041 -0.0123  0.3666
  536TIP3   OH223098   0.057   6.621   5.786  0.4433  0.0627 -0.0077
  536TIP3    H123099  -0.023   6.573   5.810  0.0465  0.4536 -0.5464
  536TIP3    H223100   0.114   6.555   5.747  0.4489 -0.2508  0.5315
  537TIP3   OH223101   4.967   3.635  14.670 -0.2212 -0.1090 -0.2998
  537TIP3    H123102   4.933   3.654  14.582  1.0499  0.4111 -0.6990
  537TIP3    H223103   4.910   3.567  14.703 -0.5434 -0.5262 -1.6574
  538TIP3   OH223104   3.311   4.353   2.513 -0.1048  0.1157 -0.1169
  538TIP3    H123105   3.378   4.297   2.472 -0.6236 -0.7693  0.2335
  538TIP3    H223106   3.345   4.369   2.601  2.0465  3.7530 -1.4811
  539TIP3   OH223107   4.636   6.360  14.791 -0.1028 -0.9783  0.0704
  539TIP3    H123108   4.601   6.429  14.735  0.4217 -2.3373 -2.0139
  539TIP3    H223109   4.567   6.344  14.856 -0.6073  0.8163 -0.0050
  540TIP3   OH223110   1.105   1.548  13.732 -0.0838  0.3131 -0.1169
  540TIP3    H123111   1.200   1.546  13.747  0.3134  2.2252 -2.0858
  540TIP3    H223112   1.070   1.598  13.805  0.3767 -0.6834  0.8007
  541TIP3   OH223113   0.320   5.173  11.279 -0.0136 -0.2791 -0.5754
  541TIP3    H123114   0.413   5.199  11.279 -0.0827  0.0624  1.3149
  541TIP3    H223115   0.273   5.254  11.298 -0.3773 -1.2704  3.1294
  542TIP3   OH223116   3.766   1.185   2.578 -0.1814  0.1990 -0.2728
  542TIP3    H123117   3.728   1.099   2.599 -0.1337  0.0838 -0.6476
  542TIP3    H223118   3.693   1.246   2.586  0.5489  0.6590  3.4555
  543TIP3   OH223119   0.536   1.003   2.485  0.4677  0.2089 -0.1849
  543TIP3    H123120   0.555   0.909   2.495  0.0527 -0.0487 -1.7511
  543TIP3    H223121   0.622   1.043   2.473  0.6660  0.0622  0.7257
  544TIP3   OH223122   2.191   0.547  14.722  0.0091 -0.5574 -0.1235
  544TIP3    H123123   2.182   0.531  14.628 -0.3548 -1.3848  0.0468
  544TIP3    H223124   2.160   0.467  14.763  1.9427 -0.9417  0.6588
  545TIP3   OH223125   2.708   2.693  14.819 -0.2004 -0.1742  0.4804
  545TIP3    H123126   2.737   2.614  14.774 -0.3126 -0.6750  1.2839
  545TIP3    H223127   2.679   2.663  14.905 -1.6225  0.5215  0.2692
  546TIP3   OH223128   4.708   1.818  15.225  0.2377  0.2983 -0.4340
  546TIP3    H123129   4.723   1.813  15.130  0.5330  0.2263 -0.3850
  546TIP3    H223130   4.657   1.897  15.237 -0.8036 -0.3167 -0.7846
  547TIP3   OH223131   5.447   5.412   2.957  0.4576  0.0561  0.0868
  547TIP3    H123132   5.500   5.482   2.997  1.2332 -0.1499 -0.5960
  547TIP3    H223133   5.404   5.455   2.883  0.4486 -0.0352  0.0402
  548TIP3   OH223134   1.489   3.934  13.242 -0.1750  0.2268 -0.5047
  548TIP3    H123135   1.510   3.941  13.149  0.0016 -1.1219 -0.5748
  548TIP3    H223136   1.476   3.840  13.257 -2.4009  0.6590  0.3676
  549TIP3   OH223137   4.726   4.185  16.634  0.5874  0.4027 -0.0439
  549TIP3    H123138   4.639   4.163  16.667  1.1168 -1.7043  0.0131
  549TIP3    H223139   4.735   4.279  16.651 -1.2124  0.4099  0.9957
  550TIP3   OH223140   6.697   6.319   2.540 -0.5518  0.0352 -0.4640
  550TIP3    H123141   6.738   6.386   2.485  1.2582  0.7088  1.6441
  550TIP3    H223142   6.646   6.367   2.604 -2.6882 -0.7593 -1.5073
  551TIP3   OH223143   0.544   6.263  15.008 -0.3849 -0.7050 -0.0922
  551TIP3    H123144   0.611   6.321  15.043  1.4108 -1.2186 -2.5650
  551TIP3    H223145   0.462   6.294  15.047  1.2633 -0.1737  3.1048
  552TIP3   OH223146   6.814   3.762  13.757  0.6450 -0.0803  0.7768
  552TIP3    H123147   6.833   3.804  13.673 -1.8026  0.3062  0.3836
  552TIP3    H223148   6.860   3.817  13.822 -0.6655  1.9411  0.0482
  553TIP3   OH223149   0.050   3.054   1.025  0.5088 -0.4947  0.0422
  553TIP3    H123150   0.063   3.079   0.934 -0.7399 -0.6099 -0.1771
  553TIP3    H223151  -0.003   3.125   1.062  2.1522  0.2315  1.0448
  554TIP3   OH223152   6.116   6.600  15.807 -0.1483  0.7418 -0.4282
  554TIP3    H123153   6.078   6.548  15.737 -0.6341  1.4534 -0.6950
  554TIP3    H223154   6.180   6.542  15.848 -0.0058  0.2597 -1.3293
  555TIP3   OH223155   1.094   2.920  12.645 -0.1096  0.1055  0.8506
  555TIP3    H123156   1.034   2.986  12.611 -1.0988 -0.7962  0.8482
  555TIP3    H223157   1.121   2.870  12.567  0.0208 -0.0023  0.9641
  556TIP3   OH223158   6.693   2.386   5.319 -0.5192 -0.2494  0.8588
  556TIP3    H123159   6.737   2.470   5.333 -0.8329  0.3718 -1.6123
  556TIP3    H223160   6.602   2.409   5.299 -0.6376 -1.1985  0.2637
  557TIP3   OH223161   4.327   2.276   1.094 -0.3841 -0.5005 -0.6660
  557TIP3    H123162   4.376   2.195   1.081 -0.9179 -1.0530  0.7024
  557TIP3    H223163   4.303   2.303   1.005  1.8268 -0.5538 -1.3040
  558TIP3   OH223164   3.165   4.192   0.626 -0.2800  0.2547 -0.3494
  558TIP3    H123165   3.130   4.254   0.690 -2.5281 -1.1387 -0.1785
  558TIP3    H223166   3.164   4.240   0.543  0.4639  1.2934  0.2319
  559TIP3   OH223167   3.533   1.162   1.991 -0.1583 -0.3765  0.3124
  559TIP3    H123168   3.579   1.080   2.008 -0.5118 -0.7985 -0.6860
  559TIP3    H223169   3.455   1.158   2.046  0.7473  0.1216  1.6368
  560TIP3   OH223170   2.702   4.142   1.992 -0.4963  0.8364 -0.2476
  560TIP3    H123171   2.757   4.213   1.958 -1.3713  1.6794  0.1147
  560TIP3    H223172   2.681   4.090   1.914  1.9369 -0.3004 -0.2181
  561TIP3   OH223173   2.271   3.099   4.378 -0.1102 -0.3304 -0.4895
  561TIP3    H123174   2.322   3.145   4.311 -0.3393 -1.4200 -1.4367
  561TIP3    H223175   2.197   3.157   4.396  1.6129  1.4350  1.1486
  562TIP3   OH223176   2.817   2.301   5.000  0.4604 -0.5259 -0.0970
  562TIP3    H123177   2.885   2.361   5.031  0.9748 -1.4098  0.5278
  562TIP3    H223178   2.735   2.346   5.019  0.8319 -0.1947  0.7456
  563TIP3   OH223179   5.468   2.497   5.329 -0.7928  0.9876 -0.4259
  563TIP3    H123180   5.492   2.586   5.304  2.4379  0.8817  1.9669
  563TIP3    H223181   5.444   2.504   5.422  0.5745 -0.8012  0.0856
  564TIP3   OH223182   5.315   6.263  13.684  0.7975  0.2601 -0.0078
  564TIP3    H123183   5.351   6.342  13.724 -0.4995  0.7269  0.2398
  564TIP3    H223184   5.225   6.258  13.716 -0.0273  0.2409 -2.2933
  565TIP3   OH223185   4.238   0.653  17.115  0.1241 -0.4745  0.4331
  565TIP3    H123186   4.262   0.711  17.043 -1.1070  0.1200  0.4971
  565TIP3    H223187   4.183   0.706  17.172  1.2500 -0.8883  1.9184
  566TIP3   OH223188   0.223   4.640  15.993  0.8619  0.0530  0.1940
  566TIP3    H123189   0.221   4.710  16.058  0.1396  0.2299 -0.0059
  566TIP3    H223190   0.278   4.674  15.923  2.7692 -0.6779  1.2968
  567TIP3   OH223191   1.243   6.489   3.615 -0.5670 -0.0640 -0.1680
  567TIP3    H123192   1.302   6.424   3.654 -1.8078 -0.8196  0.4809
  567TIP3    H223193   1.171   6.496   3.678 -1.8827 -0.2179 -1.6334
  568TIP3   OH223194   4.462   5.763  13.399 -0.2012  0.2689  0.3157
  568TIP3    H123195   4.421   5.732  13.480  2.3135  0.2080  1.6094
  568TIP3    H223196   4.465   5.858  13.408 -2.8469  0.5418 -1.1850
  569TIP3   OH223197   3.633   3.927  16.599 -0.4346 -0.2595  0.1435
  569TIP3    H123198   3.567   3.995  16.589 -2.0562 -1.6241  1.1851
  569TIP3    H223199   3.650   3.923  16.693  1.3150  0.2278 -0.1350
  570TIP3   OH223200   2.172   4.421   3.031  0.0339 -0.0306  0.0446
  570TIP3    H123201   2.084   4.449   3.008  0.1942  1.3311  0.9903
  570TIP3    H223202   2.229   4.480   2.982  0.3968  0.2447  0.7919
  571TIP3   OH223203   0.363   1.120   1.971 -0.1356 -0.0646 -0.0280
  571TIP3    H123204   0.417   1.146   1.896  1.0580 -3.3510 -0.3906
  571TIP3    H223205   0.357   1.024   1.964 -1.0273 -0.3145  3.3926
  572TIP3   OH223206   3.001   3.749  14.788  0.3249 -0.4406  0.1121
  572TIP3    H123207   2.917   3.769  14.749  0.4609  0.2009  0.1434
  572TIP3    H223208   2.982   3.735  14.881  0.4294  0.9434  0.3545
  573TIP3   OH223209   2.835   3.172   0.055 -0.1001  0.6309  0.3730
  573TIP3    H123210   2.840   3.144   0.146 -0.1875  1.0428  0.5065
  573TIP3    H223211   2.922   3.205   0.034 -0.0805  0.5387  0.3040
  574TIP3   OH223212   5.481   2.653   0.884 -0.2670  0.6694  0.0509
  574TIP3    H123213   5.552   2.653   0.820 -1.6550 -2.5448 -1.5518
  574TIP3    H223214   5.525   2.669   0.968  1.7526  3.3435 -1.4310
  575TIP3   OH223215   4.521   3.175  13.275  0.0992  0.2584 -0.0446
  575TIP3    H123216   4.558   3.153  13.361 -0.4747 -0.2928  0.0656
  575TIP3    H223217   4.430   3.147  13.280  0.1402 -0.0624 -0.9378
  576TIP3   OH223218   5.809   6.598  15.243 -0.2849 -0.2490  0.4343
  576TIP3    H123219   5.842   6.518  15.204  3.3635  1.5335 -0.3567
  576TIP3    H223220   5.823   6.587  15.337 -1.1617 -1.0794  0.4787
  577TIP3   OH223221   0.046   4.946   1.857  0.7977 -0.0059 -0.6162
  577TIP3    H123222  -0.039   4.990   1.848  0.6352 -0.0860  0.4907
  577TIP3    H223223   0.088   4.959   1.772 -1.0139 -1.4124 -1.7712
  578TIP3   OH223224   4.630   6.586  13.849  0.0280  0.0366 -0.1180
  578TIP3    H123225   4.714   6.593  13.802  0.1676  0.1305  0.1440
  578TIP3    H223226   4.567   6.629  13.791  0.0623 -0.4862 -0.5559
  579TIP3   OH223227   1.475   4.884   6.712 -0.1450  0.5588 -0.6377
  579TIP3    H123228   1.434   4.926   6.636 -0.5785  2.5114  0.6293
  579TIP3    H223229   1.415   4.901   6.784  1.4982  0.9603  0.6742
  580TIP3   OH223230   1.374   6.088   4.043  0.2245  0.4675 -0.0578
  580TIP3    H123231   1.380   6.058   4.133 -2.3843 -0.7086 -0.2291
  580TIP3    H223232   1.373   6.008   3.990 -0.5247  1.0528 -0.9564
  581TIP3   OH223233   3.423   1.997  16.682  0.2541 -0.4999 -0.2354
  581TIP3    H123234   3.493   1.995  16.616  1.9291 -2.2338  1.5400
  581TIP3    H223235   3.467   1.980  16.765 -2.2714 -1.4797  0.9575
  582TIP3   OH223236   3.301   5.758  16.915 -0.0444  0.4365  0.4375
  582TIP3    H123237   3.371   5.732  16.975  0.6739 -0.0130 -0.5868
  582TIP3    H223238   3.296   5.687  16.851 -2.2160 -0.0834  1.1557
  583TIP3   OH223239   0.895   2.071  13.386  0.0537 -0.6558 -0.1940
  583TIP3    H123240   0.917   2.037  13.473 -1.5749 -0.6498  0.2374
  583TIP3    H223241   0.977   2.069  13.338  1.2937  0.7370  1.8059
  584TIP3   OH223242   5.783   0.768   1.144  0.1061  0.7459  0.0518
  584TIP3    H123243   5.831   0.831   1.091 -0.3886  1.1379  0.0690
  584TIP3    H223244   5.728   0.721   1.081  1.4591 -0.5916 -0.1584
  585TIP3   OH223245   6.323   3.343   0.983  0.1573  0.4391  0.1721
  585TIP3    H123246   6.395   3.392   1.023  1.0334 -1.6463  1.2394
  585TIP3    H223247   6.257   3.338   1.052 -0.7121  1.7299 -0.5655
  586TIP3   OH223248   4.706   6.086  14.756  0.3009 -0.2766 -0.4288
  586TIP3    H123249   4.706   6.181  14.750  0.7708 -0.2663 -0.2580
  586TIP3    H223250   4.797   6.062  14.771  0.0406 -0.6910  0.5211
  587TIP3   OH223251   2.911   5.898   1.362  0.6088  0.3520  0.4985
  587TIP3    H123252   2.996   5.941   1.367  1.4925 -1.2197 -0.4559
  587TIP3    H223253   2.878   5.919   1.274  1.5037 -1.6626 -0.3667
  588TIP3   OH223254   0.799   4.679   1.165 -0.1959  0.0984  0.4385
  588TIP3    H123255   0.762   4.655   1.080  1.1280  1.3281 -0.5102
  588TIP3    H223256   0.863   4.611   1.183 -1.4966 -0.9523  1.1476
  589TIP3   OH223257   6.480   0.191   2.144  0.9035  0.2577 -0.3673
  589TIP3    H123258   6.468   0.245   2.223 -0.2684 -0.9072  0.2596
  589TIP3    H223259   6.392   0.186   2.106  1.2228 -0.2872 -1.0198
  590TIP3   OH223260   5.489   4.075  14.689 -0.4554 -0.4233  0.1194
  590TIP3    H123261   5.539   4.055  14.768 -1.6534 -1.0666  0.7309
  590TIP3    H223262   5.435   4.150  14.712 -0.8223 -0.6239 -0.0727
  591TIP3   OH223263   0.632   5.074   4.956  0.1292 -0.1677 -0.6873
  591TIP3    H123264   0.592   5.114   5.033  1.6029  2.2383 -1.0923
  591TIP3    H223265   0.559   5.062   4.895 -0.6486  0.2785  0.1333
  592TIP3   OH223266   3.753   3.895   5.950  0.1502  0.5437  0.1057
  592TIP3    H123267   3.846   3.873   5.942  0.1986  1.1162 -0.9859
  592TIP3    H223268   3.732   3.876   6.041  1.1791 -0.2011  0.2034
  593TIP3   OH223269   3.535   6.298  13.715  0.5471  0.4103  0.5680
  593TIP3    H123270   3.511   6.343  13.796 -0.4221 -0.4343  0.7699
  593TIP3    H223271   3.470   6.327  13.651  0.9900  0.6645  0.2315
  594TIP3   OH223272   3.975   4.656  15.939 -0.0303 -0.3539 -0.0225
  594TIP3    H123273   3.990   4.749  15.954 -1.0097 -0.2219  0.2433
  594TIP3    H223274   4.004   4.640  15.850  1.4667 -0.0973  0.4189
  595TIP3   OH223275   2.166   4.553   4.525 -0.6465 -0.0113 -0.1926
  595TIP3    H123276   2.137   4.580   4.438  0.1574 -0.0948 -0.4899
  595TIP3    H223277   2.120   4.612   4.585  0.9688  1.9755 -0.8256
  596TIP3   OH223278   5.038   2.780   1.044 -0.4312 -0.0969 -0.3521
  596TIP3    H123279   5.000   2.692   1.037  1.7131 -1.4063  3.0443
  596TIP3    H223280   5.110   2.780   0.981 -0.8380 -0.5376 -0.8231
  597TIP3   OH223281   5.960   5.096  14.616 -0.4692  0.0435 -0.4436
  597TIP3    H123282   5.947   5.013  14.662  0.9731  0.1616  0.1910
  597TIP3    H223283   6.025   5.076  14.549 -1.1010  0.3479 -1.1465
  598TIP3   OH223284   3.150   6.276  11.909  0.8110  0.1700 -0.1077
  598TIP3    H123285   3.060   6.246  11.903  0.2696  1.5973  0.6665
  598TIP3    H223286   3.169   6.313  11.822  0.8595 -0.6547 -0.4560
  599TIP3   OH223287   5.931   4.197  14.124  0.2891 -0.6419 -0.3896
  599TIP3    H123288   5.909   4.120  14.071 -0.5074 -0.6370 -0.0690
  599TIP3    H223289   5.982   4.253  14.065 -0.9460 -0.4468 -1.2963
  600TIP3   OH223290   0.655   4.241   1.423  0.1712  0.3788 -0.5842
  600TIP3    H123291   0.582   4.302   1.427 -0.8801 -0.8494 -0.9026
  600TIP3    H223292   0.660   4.204   1.511 -1.2710 -1.4772 -1.2706
  601TIP3   OH223293   6.705   3.530  13.477  0.1552  0.0833  0.4543
  601TIP3    H123294   6.783   3.495  13.434 -0.0654  1.3283 -1.0301
  601TIP3    H223295   6.734   3.612  13.516 -0.5388  0.8974 -0.6965
  602TIP3   OH223296   0.186   2.909   0.403 -0.0047 -0.3908 -0.0582
  602TIP3    H123297   0.269   2.861   0.396  0.0141 -0.7309  2.1395
  602TIP3    H223298   0.192   2.977   0.335  1.0529 -1.8883 -1.4974
  603TIP3   OH223299   5.818   1.606  10.975 -0.0681  0.9330 -0.2857
  603TIP3    H123300   5.724   1.598  10.995 -0.0954  1.4257 -0.2250
  603TIP3    H223301   5.820   1.644  10.887  0.0905  2.2088  0.2667
  604TIP3   OH223302   2.817   3.766  12.386  0.1932  0.3846  0.1570
  604TIP3    H123303   2.829   3.846  12.438 -0.1332  0.9334 -0.5871
  604TIP3    H223304   2.899   3.719  12.394  0.1772  0.5084  1.0906
  605TIP3   OH223305   3.604   1.087   1.369 -0.2332  0.1695 -0.6386
  605TIP3    H123306   3.615   0.994   1.349  0.3555 -0.1201  0.8990
  605TIP3    H223307   3.678   1.130   1.326 -0.0784 -0.1703 -0.7124
  606TIP3   OH223308   0.315   1.492  13.170 -0.1077  0.3709  0.0764
  606TIP3    H123309   0.300   1.562  13.107  0.0828  0.3952  0.0571
  606TIP3    H223310   0.274   1.522  13.251  1.3134  1.1982  0.5134
  607TIP3   OH223311   0.092   4.921   0.620 -0.3836  0.2438 -0.1827
  607TIP3    H123312   0.105   4.882   0.533 -1.3695  1.1985 -0.7730
  607TIP3    H223313   0.140   5.003   0.617 -2.8490  1.7092 -0.8791
  608TIP3   OH223314   5.960   2.971  14.050  0.3950  0.3088 -0.2409
  608TIP3    H123315   5.993   2.887  14.082 -0.7013 -0.2248 -0.4909
  608TIP3    H223316   6.029   3.002  13.991 -0.3439 -1.6881 -2.2173
  609TIP3   OH223317   2.337   0.655  17.185  0.1916 -0.3212 -0.0833
  609TIP3    H123318   2.261   0.710  17.165  0.4680  0.0704 -0.0640
  609TIP3    H223319   2.334   0.586  17.119 -0.3890 -0.5186  0.1423
  610TIP3   OH223320   5.280   3.245   1.819 -0.0018 -0.0092 -0.1482
  610TIP3    H123321   5.347   3.196   1.867  1.0824  0.3570 -1.2473
  610TIP3    H223322   5.241   3.179   1.760  0.1366  0.0214 -0.2737
  611TIP3   OH223323   1.920   1.479  13.297 -0.2888 -0.3527  0.0346
  611TIP3    H123324   1.879   1.564  13.283 -1.7298 -0.9245  0.6739
  611TIP3    H223325   1.990   1.474  13.231  0.4997  1.7511  0.6848
  612TIP3   OH223326   0.611   0.410  12.973  0.0366 -0.3311 -0.7807
  612TIP3    H123327   0.591   0.467  13.047  1.3236  0.1656 -0.7984
  612TIP3    H223328   0.560   0.331  12.988 -0.2719  0.0623  0.2604
  613TIP3   OH223329   6.358   3.735   0.934  0.0009  0.0645  0.1037
  613TIP3    H123330   6.277   3.720   0.984 -0.1339  0.4848  0.0142
  613TIP3    H223331   6.428   3.708   0.993 -0.0676  1.9433  1.1028
  614TIP3   OH223332   4.189   5.316  11.124 -0.3706 -0.0272 -0.0478
  614TIP3    H123333   4.159   5.403  11.097  1.2786  0.6408  0.1843
  614TIP3    H223334   4.216   5.273  11.043 -1.8971 -0.6248 -0.2549
  615TIP3   OH223335   5.169   0.992   1.530  0.3453  0.1888 -0.3871
  615TIP3    H123336   5.123   1.064   1.574  1.2134  1.3553 -1.3756
  615TIP3    H223337   5.246   0.977   1.585 -1.0482 -1.6163  1.1453
  616TIP3   OH223338   6.405   3.460  11.272 -0.1389 -0.1045 -0.2278
  616TIP3    H123339   6.417   3.395  11.341 -0.9670 -1.1840 -1.0816
  616TIP3    H223340   6.486   3.511  11.272  0.2802 -0.7676  0.8298
  617TIP3   OH223341   5.226   6.488  17.055 -0.5699 -0.6727  0.1162
  617TIP3    H123342   5.134   6.472  17.036 -0.8360 -0.7406  1.4134
  617TIP3    H223343   5.274   6.440  16.987 -1.4927 -0.3574 -0.7629
  618TIP3   OH223344   3.047   5.551   3.029 -0.5744 -0.1915  0.0557
  618TIP3    H123345   3.032   5.461   3.056  0.3070 -0.8500 -1.6037
  618TIP3    H223346   3.086   5.544   2.941  1.2109  1.7255  0.6507
  619TIP3   OH223347   1.943   4.184   3.642 -0.3120  0.0184 -0.4541
  619TIP3    H123348   1.922   4.108   3.696  0.9105  0.2806  0.4030
  619TIP3    H223349   1.963   4.147   3.556  0.9273 -0.7034  0.1265
  620TIP3   OH223350   4.319   6.609   3.573  0.1877  0.0711 -0.2924
  620TIP3    H123351   4.300   6.515   3.578 -0.2414  0.1105 -0.9725
  620TIP3    H223352   4.346   6.622   3.482  1.9409  0.3112  0.2579
  621TIP3   OH223353   4.349   0.923   2.754 -0.5012  0.5245 -0.2917
  621TIP3    H123354   4.400   0.903   2.833 -0.9141  1.3989  0.2071
  621TIP3    H223355   4.258   0.924   2.785 -0.6509  1.0192 -0.7557
  622TIP3   OH223356   6.249   2.713   3.995  0.0662  0.5142  0.7153
  622TIP3    H123357   6.317   2.768   3.955  1.2087 -0.6165  1.0628
  622TIP3    H223358   6.177   2.715   3.933  1.6084 -0.7843 -1.1836
  623TIP3   OH223359   3.947   1.092  14.056  0.0367 -0.4185 -0.2690
  623TIP3    H123360   3.995   1.021  14.099 -1.7652 -0.3077  2.0208
  623TIP3    H223361   3.872   1.048  14.014  0.0247 -0.1016 -0.5822
  624TIP3   OH223362   4.206   1.813  14.139  0.4547  0.8921 -0.1156
  624TIP3    H123363   4.265   1.888  14.141  1.6575  0.0082 -1.3584
  624TIP3    H223364   4.232   1.765  14.060 -0.8512 -0.3763  0.2172
  625TIP3   OH223365   2.266   5.754  17.145 -0.0534  0.1557 -0.0755
  625TIP3    H123366   2.227   5.808  17.076  1.4314 -0.4275 -1.3939
  625TIP3    H223367   2.191   5.709  17.185 -1.0185  1.1347 -0.7344
  626TIP3   OH223368   4.074   5.627  13.719 -0.0615 -0.3390  0.0394
  626TIP3    H123369   4.098   5.640  13.811 -0.6819 -1.1616  0.3282
  626TIP3    H223370   3.985   5.593  13.722  0.8045 -2.7847 -0.7254
  627TIP3   OH223371   4.152   5.812   5.912 -0.1000  0.4613  0.5867
  627TIP3    H123372   4.226   5.860   5.874 -0.6425  0.2985 -0.6863
  627TIP3    H223373   4.075   5.855   5.876 -0.6879  1.5250  2.9770
  628TIP3   OH223374   2.101   4.827  15.435 -0.5386  0.2999  0.6107
  628TIP3    H123375   2.059   4.751  15.474 -0.2240  0.1367  0.6341
  628TIP3    H223376   2.058   4.838  15.351 -0.7280  0.2216  0.6980
  629TIP3   OH223377   5.570   6.219   1.764  0.5933 -0.1920 -0.9600
  629TIP3    H123378   5.559   6.133   1.724 -1.6237 -1.3189  1.8500
  629TIP3    H223379   5.516   6.278   1.711 -1.4599 -1.4440 -0.3111
  630TIP3   OH223380   3.807   4.836  14.364  0.2450  0.2161 -0.1413
  630TIP3    H123381   3.834   4.879  14.283 -0.2760  0.4758 -0.1812
  630TIP3    H223382   3.886   4.791  14.395  0.6450  0.7497 -0.3852
  631TIP3   OH223383   1.646   2.093   0.554  0.0821  0.2295 -0.2117
  631TIP3    H123384   1.610   2.096   0.643  0.8269  0.5500  0.0793
  631TIP3    H223385   1.698   2.012   0.552 -1.3575 -0.7082 -0.9118
  632TIP3   OH223386   5.104   0.004  15.340 -0.5722 -0.0374 -0.1158
  632TIP3    H123387   5.072  -0.072  15.292  1.9810 -0.8131 -0.6836
  632TIP3    H223388   5.156  -0.033  15.412  0.3387  1.1420 -0.1403
  633TIP3   OH223389   0.372   6.397  13.699  0.6481  0.0276 -0.7663
  633TIP3    H123390   0.446   6.375  13.644  3.1273 -0.0504  2.4811
  633TIP3    H223391   0.409   6.446  13.772 -2.9583  3.2108 -0.8490
  634TIP3   OH223392   6.250   2.873   0.940  0.0121  0.3341  0.4371
  634TIP3    H123393   6.318   2.939   0.956 -0.1888  0.8391 -0.7698
  634TIP3    H223394   6.176   2.903   0.993 -0.6463  2.0041 -1.3788
  635TIP3   OH223395   1.285   0.570   0.372 -0.2718 -0.3093  0.1205
  635TIP3    H123396   1.341   0.551   0.447  0.0059 -0.1224 -0.0373
  635TIP3    H223397   1.202   0.599   0.410 -0.7482 -1.9433  0.3695
  636TIP3   OH223398   3.381   6.237  15.264  0.7261  0.4363  0.5064
  636TIP3    H123399   3.322   6.162  15.274  0.3197  0.5538 -0.8920
  636TIP3    H223400   3.464   6.199  15.235  0.6263  0.5042  0.1391
  637TIP3   OH223401   4.175   4.916  14.409  0.1860  0.5217 -0.4453
  637TIP3    H123402   4.179   4.841  14.350  1.5236  0.0603  0.2209
  637TIP3    H223403   4.191   4.992  14.353  0.4480  0.1713 -0.8407
  638TIP3   OH223404   6.442   6.031  13.564  0.2887 -0.2374 -0.2579
  638TIP3    H123405   6.525   6.026  13.611  0.5039 -2.3077 -0.8206
  638TIP3    H223406   6.439   6.120  13.529  2.5047 -0.3126 -0.6810
  639TIP3   OH223407   4.858   6.671  16.430  0.4461 -0.4574 -0.1486
  639TIP3    H123408   4.829   6.582  16.451  0.3050 -0.2530  0.5338
  639TIP3    H223409   4.813   6.726  16.494 -0.0875  0.1893 -1.0756
  640TIP3   OH223410   1.494   4.193   4.698  0.1321 -0.1449  0.2340
  640TIP3    H123411   1.542   4.260   4.747 -1.4386  1.1527  0.0682
  640TIP3    H223412   1.559   4.127   4.677  1.6849  1.2317  0.6115
  641TIP3   OH223413   4.748   1.584   5.724  0.3305  0.2847 -0.2610
  641TIP3    H123414   4.684   1.514   5.738  1.8780 -1.4197 -1.5120
  641TIP3    H223415   4.695   1.663   5.709 -1.4739  0.3240  5.1835
  642TIP3   OH223416   3.029   2.467   5.132  0.1068 -0.0648  0.4152
  642TIP3    H123417   2.969   2.532   5.166 -0.9121 -0.4703 -0.5755
  642TIP3    H223418   3.031   2.398   5.199 -0.8707 -0.2476  0.2635
  643TIP3   OH223419   1.931   5.981  15.843 -0.2750 -0.1895  0.2715
  643TIP3    H123420   1.864   5.923  15.881 -0.6473 -1.2070 -1.8604
  643TIP3    H223421   1.966   5.931  15.769  2.2063  0.7171  0.7905
  644TIP3   OH223422   3.038   4.280   1.583  0.2185  0.2374  0.5047
  644TIP3    H123423   2.970   4.213   1.577  1.9743 -1.5363 -0.0587
  644TIP3    H223424   3.097   4.248   1.651  2.8138 -0.4303 -1.9785
  645TIP3   OH223425   3.082   0.462   0.753  0.3244  0.3741 -0.3167
  645TIP3    H123426   3.165   0.415   0.754  0.2563  0.1117 -2.8760
  645TIP3    H223427   3.018   0.398   0.722 -1.0964  0.2552  2.6692
  646TIP3   OH223428   3.918   4.545  13.032  0.6765 -0.3092  0.1094
  646TIP3    H123429   3.865   4.492  12.972 -0.6277 -0.0730  1.0324
  646TIP3    H223430   4.002   4.500  13.036 -0.2498 -2.0618  0.5011
  647TIP3   OH223431   5.589   4.228   5.677  0.1213  0.0249  0.1082
  647TIP3    H123432   5.636   4.298   5.632  1.9757 -0.1372  1.7094
  647TIP3    H223433   5.583   4.258   5.768  0.3473 -1.5822  0.6714
  648TIP3   OH223434   0.423   1.887   4.506 -0.2888 -0.0463 -0.3643
  648TIP3    H123435   0.394   1.928   4.588 -1.2797 -1.0851 -0.1852
  648TIP3    H223436   0.451   1.799   4.532  0.5047  0.0264 -0.9643
  649TIP3   OH223437   6.478   4.575  10.173 -0.0823 -0.6077  0.0755
  649TIP3    H123438   6.484   4.483  10.146 -0.5798 -1.0135  1.2859
  649TIP3    H223439   6.560   4.614  10.144 -1.0904 -0.7014 -3.0434
  650TIP3   OH223440   1.996   6.226  11.190 -0.6633  0.3849 -0.4913
  650TIP3    H123441   1.999   6.246  11.096  0.9722  0.1178 -0.5090
  650TIP3    H223442   1.905   6.201  11.206 -0.5991 -1.1475 -2.3455
  651TIP3   OH223443   1.823   4.610   5.992 -0.5549  0.1804 -0.2240
  651TIP3    H123444   1.764   4.610   6.068 -1.1914 -0.2486 -0.7068
  651TIP3    H223445   1.882   4.683   6.008 -0.3303 -0.2330  0.9503
  652TIP3   OH223446   3.857   5.449   2.628  0.3356 -0.0184 -0.5259
  652TIP3    H123447   3.837   5.541   2.646  0.3259 -0.0858 -0.1980
  652TIP3    H223448   3.855   5.443   2.532  0.9183  0.4520 -0.5721
  653TIP3   OH223449   4.644   2.660  16.310 -0.4776 -0.5265 -0.3314
  653TIP3    H123450   4.654   2.748  16.346  0.0677 -0.7562  0.0894
  653TIP3    H223451   4.708   2.655  16.239  0.8925 -1.2459  0.9272
  654TIP3   OH223452   0.983   1.489   5.927 -0.1002 -0.3166  0.7535
  654TIP3    H123453   0.902   1.439   5.928  0.4405 -1.2186 -0.2081
  654TIP3    H223454   1.023   1.473   6.013 -0.3707 -0.7987  0.7861
  655TIP3   OH223455   3.364   6.254   6.069 -0.2818  0.0159 -0.7526
  655TIP3    H123456   3.396   6.279   5.982  0.3976  1.2786 -0.1517
  655TIP3    H223457   3.351   6.338   6.115  1.9157 -0.7100  1.2763
  656TIP3   OH223458   2.812   1.856   5.849  0.2633 -0.1459 -0.1526
  656TIP3    H123459   2.895   1.822   5.882  0.2652 -0.5648 -0.5847
  656TIP3    H223460   2.767   1.889   5.926 -0.1276 -1.9414  0.4035
  657TIP3   OH223461   2.817   0.288   1.352  0.2525 -0.2699 -0.3417
  657TIP3    H123462   2.856   0.234   1.283  1.8990  2.3279 -1.5373
  657TIP3    H223463   2.888   0.301   1.415 -0.2710  0.0964  0.1797
  658TIP3   OH223464   4.187   6.304   4.882 -0.1200  0.0769  0.3840
  658TIP3    H123465   4.236   6.310   4.799 -1.1802 -0.0387 -0.2595
  658TIP3    H223466   4.250   6.333   4.948  0.5646  0.7355 -0.5264
  659TIP3   OH223467   4.519   6.650   1.632 -0.0677  0.1984 -0.3915
  659TIP3    H123468   4.595   6.708   1.639  0.2244 -0.2823  0.5070
  659TIP3    H223469   4.554   6.568   1.598 -0.2555  0.1134 -0.3793
  660TIP3   OH223470   1.018   1.880  17.088 -0.2425 -0.3119  0.3485
  660TIP3    H123471   0.982   1.812  17.031  0.0953 -1.1835  1.1621
  660TIP3    H223472   1.022   1.958  17.033  2.7787 -1.8187 -1.7177
  661TIP3   OH223473   3.902   1.325  11.964 -0.4275  0.3649 -0.7591
  661TIP3    H123474   3.871   1.410  11.933 -0.4388  0.3274 -0.8505
  661TIP3    H223475   3.932   1.341  12.053  0.0625  0.5808 -0.9607
  662TIP3   OH223476   3.984   1.436   2.313 -0.4067 -0.2692  0.2232
  662TIP3    H123477   4.047   1.439   2.241 -0.8189  1.0287 -0.0917
  662TIP3    H223478   4.021   1.373   2.375  1.4118  0.7750  0.2327
  663TIP3   OH223479   5.096   3.078  14.595  0.1468 -0.1227 -0.3596
  663TIP3    H123480   5.073   3.101  14.685 -0.4588 -3.0269  0.3036
  663TIP3    H223481   5.189   3.098  14.588  0.2510 -0.0748  0.9879
  664TIP3   OH223482   1.826   1.433   0.564  0.4328 -0.3325  0.4681
  664TIP3    H123483   1.779   1.489   0.502 -0.5611 -1.2976  0.3355
  664TIP3    H223484   1.904   1.483   0.587 -0.5637  1.2241  0.5520
  665TIP3   OH223485   3.927   3.446   0.017 -0.1640  0.1395 -1.1312
  665TIP3    H123486   3.853   3.386   0.027  0.7882 -1.1518 -1.6459
  665TIP3    H223487   4.001   3.400   0.055  0.4789  1.2392 -1.0199
  666TIP3   OH223488   4.490   5.438  14.240  0.0562 -0.1559  0.0571
  666TIP3    H123489   4.415   5.472  14.191  1.2289  3.1454  0.4175
  666TIP3    H223490   4.478   5.472  14.328  1.0782 -1.0903  0.5759
  667TIP3   OH223491   6.397   0.965  13.548 -0.0299 -0.4086  0.2807
  667TIP3    H123492   6.377   0.914  13.626 -0.9799 -0.1467  0.2201
  667TIP3    H223493   6.438   1.045  13.582  1.4175 -1.1872  0.3752
  668TIP3   OH223494   6.645   0.213   1.020  0.4070 -0.2352  0.1305
  668TIP3    H123495   6.713   0.227   1.085  1.5321 -0.2922 -1.0088
  668TIP3    H223496   6.684   0.240   0.937 -0.6848 -0.9964 -0.6614
  669TIP3   OH223497   4.464   6.063   2.349 -0.4426  0.3144  0.9947
  669TIP3    H123498   4.449   6.003   2.276  0.1065 -1.0533  1.9973
  669TIP3    H223499   4.376   6.087   2.379 -0.6707  0.7767 -0.0112
  670TIP3   OH223500   4.879   2.107   4.967  0.8119  0.3304 -0.6542
  670TIP3    H123501   4.890   2.018   5.000 -0.3737 -0.1208 -1.4304
  670TIP3    H223502   4.962   2.151   4.987  0.5154 -0.2301  1.9408
  671TIP3   OH223503   5.628   1.287   2.228 -0.2563 -0.1350  0.0011
  671TIP3    H123504   5.627   1.216   2.163 -0.4199 -0.3115  0.1987
  671TIP3    H223505   5.623   1.367   2.175  1.0228 -0.2336 -0.2810
  672TIP3   OH223506   6.312   5.522  14.130 -0.1714  0.0614 -1.0575
  672TIP3    H123507   6.292   5.465  14.204 -0.5126  2.0499  0.4376
  672TIP3    H223508   6.292   5.470  14.052 -0.5135 -1.8041  0.2658
  673TIP3   OH223509   3.841   0.553  15.136 -0.0873 -0.0554  0.0540
  673TIP3    H123510   3.821   0.603  15.057  0.2084 -0.8390 -0.5221
  673TIP3    H223511   3.906   0.489  15.108  0.8491  0.3799  1.1875
  674TIP3   OH223512   4.257   1.811   4.134 -0.1953  0.1522 -0.3776
  674TIP3    H123513   4.245   1.725   4.172 -0.9564  0.5640  0.3270
  674TIP3    H223514   4.219   1.872   4.198  1.9297  1.1580 -0.0190
  675TIP3   OH223515   6.585   5.484   3.817 -0.2672  0.1537  0.3609
  675TIP3    H123516   6.492   5.461   3.824 -0.9616  1.7781 -2.3975
  675TIP3    H223517   6.592   5.569   3.860 -0.3524  0.6042 -0.4891
  676TIP3   OH223518   3.417   5.162   1.478 -0.1267 -0.0427  0.7656
  676TIP3    H123519   3.383   5.226   1.415 -0.0213 -0.3425  0.4021
  676TIP3    H223520   3.503   5.195   1.502  0.0632 -0.2124  0.3324
  677TIP3   OH223521   5.527   6.000  16.170 -0.7836 -0.2919  0.2242
  677TIP3    H123522   5.616   6.030  16.152 -0.1861 -2.2924 -0.2761
  677TIP3    H223523   5.502   5.951  16.092 -2.3416  0.2506  0.3651
  678TIP3   OH223524   3.183   3.137   4.638  0.1436  0.3783  0.4736
  678TIP3    H123525   3.207   3.103   4.552  1.3219  1.4552  0.3700
  678TIP3    H223526   3.181   3.059   4.694 -0.2945 -0.2812 -0.4434
  679TIP3   OH223527   4.793   1.721  16.121 -0.0491  0.6777  0.1023
  679TIP3    H123528   4.806   1.800  16.174 -1.8106 -0.0134  1.6155
  679TIP3    H223529   4.699   1.720  16.103  0.2607 -0.0715 -1.5258
  680TIP3   OH223530   4.684   3.177  16.231 -0.6470  0.0802 -0.4439
  680TIP3    H123531   4.639   3.245  16.180  0.6223  1.5125  0.2930
  680TIP3    H223532   4.733   3.127  16.165  0.0504  1.1814 -0.7837
  681TIP3   OH223533   6.058   2.132  11.738  0.3815  0.0589 -0.7850
  681TIP3    H123534   6.034   2.105  11.650  1.1110 -0.2437 -0.8911
  681TIP3    H223535   6.088   2.052  11.781  1.4986  0.4913 -0.7514
  682TIP3   OH223536   6.268   4.649   5.727 -0.3781 -0.3313  0.3962
  682TIP3    H123537   6.283   4.561   5.762 -0.2761 -1.2247 -1.7693
  682TIP3    H223538   6.248   4.634   5.634 -2.1206  1.8086  0.3959
  683TIP3   OH223539   2.196   2.571  11.117 -0.3927 -0.0025 -0.1959
  683TIP3    H123540   2.184   2.598  11.026 -0.9769  0.2624 -0.0420
  683TIP3    H223541   2.112   2.531  11.141 -1.3245  2.7188  1.1870
  684TIP3   OH223542   5.676   5.316   5.117 -0.4026  0.2571 -0.0998
  684TIP3    H123543   5.668   5.258   5.042 -1.7008 -1.3370  1.2183
  684TIP3    H223544   5.602   5.292   5.174  0.2003  1.8287  1.3986
  685TIP3   OH223545   2.240   3.859   1.613 -0.0102 -0.0048 -0.7089
  685TIP3    H123546   2.147   3.836   1.608 -0.2842  0.6357  1.3698
  685TIP3    H223547   2.266   3.835   1.701  1.9082 -0.4976 -1.3904
  686TIP3   OH223548   3.055   6.354   6.078  0.1538 -0.0590 -0.2388
  686TIP3    H123549   2.995   6.302   6.132  0.7561 -0.4154  0.1001
  686TIP3    H223550   3.080   6.427   6.134 -2.5635  1.9607 -1.5482
  687TIP3   OH223551   0.816   6.644  13.350 -0.4588 -0.3303  0.0618
  687TIP3    H123552   0.909   6.621  13.355 -0.1498  0.6905 -0.8629
  687TIP3    H223553   0.803   6.704  13.423  0.0544  0.9886 -0.9057
  688TIP3   OH223554   4.947   0.720   4.440  0.1147  0.2763  0.3979
  688TIP3    H123555   4.865   0.691   4.479  1.0191 -1.1264  1.3239
  688TIP3    H223556   4.953   0.813   4.463 -1.4621  0.5234 -0.1526
  689TIP3   OH223557   2.627   0.897  16.679  0.1213 -0.0345  0.4958
  689TIP3    H123558   2.610   0.830  16.613 -0.7264 -0.6247  1.2992
  689TIP3    H223559   2.706   0.942  16.649 -0.3584 -0.1768 -1.0048
  690TIP3   OH223560   0.549   4.972   4.534 -0.5546 -0.3420  0.1589
  690TIP3    H123561   0.592   5.057   4.539  0.8053 -0.9404 -0.9400
  690TIP3    H223562   0.621   4.909   4.523 -1.6956 -1.3302 -2.0799
  691TIP3   OH223563   5.715   0.981  16.146  0.0603 -0.2472 -0.2988
  691TIP3    H123564   5.723   1.072  16.174  3.3665 -0.9317  1.1993
  691TIP3    H223565   5.773   0.974  16.071 -0.3883 -1.0573 -0.5726
  692TIP3   OH223566   5.824   6.592  15.509 -0.6219 -0.5168  0.3079
  692TIP3    H123567   5.902   6.555  15.552 -1.0047 -0.1119  1.3854
  692TIP3    H223568   5.754   6.579  15.573 -1.1351  0.4486 -0.0480
  693TIP3   OH223569   0.253   4.768  13.919 -0.1281 -0.2901 -0.2924
  693TIP3    H123570   0.332   4.823  13.926 -0.6234  0.3091  0.5854
  693TIP3    H223571   0.206   4.783  14.001 -1.4516 -0.1928 -1.0554
  694TIP3   OH223572   0.451   0.289  11.028 -0.6653  0.0972  0.1168
  694TIP3    H123573   0.359   0.282  11.001 -1.1614 -0.7946  1.9532
  694TIP3    H223574   0.495   0.218  10.981 -1.0734  0.0424 -0.1826
  695TIP3   OH223575   0.150   2.212   5.529 -0.1615  0.6009 -0.3663
  695TIP3    H123576   0.062   2.194   5.562 -0.6011 -1.0248 -2.3515
  695TIP3    H223577   0.182   2.127   5.498  1.0561  1.6761 -2.1465
  696TIP3   OH223578   0.637   6.791   4.122 -0.2255 -0.1367  0.4709
  696TIP3    H123579   0.729   6.777   4.145  0.3075 -1.5705 -2.3808
  696TIP3    H223580   0.637   6.876   4.078 -0.0992 -0.6162 -0.4504
  697TIP3   OH223581   4.089   5.442  14.132  0.4427 -0.1344 -0.3347
  697TIP3    H123582   4.073   5.535  14.150 -0.1668 -0.3632  0.3343
  697TIP3    H223583   4.165   5.441  14.074  1.5922  0.6892  1.1564
  698TIP3   OH223584   5.848   2.413   4.384  0.2518 -0.0487 -0.0752
  698TIP3    H123585   5.807   2.388   4.466  0.3147 -1.3616 -0.4352
  698TIP3    H223586   5.926   2.463   4.410  0.1833 -0.3278  0.6584
  699TIP3   OH223587   3.057   6.114   1.648  0.0330  0.4433  0.1542
  699TIP3    H123588   2.964   6.110   1.667  0.3603 -0.1686  1.7118
  699TIP3    H223589   3.094   6.168   1.718  1.0336 -0.3926  0.2885
  700TIP3   OH223590   6.213   4.580  11.534  0.1657  0.1722  0.5630
  700TIP3    H123591   6.150   4.572  11.606 -1.0014 -0.7956 -0.5543
  700TIP3    H223592   6.284   4.519  11.557 -0.0380  0.1178  1.0475
  701TIP3   OH223593   4.163   3.493   1.870 -0.2242 -0.2661 -0.3351
  701TIP3    H123594   4.153   3.529   1.782  1.9702 -0.4505 -0.6918
  701TIP3    H223595   4.077   3.459   1.892 -0.5094 -1.3827 -2.9449
  702TIP3   OH223596   4.245   5.990   3.074  0.2358  0.5272 -0.2167
  702TIP3    H123597   4.259   6.080   3.103 -1.6451  1.3429 -1.7255
  702TIP3    H223598   4.299   5.981   2.996  1.7289 -0.2175  0.8726
  703TIP3   OH223599   2.100   2.343  10.929 -0.3807 -0.3156 -0.3578
  703TIP3    H123600   2.152   2.419  10.904 -0.1475  0.3491  1.9833
  703TIP3    H223601   2.016   2.356  10.885  0.1512  0.5536 -1.1280
  704TIP3   OH223602   0.638   2.124  15.224  0.2831 -0.2725  0.2422
  704TIP3    H123603   0.690   2.045  15.213 -0.9195 -1.2367  1.4330
  704TIP3    H223604   0.657   2.153  15.313  2.7152  2.2626 -0.9928
  705TIP3   OH223605   6.713   6.178   1.996  0.2357 -0.0228 -0.0021
  705TIP3    H123606   6.656   6.112   1.956 -1.5162  0.8443  0.9917
  705TIP3    H223607   6.774   6.128   2.050 -0.8737 -0.8425  0.4888
  706TIP3   OH223608   4.582   2.419  12.475  0.2551 -0.3099  0.2533
  706TIP3    H123609   4.597   2.366  12.397  2.2510 -0.0072  0.3982
  706TIP3    H223610   4.624   2.503  12.455 -2.4298  1.0843  0.2207
  707TIP3   OH223611   6.722   4.163   5.806 -0.3040  0.6936 -0.4289
  707TIP3    H123612   6.663   4.093   5.779  1.1785 -0.0571 -1.7968
  707TIP3    H223613   6.665   4.230   5.843 -1.7945 -0.9871  0.3767
  708TIP3   OH223614   6.615   4.168  15.930  0.0602  0.4302 -0.2138
  708TIP3    H123615   6.593   4.255  15.964 -0.3440  0.0386  0.5419
  708TIP3    H223616   6.706   4.154  15.956 -0.0197  0.4347  0.0664
  709TIP3   OH223617   3.326   5.819   1.516  0.5606 -0.2946  0.1244
  709TIP3    H123618   3.367   5.843   1.599  0.1649  0.1749  0.1890
  709TIP3    H223619   3.306   5.903   1.475 -2.6900 -0.4716  1.2448
  710TIP3   OH223620   6.334   5.466   1.826 -0.2892  0.1062  0.4060
  710TIP3    H123621   6.279   5.449   1.902 -2.4964  0.4211 -1.0870
  710TIP3    H223622   6.294   5.415   1.755  2.2788 -0.9589 -0.3450
  711TIP3   OH223623   3.585   2.884  16.376  0.2731  0.0308 -0.1691
  711TIP3    H123624   3.611   2.968  16.338 -1.8696  0.4348 -0.8234
  711TIP3    H223625   3.492   2.895  16.396  0.3843 -1.6103  1.3693
  712TIP3   OH223626   2.860   2.678  13.163  0.4646 -0.3074  0.3024
  712TIP3    H123627   2.817   2.647  13.083  1.5881 -0.7153 -0.1516
  712TIP3    H223628   2.793   2.731  13.207 -0.5353 -1.0161 -0.3345
  713TIP3   OH223629   3.505   6.803  16.332 -0.3143  0.2073  0.4315
  713TIP3    H123630   3.435   6.761  16.381 -0.5948 -0.2445 -0.3295
  713TIP3    H223631   3.474   6.892  16.315 -0.7989 -0.0607 -0.0930
  714TIP3   OH223632   1.574   4.257  12.915  0.5761 -0.0651 -0.3901
  714TIP3    H123633   1.556   4.268  13.008  1.3602  1.1328 -0.3660
  714TIP3    H223634   1.490   4.231  12.877  0.0279  0.3819  0.4950
  715TIP3   OH223635   0.751   5.568   2.260  0.2879  0.9660 -0.3116
  715TIP3    H123636   0.773   5.476   2.273 -1.1332  0.4946 -1.1701
  715TIP3    H223637   0.739   5.577   2.165  1.5765  2.3050 -0.3713
  716TIP3   OH223638   0.097   4.500   6.617 -0.0925  0.3841 -0.3321
  716TIP3    H123639   0.066   4.450   6.693  2.2727  1.2336  1.2473
  716TIP3    H223640   0.136   4.434   6.560  4.3659  0.4433  2.4308
  717TIP3   OH223641   0.409   5.542  13.992  0.1994 -0.0260 -0.4730
  717TIP3    H123642   0.376   5.453  14.001 -0.4424  0.1989 -0.5890
  717TIP3    H223643   0.484   5.546  14.052  0.6715 -0.8561 -1.0017
  718TIP3   OH223644   3.694   6.745  14.779  0.4987 -0.1727 -0.4574
  718TIP3    H123645   3.757   6.690  14.731  2.4079  0.2136  1.5424
  718TIP3    H223646   3.748   6.811  14.822 -1.2115 -0.1378  1.7113
  719TIP3   OH223647   3.129   6.311  11.213 -0.6052  0.0327 -0.3607
  719TIP3    H123648   3.068   6.384  11.200 -0.5269  0.1346 -0.1703
  719TIP3    H223649   3.100   6.244  11.152 -2.2014 -0.7430  1.2259
  720TIP3   OH223650   5.554   2.110   6.091 -0.4977  0.0517 -0.1443
  720TIP3    H123651   5.584   2.031   6.137  0.0544  0.3932  0.0813
  720TIP3    H223652   5.572   2.182   6.151  1.8759  0.7194 -1.5930
  721TIP3   OH223653   4.614   0.753  14.085 -0.2039  0.2168  0.0759
  721TIP3    H123654   4.578   0.771  13.998  1.0937  0.3583 -0.4497
  721TIP3    H223655   4.564   0.810  14.143 -1.6714 -0.5110 -0.4460
  722TIP3   OH223656   4.070   2.289  14.723  0.2488 -0.2937  0.2535
  722TIP3    H123657   3.995   2.232  14.741 -0.0074 -0.4694 -1.3172
  722TIP3    H223658   4.144   2.242  14.759 -0.2257 -0.7278  0.6776
  723TIP3   OH223659   3.338   4.917  13.157 -0.5999 -0.8436 -0.0872
  723TIP3    H123660   3.352   4.999  13.204 -0.5576 -1.3421  0.7730
  723TIP3    H223661   3.287   4.943  13.080  0.3462  0.1503 -0.4007
  724TIP3   OH223662   4.812   1.667   3.365  0.2612 -0.7232  0.4707
  724TIP3    H123663   4.731   1.619   3.383 -0.5456  0.6323  0.5438
  724TIP3    H223664   4.847   1.688   3.451 -1.1669  1.7265  0.5005
  725TIP3   OH223665   4.835   1.913   4.318  0.5707  0.2243 -0.1305
  725TIP3    H123666   4.762   1.878   4.268  0.5013  0.9477 -0.5389
  725TIP3    H223667   4.795   1.948   4.398  0.4821  0.5175 -0.3024
  726TIP3   OH223668   5.918   3.550  11.304 -0.7123 -0.0910 -0.2205
  726TIP3    H123669   5.993   3.603  11.332 -1.1508  1.2654 -1.5550
  726TIP3    H223670   5.957   3.480  11.251 -0.4135  0.8355 -1.2339
  727TIP3   OH223671   3.539   0.161   0.244 -0.8117  0.0980  0.0321
  727TIP3    H123672   3.613   0.118   0.287 -1.0504 -1.3105 -0.9664
  727TIP3    H223673   3.515   0.232   0.305  1.8395  1.0970  0.0002
  728TIP3   OH223674   5.187   5.161   2.223  0.5457 -0.0735  0.4324
  728TIP3    H123675   5.209   5.173   2.131  0.8982 -3.1408  0.0575
  728TIP3    H223676   5.271   5.156   2.268  0.4121 -0.2820  0.6631
  729TIP3   OH223677   2.491   5.027  12.543 -0.2810  0.1552  0.1616
  729TIP3    H123678   2.564   5.034  12.482  0.1719 -1.4026  0.4924
  729TIP3    H223679   2.522   5.069  12.624 -0.3402  0.9082 -0.2057
  730TIP3   OH223680   1.213   3.895  11.105  0.2327  0.6728 -0.1676
  730TIP3    H123681   1.176   3.810  11.130 -1.6705  1.0144 -1.7252
  730TIP3    H223682   1.294   3.873  11.059  0.2239 -0.2558  0.2444
  731TIP3   OH223683   6.075   4.902   5.690 -0.1874 -0.2022  0.3622
  731TIP3    H123684   6.006   4.883   5.754 -0.0679 -0.1669  0.5028
  731TIP3    H223685   6.153   4.858   5.725 -0.5593 -1.7548 -0.7121
  732TIP3   OH223686   4.457   6.355  11.996  0.1357  0.1330 -0.4212
  732TIP3    H123687   4.524   6.292  11.969 -0.5755  0.1572 -2.2691
  732TIP3    H223688   4.381   6.301  12.018 -0.3750  0.3133 -1.7158
  733TIP3   OH223689   1.940   4.754  14.529  0.1441  0.3464  0.0861
  733TIP3    H123690   2.007   4.794  14.585  0.4517 -0.2349  0.1421
  733TIP3    H223691   1.987   4.733  14.448  0.4632 -1.6252  0.7508
  734TIP3   OH223692   3.816   6.664   4.406 -0.3613 -0.4032  0.0979
  734TIP3    H123693   3.786   6.646   4.317  0.3096  0.0157 -0.2196
  734TIP3    H223694   3.909   6.643   4.404 -0.4405 -0.8289  0.8279
  735TIP3   OH223695   4.306   5.558   3.139 -0.6626 -0.1948 -0.2827
  735TIP3    H123696   4.261   5.474   3.135 -1.3305  0.1333  0.1751
  735TIP3    H223697   4.315   5.585   3.048  0.0237 -0.9980 -0.4657
  736TIP3   OH223698   1.907   3.843   0.378 -0.5823  1.0253  0.4010
  736TIP3    H123699   1.964   3.768   0.395  0.3641  1.7861  0.6833
  736TIP3    H223700   1.820   3.814   0.405  0.1554  0.7536  2.5839
  737TIP3   OH223701   5.752   3.427  15.491  0.1367 -0.2545 -0.1607
  737TIP3    H123702   5.717   3.442  15.403 -1.9531 -0.0875  0.6567
  737TIP3    H223703   5.696   3.480  15.548  2.2696  0.6492  1.1530
  738TIP3   OH223704   5.863   2.303   3.793 -0.1855  0.1229  0.0263
  738TIP3    H123705   5.924   2.370   3.762 -1.1747  0.5186 -1.1269
  738TIP3    H223706   5.907   2.220   3.776 -0.5288  0.3496 -2.1151
  739TIP3   OH223707   5.104   0.981   5.349  0.6809 -0.6252 -0.1710
  739TIP3    H123708   5.146   0.916   5.292  0.2329  0.5160 -1.8654
  739TIP3    H223709   5.010   0.967   5.335  0.5529 -0.9758  1.0409
  740TIP3   OH223710   0.019   2.707   5.036  0.1812  0.0245  0.2932
  740TIP3    H123711   0.028   2.631   5.093 -1.3848 -1.7044 -1.7118
  740TIP3    H223712  -0.048   2.761   5.078 -1.9869 -1.9219 -0.5887
  741TIP3   OH223713   5.365   5.189  15.901 -0.2060 -0.0670  0.3376
  741TIP3    H123714   5.448   5.229  15.928 -0.5320 -0.1273  1.4625
  741TIP3    H223715   5.299   5.256  15.918 -0.6946 -0.8996  1.8063
  742TIP3   OH223716   5.719   3.471   1.944 -0.0071 -0.1362  0.5009
  742TIP3    H123717   5.686   3.381   1.938  1.3250 -0.6507  0.5625
  742TIP3    H223718   5.695   3.499   2.032  0.4637 -0.8157  0.8537
  743TIP3   OH223719   1.694   3.570   0.952  0.4795  0.0047  0.2123
  743TIP3    H123720   1.784   3.550   0.928  0.2734 -0.7367  0.0326
  743TIP3    H223721   1.666   3.635   0.888  0.7073 -0.1788 -0.0746
  744TIP3   OH223722   1.781   5.502  17.285  0.3688  0.0776  0.0602
  744TIP3    H123723   1.734   5.570  17.333  0.1419  0.4750 -0.7164
  744TIP3    H223724   1.717   5.468  17.223  1.0812  0.5965 -0.9771
  745TIP3   OH223725   0.426   2.141  12.517  0.7227  0.0226 -0.3107
  745TIP3    H123726   0.342   2.155  12.473  0.6687 -0.4024 -0.3459
  745TIP3    H223727   0.469   2.226  12.516  0.6169  0.0682 -0.9784
  746TIP3   OH223728   1.271   2.177   2.678  0.3155  0.2958 -0.4437
  746TIP3    H123729   1.301   2.267   2.688  1.4407  0.0617 -1.5215
  746TIP3    H223730   1.295   2.135   2.761  0.9565  0.6780 -0.4249
  747TIP3   OH223731   5.180   0.207   0.571 -0.2617  1.0234  0.2236
  747TIP3    H123732   5.232   0.191   0.492  0.1417 -0.8100  0.8315
  747TIP3    H223733   5.091   0.182   0.547  0.1263 -0.9929  0.7633
  748TIP3   OH223734   5.821   5.469  11.015  0.2566  0.0665  0.3891
  748TIP3    H123735   5.858   5.554  10.993  0.3993 -0.2159 -0.4876
  748TIP3    H223736   5.741   5.489  11.063 -0.1949  0.7062 -0.6110
  749TIP3   OH223737   1.021   3.199  14.640  0.1912  0.6165 -0.4816
  749TIP3    H123738   0.946   3.214  14.583 -2.0179  2.4389  2.6933
  749TIP3    H223739   1.017   3.106  14.662 -0.0238  0.3103 -1.7780
  750TIP3   OH223740   0.310   1.551   1.402 -0.1118 -0.4124  0.0070
  750TIP3    H123741   0.312   1.579   1.493  0.5826  0.0997 -0.1713
  750TIP3    H223742   0.401   1.554   1.372 -0.5615  1.2837 -1.2728
  751TIP3   OH223743   5.878   2.340  15.776  0.2242 -0.0308  0.1047
  751TIP3    H123744   5.808   2.404  15.791 -0.7792 -0.9499 -0.5545
  751TIP3    H223745   5.957   2.393  15.765 -0.4388  1.0460  0.4394
  752TIP3   OH223746   3.550   2.063  16.925 -0.0123 -0.5954  0.3679
  752TIP3    H123747   3.613   2.123  16.883  0.1068 -0.8175  0.2273
  752TIP3    H223748   3.469   2.113  16.929 -0.1484 -0.7307 -0.5506
  753TIP3   OH223749   2.925   0.213   6.808 -0.8391  0.3534 -0.1559
  753TIP3    H123750   2.948   0.304   6.790 -0.3762  0.0963 -0.8962
  753TIP3    H223751   2.832   0.207   6.784 -0.1346 -0.0901 -3.0155
  754TIP3   OH223752   3.715   5.088  13.442  0.4074 -0.1550 -0.3431
  754TIP3    H123753   3.760   5.058  13.364  1.0874 -1.4753  0.5310
  754TIP3    H223754   3.674   5.009  13.478  0.9547  0.2254  1.1656
  755TIP3   OH223755   1.033   4.314   1.420  0.0475 -0.3172  0.0639
  755TIP3    H123756   1.011   4.309   1.327 -0.6003  0.1313  0.1879
  755TIP3    H223757   0.975   4.251   1.462  0.0775 -0.2526  0.2042
  756TIP3   OH223758   6.548   5.843   1.583  0.1588 -0.3349 -0.4772
  756TIP3    H123759   6.489   5.782   1.627  0.4470 -0.6049 -0.4606
  756TIP3    H223760   6.635   5.821   1.617  0.1164  0.9984  0.5938
  757TIP3   OH223761   3.948   6.793  10.583  0.1354 -0.0826 -0.6506
  757TIP3    H123762   3.939   6.792  10.488  1.6746 -0.1444 -0.8032
  757TIP3    H223763   3.953   6.701  10.608  0.7261 -0.0435 -0.6148
  758TIP3   OH223764   5.198   6.479   0.139  0.4549 -0.0874  0.1625
  758TIP3    H123765   5.187   6.494   0.233  1.5002 -0.9190  0.4215
  758TIP3    H223766   5.175   6.563   0.099 -0.8117  0.0221  1.0952
  759TIP3   OH223767   4.402   1.492   0.099  0.3088  0.1581  0.1046
  759TIP3    H123768   4.480   1.536   0.066  0.0678  0.7818  0.3627
  759TIP3    H223769   4.415   1.400   0.075  1.4185  0.1502  0.6916
  760TIP3   OH223770   3.132   5.234   2.001  0.4034  0.0519 -0.5127
  760TIP3    H123771   3.104   5.309   1.948 -0.1822 -0.0490 -0.3528
  760TIP3    H223772   3.144   5.270   2.089 -1.3805 -0.3245 -0.0787
  761TIP3   OH223773   3.455   6.693   5.130  0.4383  0.0105 -0.2644
  761TIP3    H123774   3.462   6.788   5.137 -0.3737  0.1110 -0.7163
  761TIP3    H223775   3.515   6.659   5.196  0.6799  0.8373 -0.0564
  762TIP3   OH223776   4.018   3.149   5.662  0.1895  0.4958  0.4292
  762TIP3    H123777   3.927   3.141   5.632 -0.3156  3.0097  1.1282
  762TIP3    H223778   4.017   3.224   5.722  2.5200 -0.1463  1.3458
  763TIP3   OH223779   0.515   5.854  13.347  0.0944 -0.2650 -0.1627
  763TIP3    H123780   0.493   5.781  13.406 -2.6002  1.0742  0.5338
  763TIP3    H223781   0.527   5.929  13.405  0.3783  0.4194 -1.0986
  764TIP3   OH223782   3.234   0.656  12.456 -0.5117  0.2897 -0.3094
  764TIP3    H123783   3.170   0.591  12.486  0.9773 -0.5907  1.0359
  764TIP3    H223784   3.279   0.613  12.383 -0.9602  0.6359 -0.7937
  765TIP3   OH223785   3.447   2.848  11.572 -0.3810  0.1221 -0.2497
  765TIP3    H123786   3.476   2.837  11.481 -1.2178 -0.5236 -0.4426
  765TIP3    H223787   3.390   2.925  11.570  0.2618  0.6013 -0.1166
  766TIP3   OH223788   6.729   5.422  11.688  0.0629 -0.0145  0.5330
  766TIP3    H123789   6.754   5.373  11.610  1.0631  2.4664 -0.7672
  766TIP3    H223790   6.644   5.461  11.666  0.6205  1.1756  0.4144
  767TIP3   OH223791   4.159   5.408  14.990  1.1540 -0.7704 -0.5733
  767TIP3    H123792   4.153   5.466  14.914  1.5414 -0.7509 -0.5908
  767TIP3    H223793   4.139   5.321  14.955 -1.0358 -0.4392 -0.2510
  768TIP3   OH223794   5.125   3.721   0.297 -0.1382 -0.2388  0.3028
  768TIP3    H123795   5.088   3.731   0.209 -1.1499  0.7006  0.8189
  768TIP3    H223796   5.205   3.774   0.295  1.5806 -2.8040 -1.0155
  769TIP3   OH223797   5.402   2.724  12.116 -0.6163  0.3572 -0.3034
  769TIP3    H123798   5.391   2.779  12.193  1.0406  0.2486  0.0247
  769TIP3    H223799   5.471   2.766  12.065  1.7924 -2.1602  0.7026
  770TIP3   OH223800   4.166   1.843   3.607  0.3148 -0.0001  0.1966
  770TIP3    H123801   4.224   1.769   3.625 -0.0745 -0.1377  0.8876
  770TIP3    H223802   4.117   1.856   3.688  1.8839  2.3937  0.8173
  771TIP3   OH223803   3.176   5.387   1.669  0.0031 -0.2796  0.0926
  771TIP3    H123804   3.257   5.422   1.632  0.2738 -0.2382  0.7128
  771TIP3    H223805   3.141   5.459   1.721 -1.4340  0.3513 -1.7072
  772TIP3   OH223806   0.245   0.778  15.435  0.0759  0.0732  0.0164
  772TIP3    H123807   0.155   0.763  15.408  0.4923 -1.1856 -0.7470
  772TIP3    H223808   0.247   0.868  15.466 -1.5513 -0.0583  0.5085
  773TIP3   OH223809   0.336   5.375   4.660 -0.2497  0.1337  0.2045
  773TIP3    H123810   0.291   5.459   4.654  0.4472  0.4765 -0.3161
  773TIP3    H223811   0.385   5.368   4.578 -0.2658 -0.7596  0.2664
  774TIP3   OH223812   3.708   5.194  14.182 -0.0098 -0.0212 -0.0514
  774TIP3    H123813   3.782   5.171  14.125 -1.7115  0.0796 -2.3594
  774TIP3    H223814   3.724   5.285  14.206  1.4231 -0.4671  0.7691
  775TIP3   OH223815   0.128   2.479  13.624  0.1166  0.2267 -0.2107
  775TIP3    H123816   0.222   2.474  13.606 -0.0459  0.3684 -1.0796
  775TIP3    H223817   0.107   2.394  13.663  0.6701  0.3223  0.3150
  776TIP3   OH223818   1.138   3.657  11.701 -0.0100  0.1839  0.1224
  776TIP3    H123819   1.116   3.712  11.626 -0.0034  1.2472  0.8813
  776TIP3    H223820   1.193   3.713  11.756 -0.9612 -0.1936  1.4686
  777TIP3   OH223821   2.116   1.482   0.239 -0.1340  0.1768  0.1362
  777TIP3    H123822   2.159   1.533   0.308  2.0551 -0.6249 -0.6163
  777TIP3    H223823   2.125   1.391   0.267  1.9846 -0.2582 -1.8532
  778TIP3   OH223824   2.796   5.282  16.133 -0.0943  0.3769  0.0040
  778TIP3    H123825   2.872   5.266  16.189  0.0123  0.4849 -0.1112
  778TIP3    H223826   2.751   5.356  16.174  0.3980  0.9420 -0.4778
  779TIP3   OH223827   5.455   0.565   4.937  0.0005  0.5445 -0.2151
  779TIP3    H123828   5.550   0.555   4.930 -0.2363 -0.8109 -1.7139
  779TIP3    H223829   5.427   0.592   4.849 -1.0357  0.6882  0.1548
  780TIP3   OH223830   1.557   5.825   5.862 -0.1706 -0.0256  0.0016
  780TIP3    H123831   1.534   5.801   5.952 -0.3517  1.7400  0.4457
  780TIP3    H223832   1.507   5.905   5.846  3.1032  2.0483 -0.1973
  781TIP3   OH223833   0.617   1.322  12.901 -0.3121 -0.2450 -0.2177
  781TIP3    H123834   0.659   1.305  12.986 -0.0080 -0.9276 -0.4959
  781TIP3    H223835   0.558   1.247  12.889  0.1537 -0.5014 -0.9228
  782TIP3   OH223836   1.943   3.535  14.775 -0.3276  0.3259  0.0224
  782TIP3    H123837   1.942   3.563  14.684 -2.0933  1.1575  0.2651
  782TIP3    H223838   1.992   3.604  14.821  0.4021  0.0006 -0.2667
  783TIP3   OH223839   1.570   1.668  14.494  0.3094  0.0004  0.9001
  783TIP3    H123840   1.475   1.662  14.503  0.6519 -0.0642  5.9892
  783TIP3    H223841   1.587   1.761  14.480 -0.3826  0.4713  3.0009
  784TIP3   OH223842   4.425   1.962   1.763  0.4872 -0.1504 -0.0079
  784TIP3    H123843   4.361   1.959   1.834 -0.7083  1.7060 -0.9712
  784TIP3    H223844   4.502   2.005   1.802 -0.1115  0.7405  0.2049
  785TIP3   OH223845   6.331   1.782  15.739  0.1297 -0.5695  0.5057
  785TIP3    H123846   6.243   1.786  15.700  1.2960  0.0405 -2.1848
  785TIP3    H223847   6.358   1.691  15.729  0.9477 -0.1399 -1.3729
  786TIP3   OH223848   2.116   4.568   5.334  0.2257  0.3997  0.0499
  786TIP3    H123849   2.081   4.575   5.423  1.2723 -2.6290  0.7673
  786TIP3    H223850   2.046   4.526   5.284  0.4411  0.1870 -0.0689
  787TIP3   OH223851   0.079   2.726  16.312 -0.2077 -0.5328  0.2614
  787TIP3    H123852   0.058   2.818  16.295  0.0951 -0.3962  0.6220
  787TIP3    H223853   0.175   2.723  16.312 -0.2029 -1.1357 -1.2916
  788TIP3   OH223854   3.228   6.781  11.232 -0.0567 -0.3356  0.5090
  788TIP3    H123855   3.215   6.721  11.158  0.0313 -1.3483  1.3026
  788TIP3    H223856   3.323   6.794  11.235  0.1253 -1.7905  1.5907
  789TIP3   OH223857   5.877   6.055   2.716 -0.0036 -0.6053  0.0401
  789TIP3    H123858   5.901   6.070   2.808  0.2436 -0.2860 -0.0771
  789TIP3    H223859   5.934   6.113   2.666  0.5264 -1.4732 -0.3747
  790TIP3   OH223860   0.965   3.541   0.621  0.1567  0.3469 -0.4221
  790TIP3    H123861   0.896   3.505   0.677  0.4765  0.0790 -0.2014
  790TIP3    H223862   0.922   3.613   0.574 -1.1988 -1.9103 -2.7970
  791TIP3   OH223863   6.749   0.840   2.976  0.1354 -0.6371  0.7433
  791TIP3    H123864   6.833   0.819   2.935 -0.5459 -1.5467 -0.1995
  791TIP3    H223865   6.744   0.935   2.974  0.6693 -0.6243 -0.1559
  792TIP3   OH223866   4.901   1.558  15.170  0.0991  0.5495 -0.3367
  792TIP3    H123867   4.829   1.576  15.230 -1.5857 -3.0144 -1.1545
  792TIP3    H223868   4.916   1.641  15.124 -1.0059  2.3093  2.4166
  793TIP3   OH223869   6.576   3.402  10.926 -0.7735  0.3875  0.4608
  793TIP3    H123870   6.630   3.441  10.857  1.4246  0.8181  2.3511
  793TIP3    H223871   6.493   3.449  10.920 -0.0196  1.6062 -0.8038
  794TIP3   OH223872   4.285   2.242  13.665  0.2866  0.0658 -0.3749
  794TIP3    H123873   4.192   2.223  13.654  0.7322 -1.7885 -1.1880
  794TIP3    H223874   4.313   2.189  13.740  1.0792 -0.8589 -1.3008
  795TIP3   OH223875   3.660   5.844   4.121 -0.0953  0.0926  0.2214
  795TIP3    H123876   3.679   5.782   4.191 -1.5919 -1.0062 -0.3181
  795TIP3    H223877   3.746   5.875   4.092  0.5952 -0.5965  1.5065
  796TIP3   OH223878   5.901   5.676   4.973  0.2488  0.6586  0.2143
  796TIP3    H123879   5.856   5.701   4.892  0.0930  0.6211  0.2888
  796TIP3    H223880   5.834   5.631   5.025  0.2150  1.1301  0.5805
  797TIP3   OH223881   5.492   5.173   4.344 -0.3326  0.3725  1.0745
  797TIP3    H123882   5.445   5.249   4.379 -2.7980 -0.8087  0.4530
  797TIP3    H223883   5.431   5.100   4.356 -0.0196 -0.6314 -2.7762
  798TIP3   OH223884   0.417   4.772  17.088 -0.1587  0.4405 -0.4855
  798TIP3    H123885   0.345   4.834  17.105  0.8420  1.6859 -0.7336
  798TIP3    H223886   0.494   4.827  17.076  0.9087 -0.8985  0.0627
  799TIP3   OH223887   1.808   3.579  14.148 -0.3902 -0.7249 -0.0930
  799TIP3    H123888   1.864   3.630  14.207 -0.1530 -0.4459 -0.5563
  799TIP3    H223889   1.783   3.503  14.200 -1.1741  0.1135  0.7942
  800TIP3   OH223890   1.605   4.602   4.218 -0.4054  0.0437  0.8642
  800TIP3    H123891   1.512   4.607   4.193 -0.1397 -2.9688 -0.9450
  800TIP3    H223892   1.610   4.525   4.273  0.4755  2.1569  3.8670
  801TIP3   OH223893   6.673   3.054  11.680  0.4238 -0.1485 -0.3116
  801TIP3    H123894   6.735   3.125  11.699  1.5354 -1.3002  0.4904
  801TIP3    H223895   6.688   3.033  11.588  1.1318 -0.3282 -0.1559
  802TIP3   OH223896   4.318   2.031  12.818  0.0756  0.2407 -0.4462
  802TIP3    H123897   4.337   2.101  12.755 -2.0026  0.2024 -1.1587
  802TIP3    H223898   4.350   2.065  12.902 -0.8549  2.0683 -0.7911
  803TIP3   OH223899   1.273   6.403  11.529 -0.1044 -0.4338 -0.0380
  803TIP3    H123900   1.348   6.430  11.477 -0.1554 -0.2406 -0.0104
  803TIP3    H223901   1.206   6.379  11.464 -0.5379  0.8130 -0.0684
  804TIP3   OH223902   4.956   4.105  13.841 -0.3871 -0.1067 -0.0951
  804TIP3    H123903   4.978   4.128  13.751 -0.7807  0.5183 -0.0345
  804TIP3    H223904   5.035   4.061  13.874 -0.5573 -1.1129 -1.0073
  805TIP3   OH223905   5.417   5.746  15.985  0.1227 -0.8433  0.2808
  805TIP3    H123906   5.473   5.719  16.058 -1.6447  0.2859  2.0965
  805TIP3    H223907   5.421   5.673  15.923  1.2579 -2.0209  1.7161
  806TIP3   OH223908   4.099   1.899   4.403 -0.5510  0.3045  0.3275
  806TIP3    H123909   4.133   1.819   4.443 -0.8342 -0.7539 -1.5043
  806TIP3    H223910   4.014   1.912   4.444  0.0443  0.3807  1.5533
  807TIP3   OH223911   5.637   6.796  11.218  0.3766 -0.4882  0.2447
  807TIP3    H123912   5.615   6.726  11.157 -1.2121  0.1749  0.0410
  807TIP3    H223913   5.589   6.774  11.298 -1.6536  1.3472 -0.4318
  808TIP3   OH223914   0.781   5.244  12.362 -0.6241  0.0536  0.5848
  808TIP3    H123915   0.714   5.312  12.371 -0.2553  0.5035 -0.0018
  808TIP3    H223916   0.864   5.292  12.371 -0.2102  0.3839 -3.7158
  809TIP3   OH223917   4.374   5.252   5.954 -0.3926 -0.4168 -0.3589
  809TIP3    H123918   4.369   5.158   5.970 -1.5724  0.0351  2.1418
  809TIP3    H223919   4.460   5.277   5.989 -1.5978  0.0177  2.3691
  810TIP3   OH223920   1.475   0.468  14.324 -0.1519 -0.3414 -0.2527
  810TIP3    H123921   1.390   0.496  14.290 -1.3403 -1.6176  1.5827
  810TIP3    H223922   1.495   0.388  14.274 -0.5000 -0.5700 -0.0329
  811TIP3   OH223923   0.344   5.840  11.185  0.2788  0.4004 -0.0223
  811TIP3    H123924   0.427   5.801  11.157  0.5801  0.0879  1.3051
  811TIP3    H223925   0.368   5.927  11.217 -0.0554  0.7228 -0.6350
  812TIP3   OH223926   5.995   3.624  13.156  0.5870 -0.4313  0.2843
  812TIP3    H123927   6.024   3.706  13.116 -1.2067 -0.7125 -1.7546
  812TIP3    H223928   5.966   3.649  13.243  0.0940  1.1220 -0.2987
  813TIP3   OH223929   6.441   0.189  12.250  0.4719 -0.3423  0.0872
  813TIP3    H123930   6.414   0.264  12.197 -2.2232 -2.4971 -1.7385
  813TIP3    H223931   6.496   0.137  12.191  0.0021 -1.2147  0.4191
  814TIP3   OH223932   0.376   5.168  16.333 -0.2241  0.8001  0.2288
  814TIP3    H123933   0.304   5.141  16.389  1.2249 -2.4915  0.5736
  814TIP3    H223934   0.403   5.253  16.368 -5.2059  3.1775 -1.2036
  815TIP3   OH223935   4.050   0.465  16.134  0.1517  0.7894 -0.7295
  815TIP3    H123936   3.979   0.406  16.108 -0.8608  0.8744  1.7202
  815TIP3    H223937   4.128   0.409  16.138 -0.6889 -0.2999  1.0264
  816TIP3   OH223938   2.898   2.608  16.362  0.2613 -0.4070 -0.1039
  816TIP3    H123939   2.828   2.548  16.334 -0.5518  0.4822  0.0234
  816TIP3    H223940   2.956   2.615  16.286  1.0783 -2.3757  0.3009
  817TIP3   OH223941   1.920   5.739  11.094 -0.0818 -0.1580  0.7193
  817TIP3    H123942   1.916   5.684  11.016 -1.9673 -0.4037  0.9471
  817TIP3    H223943   1.902   5.827  11.062  2.6967  0.3298  0.3894
  818TIP3   OH223944   1.798   2.883  12.731 -0.0878 -0.0066  0.1197
  818TIP3    H123945   1.861   2.952  12.708 -0.7626  0.0908 -1.5113
  818TIP3    H223946   1.851   2.815  12.771  0.6941  1.1629  1.1082
  819TIP3   OH223947   0.718   2.573   5.011 -0.0077 -0.0527 -0.0887
  819TIP3    H123948   0.795   2.517   5.019  1.8111  2.0474 -2.0096
  819TIP3    H223949   0.677   2.547   4.928  0.2622  0.7279 -0.4762
  820TIP3   OH223950   1.210   4.817  16.890 -0.2119  0.1741  0.4288
  820TIP3    H123951   1.150   4.758  16.936  0.8600  0.3006  2.0538
  820TIP3    H223952   1.289   4.765  16.876  0.3948  0.9225  1.0266
  821TIP3   OH223953   1.522   0.624   6.243 -0.1564 -0.1489 -0.1530
  821TIP3    H123954   1.459   0.612   6.315  0.7792 -2.7210  0.3069
  821TIP3    H223955   1.566   0.706   6.262 -0.3643 -0.4885  1.9100
  822TIP3   OH223956   3.826   5.354  17.013 -0.1647 -0.0985  0.2258
  822TIP3    H123957   3.789   5.269  16.989  1.2404 -0.6988  0.1489
  822TIP3    H223958   3.827   5.354  17.109  0.0376 -0.2715  0.2271
  823TIP3   OH223959   5.477   6.780  12.771 -0.0230  0.4273  0.0390
  823TIP3    H123960   5.489   6.806  12.862 -1.7752 -0.6288  0.6004
  823TIP3    H223961   5.398   6.826  12.743 -0.2305 -0.2671 -0.5398
  824TIP3   OH223962   1.937   2.184  11.178 -0.3146  0.4970  0.0405
  824TIP3    H123963   2.003   2.115  11.181  2.4440  3.0454  0.4714
  824TIP3    H223964   1.859   2.142  11.142  1.1098 -2.9359  0.8365
  825TIP3   OH223965   0.742   2.011   5.548  0.3613 -0.5925 -0.5789
  825TIP3    H123966   0.726   2.002   5.642 -0.1400  1.1226 -0.4711
  825TIP3    H223967   0.658   1.994   5.508  0.3061 -0.2123 -0.6289
  826TIP3   OH223968   2.347   4.619   3.878 -1.1116  0.2629 -0.7630
  826TIP3    H123969   2.437   4.608   3.849 -1.2409 -1.2150 -0.6078
  826TIP3    H223970   2.351   4.693   3.938  0.0855 -0.1266 -0.3438
  827TIP3   OH223971   0.962   0.087  14.316 -1.6084  0.0459  0.2534
  827TIP3    H123972   1.055   0.103  14.334 -1.6029 -0.5488  0.7739
  827TIP3    H223973   0.919   0.170  14.338 -1.2556  0.1860  0.4248
  828TIP3   OH223974   1.571   3.059  16.604  0.3309  0.1754  0.1873
  828TIP3    H123975   1.513   3.045  16.529  0.4236  0.7332  0.0175
  828TIP3    H223976   1.566   3.153  16.622  2.6811  0.5573 -1.0209
  829TIP3   OH223977   0.847   2.009  15.845  0.6292 -0.5709 -0.0580
  829TIP3    H123978   0.771   2.049  15.803  0.0900 -2.0577 -0.5551
  829TIP3    H223979   0.916   2.075  15.838 -0.9057  1.2365  1.3933
  830TIP3   OH223980   0.539   3.102  16.019 -0.3770 -0.3757 -0.4486
  830TIP3    H123981   0.627   3.065  16.009 -0.6428 -0.5186 -2.3415
  830TIP3    H223982   0.499   3.049  16.088  0.1743 -1.9317 -1.2921
  831TIP3   OH223983   1.593   3.537   3.530 -1.0537  0.0263  0.2343
  831TIP3    H123984   1.640   3.483   3.593 -0.3127  0.7651  0.3264
  831TIP3    H223985   1.645   3.618   3.524 -1.9246  0.5631 -0.1997
  832TIP3   OH223986   4.308   5.036   1.443 -0.7239 -0.6658 -0.2813
  832TIP3    H123987   4.293   4.958   1.390  1.2960 -1.3615  0.1022
  832TIP3    H223988   4.336   5.002   1.528  2.7756  0.4215 -0.9226
  833TIP3   OH223989   1.712   5.910  12.594 -0.0153 -0.4531  0.1970
  833TIP3    H123990   1.643   5.912  12.529 -0.6453  2.2878  0.9024
  833TIP3    H223991   1.786   5.955  12.553  0.0600  0.0184  0.8361
  834TIP3   OH223992   5.475   0.998   0.822 -0.1095  0.2931 -0.8560
  834TIP3    H123993   5.507   1.026   0.908 -2.1265  1.9236 -0.6085
  834TIP3    H223994   5.472   1.079   0.770  0.4221 -0.5669 -2.2738
  835TIP3   OH223995   3.074   3.407   0.393 -0.1370 -0.7986 -0.2664
  835TIP3    H123996   3.097   3.343   0.326  1.5877 -0.1875 -0.2912
  835TIP3    H223997   3.076   3.358   0.475  0.7333 -0.8901 -0.3389
  836TIP3   OH223998   2.952   2.071   4.940  0.0888  0.3476 -0.3025
  836TIP3    H123999   3.031   2.103   4.897 -0.3145  1.0091 -0.5574
  836TIP3    H224000   2.896   2.148   4.949 -0.1169  0.0795  0.7768
  837TIP3   OH224001   0.125   5.027  12.410 -0.0370 -0.1855  0.2808
  837TIP3    H124002   0.150   4.999  12.498  2.4823 -0.1279 -0.3844
  837TIP3    H224003   0.125   5.122  12.414  1.7185 -0.1590 -0.2106
  838TIP3   OH224004   1.000   5.612  14.188 -0.2590  0.3304 -0.4227
  838TIP3    H124005   0.978   5.577  14.101 -0.6271 -0.2901 -0.0794
  838TIP3    H224006   1.095   5.622  14.186 -0.2382  0.0702 -0.8119
  839TIP3   OH224007   3.596   4.130   0.164 -0.2532 -0.5491  0.1961
  839TIP3    H124008   3.610   4.072   0.088  2.8334 -0.6774  0.7912
  839TIP3    H224009   3.618   4.217   0.132 -0.6728 -0.3434  0.4703
  840TIP3   OH224010   2.070   5.283  15.619  0.3655 -0.3525 -0.5267
  840TIP3    H124011   2.108   5.222  15.682  0.4334 -0.2019 -0.4215
  840TIP3    H224012   2.002   5.232  15.575 -1.6225  0.3419  1.6112
  841TIP3   OH224013   3.445   0.777  15.093 -0.5549  0.0804 -0.1049
  841TIP3    H124014   3.417   0.840  15.159 -1.6368  1.5614 -1.9516
  841TIP3    H224015   3.363   0.746  15.053  0.1968  0.9451 -2.3560
  842TIP3   OH224016   5.822   6.092  16.135  0.0948 -0.3832 -0.1007
  842TIP3    H124017   5.789   6.124  16.051  1.7666 -0.4225 -0.7764
  842TIP3    H224018   5.849   6.170  16.182  0.1656 -0.4547 -0.0243
  843TIP3   OH224019   0.653   3.202   3.386  0.3462 -0.4583  0.2698
  843TIP3    H124020   0.585   3.135   3.372  1.2277 -1.2705 -0.1725
  843TIP3    H224021   0.625   3.247   3.466 -1.1555 -0.2278 -0.3590
  844TIP3   OH224022   3.407   3.861   4.154  0.4550  0.2864 -0.1188
  844TIP3    H124023   3.314   3.864   4.177  0.6856 -0.9232  1.0834
  844TIP3    H224024   3.410   3.812   4.072 -0.0010  0.5960 -0.3193
  845TIP3   OH224025   5.100   4.524  16.380 -0.0203  0.1018  0.1656
  845TIP3    H124026   5.112   4.546  16.287 -0.0197  0.8821  0.3454
  845TIP3    H224027   5.045   4.445  16.379 -0.7532  0.6075 -0.4781
  846TIP3   OH224028   2.087   6.120   4.584 -0.0767 -0.6263  0.1344
  846TIP3    H124029   2.076   6.099   4.676  1.2270 -1.5218  0.0991
  846TIP3    H224030   2.047   6.046   4.537 -0.8109 -0.1340 -0.0261
  847TIP3   OH224031   2.372   5.504  16.577  0.8176  0.0498 -0.3543
  847TIP3    H124032   2.398   5.412  16.576 -1.8902 -0.7601  0.0826
  847TIP3    H224033   2.300   5.510  16.513 -0.4338  1.3957  1.1217
  848TIP3   OH224034   2.935   3.400   6.322  0.3997  0.0480 -1.0472
  848TIP3    H124035   2.921   3.450   6.403  0.6005  1.3719 -1.8159
  848TIP3    H224036   3.023   3.363   6.332  0.7581  0.8875 -1.0060
  849TIP3   OH224037   5.126   5.944   4.623 -0.0632 -0.1096 -0.1486
  849TIP3    H124038   5.143   6.026   4.669 -0.5432 -0.2106  0.2228
  849TIP3    H224039   5.095   5.971   4.536 -0.8737  0.1156  0.2066
  850TIP3   OH224040   3.452   3.351   5.091  0.1863 -0.5127  0.5979
  850TIP3    H124041   3.374   3.322   5.043  1.7034 -2.2345 -0.9302
  850TIP3    H224042   3.482   3.429   5.045 -0.0441 -0.4563  0.5464
  851TIP3   OH224043   2.528   2.893  15.992  0.1979 -0.6369  0.2237
  851TIP3    H124044   2.481   2.963  15.947  1.9793 -0.4906 -1.5001
  851TIP3    H224045   2.538   2.924  16.082  0.2024  0.9376 -0.3027
  852TIP3   OH224046   3.768   1.894   4.097 -0.4396  0.3906  0.0571
  852TIP3    H124047   3.674   1.886   4.112 -0.3055 -1.3220  0.0605
  852TIP3    H224048   3.776   1.918   4.005 -0.8125 -2.1448 -0.6700
  853TIP3   OH224049   2.766   2.135  13.331  0.2082 -0.0060 -0.3347
  853TIP3    H124050   2.686   2.122  13.280  0.9342 -0.9072 -1.2532
  853TIP3    H224051   2.824   2.184  13.272  1.2714 -1.5752 -0.6052
  854TIP3   OH224052   3.307   6.764  14.569 -0.0793  0.2907  0.2316
  854TIP3    H124053   3.341   6.825  14.503 -1.3522 -0.0216 -0.7446
  854TIP3    H224054   3.254   6.819  14.627  0.1253  0.3904  0.3217
  855TIP3   OH224055   3.217   6.789   2.996 -0.0903 -0.0138 -0.3716
  855TIP3    H124056   3.277   6.793   3.071 -0.2088 -0.5459 -0.2418
  855TIP3    H224057   3.158   6.862   3.008 -0.2164 -0.2033  0.1513
  856TIP3   OH224058   6.430   0.334   2.389 -0.0338 -0.1885  0.4934
  856TIP3    H124059   6.360   0.275   2.420  0.0525 -0.5793 -0.0382
  856TIP3    H224060   6.494   0.335   2.460  0.4706 -1.5869  0.0776
  857TIP3   OH224061   3.394   4.235  15.868  0.0651  0.0890 -0.1175
  857TIP3    H124062   3.322   4.174  15.849  0.6057 -0.1366 -1.5245
  857TIP3    H224063   3.436   4.199  15.946 -1.3428  0.2253  0.7242
  858TIP3   OH224064   2.581   5.829  13.755 -0.3242  0.8839  0.2281
  858TIP3    H124065   2.543   5.886  13.688 -0.3450  0.3635 -0.2084
  858TIP3    H224066   2.561   5.872  13.838  0.2589  1.8533 -0.1389
  859TIP3   OH224067   1.605   6.718  17.101 -0.5063  0.1667 -0.5365
  859TIP3    H124068   1.600   6.762  17.016 -2.4554  0.3981 -0.3157
  859TIP3    H224069   1.651   6.636  17.083  1.7612  1.5497 -1.2457
  860TIP3   OH224070   3.541   2.064   5.519 -0.5108 -0.2776 -0.0305
  860TIP3    H124071   3.600   1.988   5.524 -0.9137 -0.6825 -1.3758
  860TIP3    H224072   3.592   2.131   5.474 -0.6556 -0.2262 -0.1180
  861TIP3   OH224073   0.063   0.957  13.965  0.6219  0.0259 -0.0291
  861TIP3    H124074   0.042   0.905  13.887  1.7335 -1.2042  0.4736
  861TIP3    H224075   0.038   1.046  13.942 -3.0602 -0.9723 -0.2902
  862TIP3   OH224076   6.175   0.979   3.760  0.1080  0.3598 -0.0788
  862TIP3    H124077   6.270   0.966   3.759  0.1766  0.9028 -1.0239
  862TIP3    H224078   6.161   1.057   3.707 -0.8270  0.5873  0.5007
  863TIP3   OH224079   4.585   6.283  16.995  0.3140  0.1800 -0.6847
  863TIP3    H124080   4.646   6.247  16.931  0.0801 -0.0194 -0.7967
  863TIP3    H224081   4.638   6.300  17.073  1.0270  2.4158 -1.6203
  864TIP3   OH224082   5.941   4.888   0.739  0.5710 -0.3149 -0.3493
  864TIP3    H124083   5.931   4.827   0.812 -0.2891 -0.0779 -0.2718
  864TIP3    H224084   5.998   4.957   0.774 -1.5127  0.8748  0.7779
  865TIP3   OH224085   3.601   3.846  13.481 -0.2377  0.2886 -0.1081
  865TIP3    H124086   3.534   3.780  13.462  0.4552 -0.8947  1.3718
  865TIP3    H224087   3.684   3.801  13.463  0.4576 -0.7581  4.7291
  866TIP3   OH224088   3.948   2.831  14.737 -0.1424 -0.2943 -0.2053
  866TIP3    H124089   3.922   2.915  14.774 -1.5672 -0.8610  0.1004
  866TIP3    H224090   3.976   2.780  14.813  0.0807 -0.3249 -0.3095
  867TIP3   OH224091   0.670   2.756  11.284 -0.2432  0.3539 -0.5240
  867TIP3    H124092   0.669   2.842  11.326 -0.0025 -0.0524  0.3453
  867TIP3    H224093   0.598   2.709  11.325 -0.1100  0.0038 -0.6875
  868TIP3   OH224094   3.067   3.115   6.132 -0.5160  0.4054  0.2070
  868TIP3    H124095   3.091   3.191   6.185  0.0385 -0.9832  1.9976
  868TIP3    H224096   3.141   3.055   6.142 -0.7926 -0.2325 -1.4697
  869TIP3   OH224097   5.167   6.174   3.244 -0.7353 -0.1569 -0.0524
  869TIP3    H124098   5.188   6.130   3.163 -0.7669  0.6719 -0.5213
  869TIP3    H224099   5.126   6.107   3.299  0.4163 -1.0318 -0.2407
  870TIP3   OH224100   2.596   3.275  14.207  0.4656  0.0153 -0.4393
  870TIP3    H124101   2.570   3.260  14.298  1.1911  0.6101 -0.1241
  870TIP3    H224102   2.535   3.341  14.175  0.2865 -0.1045 -0.3445
  871TIP3   OH224103   2.806   6.112  16.444  0.1924 -0.0335  0.6480
  871TIP3    H124104   2.802   6.183  16.508  0.5904 -0.6888  1.4007
  871TIP3    H224105   2.899   6.106  16.421  0.1317 -0.1934  0.4432
  872TIP3   OH224106   6.382   0.774   2.167  0.2869  0.6129  0.7911
  872TIP3    H124107   6.443   0.745   2.234 -0.8234 -0.0500  1.5405
  872TIP3    H224108   6.392   0.711   2.096 -0.6058 -0.4095  1.5479
  873TIP3   OH224109   0.359   2.011   0.623  0.4781 -0.5209  0.2861
  873TIP3    H124110   0.272   2.019   0.661  0.9651  0.8874  1.1588
  873TIP3    H224111   0.402   1.942   0.674  0.1830 -0.5865  0.4444
  874TIP3   OH224112   3.942   3.993   0.172  0.3306 -0.4545 -0.0493
  874TIP3    H124113   3.921   4.011   0.081 -1.0363 -0.4208  0.2512
  874TIP3    H224114   3.953   3.898   0.176  0.7848 -0.4153 -0.3179
  875TIP3   OH224115   5.054   1.678  17.189 -0.5526 -0.2825 -0.4768
  875TIP3    H124116   5.086   1.619  17.256 -1.3778  0.6175  0.7367
  875TIP3    H224117   4.996   1.738  17.236 -0.1442  1.1527 -1.7627
  876TIP3   OH224118   6.261   2.827   2.296  1.1739  0.3750 -0.5452
  876TIP3    H124119   6.297   2.856   2.380  0.1512  0.0207  0.0237
  876TIP3    H224120   6.276   2.901   2.237  2.5310  0.3554 -0.2468
  877TIP3   OH224121   5.367   5.473   3.692  0.0142 -0.0726 -0.2204
  877TIP3    H124122   5.308   5.404   3.664  0.4169 -0.0592 -1.0914
  877TIP3    H224123   5.430   5.482   3.621  0.7438  0.2911  0.4602
  878TIP3   OH224124   6.348   0.573  11.145  0.2423 -0.4504 -0.3503
  878TIP3    H124125   6.301   0.567  11.062  1.3287  0.2932 -1.0362
  878TIP3    H224126   6.314   0.654  11.186  0.9796  0.1388 -0.8883
  879TIP3   OH224127   6.658   0.638   3.372 -0.3849 -0.4174 -0.3712
  879TIP3    H124128   6.724   0.584   3.415 -0.2177  0.2809  0.2553
  879TIP3    H224129   6.659   0.609   3.281 -0.4036 -1.5687 -0.0085
  880TIP3   OH224130   6.076   2.671   4.958 -0.2540  0.1169 -0.2285
  880TIP3    H124131   6.143   2.725   4.915 -2.0132  2.4716 -0.1539
  880TIP3    H224132   6.118   2.639   5.038  0.7803  1.6404 -0.1411
  881TIP3   OH224133   6.177   4.710  14.175  0.5108 -0.0776 -0.3091
  881TIP3    H124134   6.139   4.795  14.155  2.6111  1.0899  0.4076
  881TIP3    H224135   6.220   4.683  14.094  2.0937  0.8224  0.2029
  882TIP3   OH224136   3.792   5.168   4.764 -0.0950 -0.0795  0.0522
  882TIP3    H124137   3.772   5.075   4.775  0.2219  0.1809  3.3610
  882TIP3    H224138   3.720   5.213   4.808  1.0733  1.1880  0.6945
  883TIP3   OH224139   4.846   2.234   3.152 -0.5752  0.1834 -0.5049
  883TIP3    H124140   4.887   2.314   3.120  2.3813 -1.5432 -1.2151
  883TIP3    H224141   4.833   2.180   3.075  0.2391 -1.2181  0.3110
  884TIP3   OH224142   0.991   3.636   5.692 -0.3020 -0.6648  0.2168
  884TIP3    H124143   0.964   3.726   5.674  0.0414 -0.7250 -0.6489
  884TIP3    H224144   0.964   3.588   5.614 -0.6622 -1.3543  0.7598
  885TIP3   OH224145   3.689   3.884   1.462 -0.3900  0.1440 -0.7203
  885TIP3    H124146   3.766   3.919   1.416  1.2581 -1.0866  0.9997
  885TIP3    H224147   3.639   3.961   1.488  1.6618  1.1250  0.4525
  886TIP3   OH224148   1.991   1.422   5.089 -0.1137  0.2890  0.4124
  886TIP3    H124149   1.963   1.420   4.997 -2.8355  1.1516  1.1613
  886TIP3    H224150   2.029   1.336   5.105  2.6827  0.9670 -2.1721
  887TIP3   OH224151   4.938   2.897  12.394  0.1487 -0.0836 -0.9762
  887TIP3    H124152   4.854   2.859  12.419  0.4195  0.5365  0.9512
  887TIP3    H224153   4.915   2.968  12.334 -0.6655 -0.2516 -0.8644
  888TIP3   OH224154   6.492   5.529   2.684 -0.1197 -0.3057  0.5345
  888TIP3    H124155   6.505   5.591   2.611 -2.2662  0.0985  0.4668
  888TIP3    H224156   6.470   5.446   2.641 -1.3648 -0.0721  0.6993
  889TIP3   OH224157   3.781   0.633  14.009  0.2780  0.4718 -0.3200
  889TIP3    H124158   3.872   0.650  14.034 -0.5057  0.9186  2.4062
  889TIP3    H224159   3.729   0.690  14.066 -1.8553 -2.0578  0.3860
  890TIP3   OH224160   2.678   5.474  12.243  0.2848  0.5859  0.0325
  890TIP3    H124161   2.662   5.516  12.327  0.1002 -1.6227  1.1528
  890TIP3    H224162   2.771   5.485  12.227  0.5116  0.1281  1.0379
  891TIP3   OH224163   2.986   4.991  13.917  0.3041 -0.2162 -0.6682
  891TIP3    H124164   2.963   5.070  13.967  0.5565  0.2740 -1.3184
  891TIP3    H224165   2.990   4.922  13.983  0.5086  0.4018 -0.0207
  892TIP3   OH224166   1.664   2.798  13.831  0.0053 -1.0024  0.2029
  892TIP3    H124167   1.656   2.888  13.863  0.4334 -1.2828  1.1286
  892TIP3    H224168   1.640   2.803  13.739 -1.3381 -0.1879  0.5816
  893TIP3   OH224169   1.605   6.481  14.346  0.1478 -0.0685 -0.5964
  893TIP3    H124170   1.548   6.407  14.366 -0.3380  0.8125  1.3308
  893TIP3    H224171   1.568   6.554  14.394  0.7447  1.4030 -2.3230
  894TIP3   OH224172   4.965   1.163   4.173  0.3492 -0.1630 -0.1707
  894TIP3    H124173   4.912   1.242   4.167  1.3511  0.4232 -1.7716
  894TIP3    H224174   5.033   1.184   4.237  0.1316 -0.0046  0.0061
  895TIP3   OH224175   4.499   2.835  10.755  0.3946  0.5951  0.2616
  895TIP3    H124176   4.490   2.901  10.687  0.7301  1.9864  1.5287
  895TIP3    H224177   4.567   2.776  10.722  0.7820  1.4346 -0.4588
  896TIP3   OH224178   0.438   2.982  14.267 -0.2379 -0.6441 -0.2221
  896TIP3    H124179   0.379   2.912  14.238 -1.2346 -0.5537  1.4962
  896TIP3    H224180   0.505   2.987  14.199 -0.0303 -3.3858 -0.2779
  897TIP3   OH224181   0.522   5.035  16.125 -0.3706  0.6682  0.5088
  897TIP3    H124182   0.464   4.982  16.070  2.2090 -3.5051  1.5824
  897TIP3    H224183   0.465   5.065  16.196 -1.9020 -0.9093  0.0116
  898TIP3   OH224184   3.121   1.730  14.469  0.2531  0.9680 -0.4925
  898TIP3    H124185   3.147   1.781  14.545 -0.4668 -0.6282  0.8657
  898TIP3    H224186   3.049   1.780  14.430 -1.3253  0.4204  1.5774
  899TIP3   OH224187   2.519   4.324   1.310 -0.3911  0.2923 -0.0445
  899TIP3    H124188   2.498   4.232   1.330 -1.7149  0.0833 -2.1495
  899TIP3    H224189   2.614   4.326   1.307 -0.3464 -1.2440 -0.7645
  900TIP3   OH224190   1.675   4.716   6.232 -0.3308 -0.1137  0.1158
  900TIP3    H124191   1.749   4.770   6.263 -0.8197  1.2753 -1.0934
  900TIP3    H224192   1.598   4.770   6.248 -1.0192 -1.1972  0.5243
  901TIP3   OH224193   3.506   4.420  16.521  0.5435  0.3423  0.0686
  901TIP3    H124194   3.546   4.399  16.605  2.6705 -0.5860 -1.1419
  901TIP3    H224195   3.526   4.513  16.508  0.6997  0.3461  0.3297
  902TIP3   OH224196   0.059   6.630  17.184  0.0404  0.0763  0.1248
  902TIP3    H124197   0.132   6.691  17.188 -0.2150  0.3722  0.2600
  902TIP3    H224198   0.058   6.599  17.093  0.4893 -0.1243  0.1891
  903TIP3   OH224199   5.550   2.148   0.108 -0.4814 -0.0006 -0.0302
  903TIP3    H124200   5.583   2.213   0.170  0.9372  1.2579 -2.0377
  903TIP3    H224201   5.491   2.198   0.051 -1.6544 -1.1142  0.1884
  904TIP3   OH224202   0.216   0.317   2.209 -0.4909 -0.7563  0.8426
  904TIP3    H124203   0.162   0.392   2.230  0.0864 -0.0491 -0.1580
  904TIP3    H224204   0.161   0.262   2.153  0.1196  0.4452 -1.0079
  905TIP3   OH224205   6.179   1.102  17.164  0.0765  0.4484  0.0730
  905TIP3    H124206   6.151   1.091  17.073  0.2244  2.0674 -0.1806
  905TIP3    H224207   6.119   1.168  17.199 -0.1604 -0.3767  1.2418
  906TIP3   OH224208   5.902   6.742  11.813  0.1150  0.8319 -0.9077
  906TIP3    H124209   5.877   6.774  11.900 -2.7060 -1.9614 -0.6106
  906TIP3    H224210   5.996   6.726  11.820  0.3157  2.6637  0.9508
  907TIP3   OH224211   1.837   4.985   2.742  0.5960 -0.0400  0.0190
  907TIP3    H124212   1.751   4.994   2.701  1.2375  0.8793 -1.1407
  907TIP3    H224213   1.877   5.072   2.735  1.1166 -0.1133  1.7142
  908TIP3   OH224214   0.548   3.629   4.568 -0.0497 -0.4379  0.0968
  908TIP3    H124215   0.581   3.671   4.489  2.2835 -1.3841  0.5142
  908TIP3    H224216   0.453   3.630   4.559 -0.0292  3.7591 -0.4708
  909TIP3   OH224217   3.998   2.605   5.546  0.7262  0.3454  0.3088
  909TIP3    H124218   4.046   2.683   5.518  1.1637  0.4771  1.3995
  909TIP3    H224219   4.014   2.599   5.640 -0.1546 -0.4753  0.4214
  910TIP3   OH224220   6.704   4.676   0.274 -0.0904 -0.2495  0.6651
  910TIP3    H124221   6.692   4.623   0.195 -1.0311  0.6593  0.1814
  910TIP3    H224222   6.615   4.700   0.300  0.1824 -0.9263  2.2798
  911TIP3   OH224223   6.085   5.422  14.768  0.1372 -0.5121 -0.2165
  911TIP3    H124224   6.145   5.348  14.767 -0.8797 -1.3818  1.1979
  911TIP3    H224225   6.002   5.385  14.797 -0.2455  1.2774  1.0295
  912TIP3   OH224226   4.603   4.439   5.445 -0.2997 -0.0972  0.3798
  912TIP3    H124227   4.580   4.517   5.496  1.6025 -0.6514  2.1398
  912TIP3    H224228   4.541   4.372   5.474 -0.8734  0.2857  0.0611
  913TIP3   OH224229   6.445   1.398   0.764 -0.3399 -0.0052 -0.9929
  913TIP3    H124230   6.396   1.431   0.839 -0.5969 -1.9263 -0.2625
  913TIP3    H224231   6.378   1.383   0.697 -0.4623 -0.5649 -0.7523
  914TIP3   OH224232   0.406   6.722  15.243 -0.3566  0.1202  0.0189
  914TIP3    H124233   0.336   6.737  15.306 -0.5363 -0.0209 -0.1445
  914TIP3    H224234   0.361   6.720  15.158 -0.4205 -1.8680  0.0853
  915TIP3   OH224235   5.245   6.592  15.127 -0.4328  0.4675 -0.3387
  915TIP3    H124236   5.239   6.667  15.068  4.9575  0.5686 -0.9991
  915TIP3    H224237   5.273   6.520  15.070 -1.1438 -0.9267  1.0612
  916TIP3   OH224238   1.875   6.468   3.359  0.1213 -0.3053 -0.0770
  916TIP3    H124239   1.929   6.533   3.404 -0.3045 -0.8168  1.1836
  916TIP3    H224240   1.860   6.506   3.272  0.5007  0.9343  0.3838
  917TIP3   OH224241   4.249   6.058   5.805  0.2222  0.0664  0.1826
  917TIP3    H124242   4.219   6.106   5.882  2.0417  0.3035  0.7713
  917TIP3    H224243   4.332   6.020   5.832 -0.0704 -1.4899 -1.0414
  918TIP3   OH224244   6.110   4.184  14.323 -0.2089 -0.1271  0.2155
  918TIP3    H124245   6.136   4.092  14.327 -0.1999 -0.0872  1.1759
  918TIP3    H224246   6.036   4.185  14.262  0.2792 -0.6514 -0.3920
  919TIP3   OH224247   5.059   1.638   5.022  0.2344 -0.2630  0.1053
  919TIP3    H124248   5.038   1.730   5.037 -1.3242 -0.5172 -0.4316
  919TIP3    H224249   4.975   1.596   5.006  0.8852 -1.8811  0.8025
  920TIP3   OH224250   0.172   3.374  14.287  0.0385  0.5260  0.5075
  920TIP3    H124251   0.115   3.401  14.359 -0.1682  1.6939 -0.0923
  920TIP3    H224252   0.112   3.335  14.223 -0.2063  2.4439 -0.4607
  921TIP3   OH224253   4.284   1.749  11.508 -0.0046 -0.2859 -0.6968
  921TIP3    H124254   4.318   1.830  11.471  1.5520 -0.7472 -0.3237
  921TIP3    H224255   4.196   1.741  11.472 -0.7771  2.3616  0.4909
  922TIP3   OH224256   2.928   0.867   1.325 -0.5268 -0.1723 -0.3824
  922TIP3    H124257   2.959   0.956   1.304 -1.1131 -0.0437 -0.7274
  922TIP3    H224258   2.867   0.879   1.397 -1.1188 -0.2106 -0.8707
  923TIP3   OH224259   0.862   0.740   1.343 -0.2839  0.3539 -0.2854
  923TIP3    H124260   0.840   0.707   1.256  0.8336 -2.3916  0.4125
  923TIP3    H224261   0.957   0.747   1.343 -0.4890  4.2720 -0.5771
  924TIP3   OH224262   4.053   6.272  16.820  0.0495 -0.9414  0.3643
  924TIP3    H124263   4.064   6.295  16.728 -1.6081 -1.8132 -0.0537
  924TIP3    H224264   4.099   6.189  16.829  1.2649 -0.2569  0.6202
  925TIP3   OH224265   0.074   5.767  13.866  0.1294 -0.7122 -0.3487
  925TIP3    H124266   0.039   5.856  13.872 -0.8814 -1.1686  0.7242
  925TIP3    H224267   0.152   5.768  13.921  0.2715 -0.4147 -0.5547
  926TIP3   OH224268   2.788   5.847   5.475  0.0661  0.5035 -0.0373
  926TIP3    H124269   2.809   5.792   5.399 -0.2428 -0.2530  0.4199
  926TIP3    H224270   2.865   5.904   5.486  0.6396 -0.2440 -0.1531
  927TIP3   OH224271   1.521   0.264  12.089 -0.3405 -0.2076 -0.1577
  927TIP3    H124272   1.467   0.334  12.053 -0.1606  0.5904  1.1055
  927TIP3    H224273   1.603   0.308  12.114 -0.3092 -0.8342  0.8353
  928TIP3   OH224274   4.636   1.297  11.943 -0.1458  0.2818  0.0145
  928TIP3    H124275   4.570   1.305  12.012  0.4501  0.7100  0.5399
  928TIP3    H224276   4.718   1.280  11.990  0.2271  0.3778 -0.5978
  929TIP3   OH224277   5.061   5.926  17.040 -0.1042 -0.3257 -0.0833
  929TIP3    H124278   5.080   5.875  16.962  1.9573 -0.8998  0.7568
  929TIP3    H224279   5.073   5.865  17.113 -1.3607  0.3670  0.7256
  930TIP3   OH224280   3.446   2.250   3.882  0.0065 -0.0181 -0.3114
  930TIP3    H124281   3.434   2.158   3.905  0.4763 -0.4333 -1.6519
  930TIP3    H224282   3.501   2.248   3.804  0.2627  1.4189 -0.1832
  931TIP3   OH224283   4.687   3.206  14.165 -0.6563 -0.2016 -0.1887
  931TIP3    H124284   4.607   3.194  14.217 -0.1224  0.2324  0.7514
  931TIP3    H224285   4.657   3.203  14.074 -1.8441  0.6516  0.1553
  932TIP3   OH224286   0.279   6.177   1.288  0.0192 -0.2811 -0.0756
  932TIP3    H124287   0.242   6.173   1.376 -0.6950 -1.7708 -0.4384
  932TIP3    H224288   0.338   6.102   1.283  0.2838 -0.0379 -0.7773
  933TIP3   OH224289   0.472   3.191   4.025 -0.9832 -0.7175 -0.0757
  933TIP3    H124290   0.451   3.284   4.030 -3.0380 -1.0869 -1.1219
  933TIP3    H224291   0.481   3.164   4.117 -1.1595  0.3481  0.2695
  934TIP3   OH224292   6.334   5.034  12.909 -0.0569 -0.1931 -0.5957
  934TIP3    H124293   6.258   5.055  12.855 -0.7863  0.4365  0.6349
  934TIP3    H224294   6.388   5.113  12.906  0.1680 -0.3579 -0.8504
  935TIP3   OH224295   4.557   6.568  15.298 -1.0275  0.1177  0.7231
  935TIP3    H124296   4.485   6.542  15.356 -2.0890 -1.8313 -1.3715
  935TIP3    H224297   4.633   6.523  15.333 -1.7151 -1.2484  0.5152
  936TIP3   OH224298   2.905   6.304   2.400  0.3980 -0.1864 -0.2117
  936TIP3    H124299   2.859   6.386   2.418 -2.1381 -1.5960 -0.0015
  936TIP3    H224300   2.905   6.297   2.305 -0.9457 -0.7562 -0.1860
  937TIP3   OH224301   5.938   1.637   3.401 -0.2413 -0.3087 -0.2861
  937TIP3    H124302   5.991   1.577   3.454 -1.5337 -0.3943  0.9583
  937TIP3    H224303   5.950   1.607   3.311  2.3506  0.1051 -0.1260
  938TIP3   OH224304   3.701   5.561  10.486 -0.2096  0.0042  0.1301
  938TIP3    H124305   3.786   5.597  10.459 -0.3586 -0.3016 -0.7513
  938TIP3    H224306   3.701   5.472  10.451 -1.2226  0.2659 -0.5333
  939TIP3   OH224307   3.312   3.173  11.025 -0.0472 -0.4688  0.3558
  939TIP3    H124308   3.220   3.198  11.035  0.0435  0.1799 -0.3908
  939TIP3    H224309   3.344   3.227  10.953  0.7972 -1.0262  0.3034
  940TIP3   OH224310   0.963   6.096  15.772  0.6857  0.3175 -0.2912
  940TIP3    H124311   1.013   6.086  15.853 -0.0866 -0.8012  0.0612
  940TIP3    H224312   0.925   6.183  15.779 -0.1069 -0.1112  0.9778
  941TIP3   OH224313   0.098   6.245  13.309  0.2567 -0.4039  0.3510
  941TIP3    H124314   0.090   6.160  13.267  1.0141  0.2274 -1.1143
  941TIP3    H224315   0.191   6.251  13.334  0.2334  0.0424  0.3424
  942TIP3   OH224316   4.098   0.934   1.030 -0.2112 -0.3041 -0.3992
  942TIP3    H124317   4.099   0.852   0.981 -1.7904 -0.2330 -0.5596
  942TIP3    H224318   4.124   1.000   0.966  0.4332 -0.5804 -0.4303
  943TIP3   OH224319   5.885   5.241  12.435 -0.0872  0.0282  0.5657
  943TIP3    H124320   5.797   5.259  12.466  0.3108 -2.3528  3.2803
  943TIP3    H224321   5.875   5.173  12.369 -0.3309 -0.0826  0.7184
  944TIP3   OH224322   0.125   4.054  10.402 -0.2497  0.3512 -0.5665
  944TIP3    H124323   0.075   4.116  10.454 -0.4399 -0.3177  0.0545
  944TIP3    H224324   0.120   4.088  10.312  0.4826  1.7494 -0.0760
  945TIP3   OH224325   1.919   1.698   5.881  0.0655 -0.6291  0.2283
  945TIP3    H124326   1.921   1.752   5.960  0.2927 -0.4431  0.0957
  945TIP3    H224327   1.830   1.662   5.879 -0.2101  0.0486  0.1069
  946TIP3   OH224328   0.896   5.415  11.364 -0.0267  0.0143 -1.0397
  946TIP3    H124329   0.959   5.360  11.410 -1.2084 -0.4183  0.0815
  946TIP3    H224330   0.949   5.464  11.300  1.2422 -1.3052 -1.0227
  947TIP3   OH224331   5.252   5.247  12.477 -0.1336  0.3055  0.4190
  947TIP3    H124332   5.339   5.261  12.440  0.1129 -1.7742  0.1549
  947TIP3    H224333   5.228   5.158  12.449 -2.3147  0.8319  0.5181
  948TIP3   OH224334   3.626   3.218   2.987 -0.1967  0.0632  0.5297
  948TIP3    H124335   3.535   3.232   3.015 -1.0204 -0.2365 -1.8840
  948TIP3    H224336   3.637   3.273   2.910  1.1861 -1.0839 -0.1304
  949TIP3   OH224337   5.490   1.518   1.861  0.3403  0.2509  0.0392
  949TIP3    H124338   5.415   1.571   1.887  0.3720 -0.1149  0.8747
  949TIP3    H224339   5.554   1.529   1.931  0.8236  0.0541 -0.3592
  950TIP3   OH224340   2.412   0.240  12.203  0.2315 -0.0609 -0.1281
  950TIP3    H124341   2.419   0.333  12.185 -1.3943  0.3091  1.0487
  950TIP3    H224342   2.392   0.235  12.297  1.3097 -1.6374  0.0463
  951TIP3   OH224343   0.681   0.510   0.775  0.2614  0.1870  0.4373
  951TIP3    H124344   0.774   0.527   0.792  0.8225 -1.5372 -0.8100
  951TIP3    H224345   0.665   0.546   0.688 -0.1036 -0.0188  0.4185
  952TIP3   OH224346   4.173   0.384  16.862  0.2123  0.2579  0.0842
  952TIP3    H124347   4.264   0.398  16.890 -0.2499 -0.2170  1.8903
  952TIP3    H224348   4.136   0.326  16.929 -1.5653  0.8259 -0.3757
  953TIP3   OH224349   5.443   4.566  16.978 -0.0114 -0.4707  0.3665
  953TIP3    H124350   5.410   4.486  17.019  0.6966 -0.9232  0.0579
  953TIP3    H224351   5.449   4.545  16.885 -1.5967  0.5506  0.0061
  954TIP3   OH224352   4.429   5.344   3.756  0.1199  0.6528 -0.6913
  954TIP3    H124353   4.447   5.256   3.721  1.5682  0.8694 -0.5072
  954TIP3    H224354   4.396   5.328   3.845  1.5519  0.3407 -0.2044
  955TIP3   OH224355   6.699   6.466   3.037 -0.0344 -0.1026 -0.0667
  955TIP3    H124356   6.608   6.451   3.012 -0.2982 -3.2584  2.3682
  955TIP3    H224357   6.694   6.530   3.108 -0.1878  1.0551 -1.1168
  956TIP3   OH224358   0.283   0.279   4.214 -0.0270 -0.4848  0.0892
  956TIP3    H124359   0.208   0.337   4.197 -0.8954 -1.7163 -0.3419
  956TIP3    H224360   0.328   0.274   4.130  0.7640  0.5459  0.4393
  957TIP3   OH224361   5.877   1.015   1.337 -0.1007  0.2232 -0.0538
  957TIP3    H124362   5.910   1.010   1.247  1.0407 -0.4219  0.3873
  957TIP3    H224363   5.938   1.075   1.381 -1.3755  1.5153 -0.0072
  958TIP3   OH224364   0.866   5.793   5.571 -0.4110  0.5594 -0.0271
  958TIP3    H124365   0.775   5.819   5.563 -0.2459  1.3967  0.6837
  958TIP3    H224366   0.912   5.873   5.597  0.2468 -0.2399  1.3566
  959TIP3   OH224367   1.299   0.245   2.293  0.6449  0.6604 -0.4340
  959TIP3    H124368   1.384   0.286   2.306  0.5381  0.6254  0.3647
  959TIP3    H224369   1.269   0.221   2.381 -0.3573  1.0231 -0.6627
  960TIP3   OH224370   0.566   5.331  13.787  0.0341 -0.3146  0.6188
  960TIP3    H124371   0.553   5.422  13.762  0.4954 -0.0929  1.1788
  960TIP3    H224372   0.509   5.318  13.863  1.9922  0.2837  2.2321
  961TIP3   OH224373   0.118   6.231  16.551 -0.0650  0.4669 -0.0754
  961TIP3    H124374   0.110   6.169  16.479 -0.2830 -1.6500  1.7227
  961TIP3    H224375   0.084   6.314  16.515 -1.2585 -0.8232 -2.0294
  962TIP3   OH224376   0.070   1.403   4.839 -0.4566 -0.5122  0.2574
  962TIP3    H124377   0.154   1.372   4.871 -0.9010 -1.6953  0.2789
  962TIP3    H224378   0.006   1.341   4.873 -1.1832 -0.4729 -0.9923
  963TIP3   OH224379   1.537   6.170   4.711 -0.5672  0.1301  0.0886
  963TIP3    H124380   1.571   6.111   4.778  0.0701 -0.4316 -0.7267
  963TIP3    H224381   1.442   6.167   4.724 -0.6257 -1.9076 -0.6121
  964TIP3   OH224382   0.061   6.239  12.070  0.0495  0.6133 -0.1685
  964TIP3    H124383   0.022   6.313  12.025  0.0270  1.3795  1.0768
  964TIP3    H224384   0.050   6.259  12.163  1.2518 -0.2996  0.1896
  965TIP3   OH224385   6.729   5.386   5.641 -0.2543 -0.3233 -0.4944
  965TIP3    H124386   6.758   5.297   5.661 -0.7753 -0.4682 -0.3660
  965TIP3    H224387   6.719   5.387   5.546  0.6418 -0.1235 -0.5936
  966TIP3   OH224388   2.691   5.885  11.556  0.4385 -0.8227  0.1722
  966TIP3    H124389   2.702   5.870  11.462 -1.1058 -0.0465 -0.1446
  966TIP3    H224390   2.773   5.925  11.584  0.3429  0.3065 -1.1478
  967TIP3   OH224391   2.262   1.525  13.585 -0.3193 -1.0489 -0.1613
  967TIP3    H124392   2.262   1.544  13.679  1.4899 -1.6194 -0.0384
  967TIP3    H224393   2.350   1.548  13.555 -1.9398  2.5342 -2.4447
  968TIP3   OH224394   1.427   4.830  14.919 -0.3314 -0.2673  0.0066
  968TIP3    H124395   1.467   4.798  14.838 -1.6988  2.1062 -1.7004
  968TIP3    H224396   1.501   4.862  14.971  0.4303 -0.2180 -1.0784
  969TIP3   OH224397   6.508   5.782  11.488  0.4029 -0.0614 -0.3333
  969TIP3    H124398   6.455   5.775  11.567  0.4585 -1.9672 -0.4503
  969TIP3    H224399   6.539   5.693  11.472 -1.2583 -0.1114 -3.6563
  970TIP3   OH224400   6.361   2.215  12.366  0.4149  0.0347 -0.2794
  970TIP3    H124401   6.353   2.149  12.297 -0.0177 -1.1589  0.8936
  970TIP3    H224402   6.303   2.184  12.435  2.9276 -0.2487  1.7647
  971TIP3   OH224403   4.652   3.716   0.773 -0.2777  0.2892  0.2676
  971TIP3    H124404   4.588   3.721   0.844 -0.4101  3.1393  0.0252
  971TIP3    H224405   4.600   3.730   0.694 -0.0348 -2.2414 -0.3817
  972TIP3   OH224406   3.825   5.975   6.139  0.7317 -0.3478  0.0212
  972TIP3    H124407   3.898   6.027   6.172  0.0931  0.1695  0.6489
  972TIP3    H224408   3.841   5.887   6.172  1.8792 -0.5808 -1.1359
  973TIP3   OH224409   5.987   3.521   4.550 -0.6635  0.3716 -0.4292
  973TIP3    H124410   6.040   3.453   4.508  0.1388  0.3068  0.6753
  973TIP3    H224411   6.044   3.597   4.554 -0.7769  0.4094  0.4394
  974TIP3   OH224412   2.760   4.828   6.132 -0.6310 -0.4010  0.7721
  974TIP3    H124413   2.807   4.811   6.214  2.4541  1.9438 -0.4021
  974TIP3    H224414   2.775   4.921   6.114 -0.9897 -0.9235 -2.5695
  975TIP3   OH224415   3.615   6.060  16.069 -0.0701  0.6440  0.2826
  975TIP3    H124416   3.692   6.075  16.125 -2.4182  2.9191  3.0678
  975TIP3    H224417   3.609   6.140  16.017 -0.1943  0.1895 -0.4008
  976TIP3   OH224418   3.343   0.197   6.384 -0.1411 -0.3919  0.5433
  976TIP3    H124419   3.357   0.284   6.346 -2.6117  0.0762  0.6163
  976TIP3    H224420   3.263   0.206   6.436 -0.4523 -2.7184  0.5229
  977TIP3   OH224421   6.033   3.244   4.492 -0.1208  0.0564  0.4499
  977TIP3    H124422   6.102   3.295   4.448 -0.4114 -0.4123 -0.5766
  977TIP3    H224423   6.080   3.191   4.556  0.5984 -0.8641 -0.7961
  978TIP3   OH224424   2.977   5.190   3.598 -0.0006 -0.0245 -0.5899
  978TIP3    H124425   2.926   5.211   3.520 -0.5980  2.3062  0.3937
  978TIP3    H224426   3.066   5.176   3.566  0.0509  2.3115 -1.5489
  979TIP3   OH224427   5.024   3.499  14.382  0.0650 -0.4110 -0.7012
  979TIP3    H124428   5.072   3.417  14.367 -2.4084 -1.8672 -1.0513
  979TIP3    H224429   4.948   3.492  14.324 -1.4354  1.0587  1.0557
  980TIP3   OH224430   0.086   2.068   2.664 -0.0546  0.6211 -0.4335
  980TIP3    H124431   0.086   2.045   2.571 -1.5625 -0.1722 -0.2455
  980TIP3    H224432   0.102   1.985   2.709 -0.2774  0.8418  0.0519
  981TIP3   OH224433   0.609   5.559  13.666  0.0418 -0.2921  0.5248
  981TIP3    H124434   0.668   5.569  13.591 -1.1555 -1.8414 -0.6654
  981TIP3    H224435   0.651   5.609  13.736  1.4354  0.8018 -1.0286
  982TIP3   OH224436   2.155   1.813  13.190 -0.2123 -0.0734  0.1572
  982TIP3    H124437   2.235   1.865  13.178 -1.4506  1.4402 -1.9271
  982TIP3    H224438   2.093   1.874  13.231 -2.5885  1.1133 -4.8467
  983TIP3   OH224439   0.934   1.310  12.805 -0.4683 -0.5308  0.0827
  983TIP3    H124440   0.930   1.362  12.725 -1.6953 -0.9120 -0.1205
  983TIP3    H224441   0.915   1.373  12.875 -5.1826 -1.1909 -0.4043
  984TIP3   OH224442   4.304   4.269  13.642 -0.0168  0.5089  0.1610
  984TIP3    H124443   4.385   4.303  13.603 -0.9007 -0.1097 -2.3280
  984TIP3    H224444   4.331   4.189  13.688  1.1545  1.5697  1.3594
  985TIP3   OH224445   1.047   6.367  15.714  0.5343 -0.9173 -0.2162
  985TIP3    H124446   1.114   6.425  15.750 -1.7760  2.3374 -0.9315
  985TIP3    H224447   0.989   6.349  15.788  1.0415 -2.0746 -0.0874
  986TIP3   OH224448   4.798   2.080   1.602  0.4176  0.2286  0.0331
  986TIP3    H124449   4.780   1.996   1.644 -1.0341  0.3693 -0.2456
  986TIP3    H224450   4.720   2.132   1.620  1.3229  1.5238  0.2196
  987TIP3   OH224451   3.112   3.166   6.927  0.1139 -0.4332  0.1857
  987TIP3    H124452   3.066   3.239   6.968 -0.5134 -0.1269 -1.0385
  987TIP3    H224453   3.191   3.205   6.890  0.1037 -0.4905  0.1026
  988TIP3   OH224454   4.552   1.732   3.488 -0.0114 -0.0408 -0.1109
  988TIP3    H124455   4.594   1.796   3.431 -0.9033 -1.5542 -2.5531
  988TIP3    H224456   4.460   1.734   3.463 -0.3158 -1.1586  0.8651
  989TIP3   OH224457   5.106   2.221   0.669 -0.0444  0.1781 -0.5720
  989TIP3    H124458   5.182   2.280   0.662  0.0161  0.2191  0.4150
  989TIP3    H224459   5.052   2.243   0.593 -0.3725  2.0243  0.1698
  990TIP3   OH224460   5.854   4.920   4.231 -0.6702  0.4364 -0.0657
  990TIP3    H124461   5.838   4.855   4.164  0.2501  0.6288 -0.4797
  990TIP3    H224462   5.782   4.909   4.294 -1.6867  0.4426 -1.2127
  991TIP3   OH224463   1.760   2.146   1.286  0.7107  0.2970  0.0140
  991TIP3    H124464   1.705   2.161   1.208  1.4379  1.6327 -0.2481
  991TIP3    H224465   1.700   2.157   1.360 -0.2133 -1.9609 -0.3644
  992TIP3   OH224466   0.252   1.246   5.344  0.1104  0.2857  0.3899
  992TIP3    H124467   0.179   1.275   5.400 -1.1826 -1.4506 -0.3287
  992TIP3    H224468   0.238   1.151   5.336  0.2948  0.4918 -2.8383
  993TIP3   OH224469   4.355   0.400  12.198  0.3110 -0.3764 -0.0801
  993TIP3    H124470   4.328   0.489  12.177 -0.3974 -0.2652  1.2451
  993TIP3    H224471   4.413   0.375  12.127  0.8784  1.3110 -0.2263
  994TIP3   OH224472   2.962   4.877   2.064  0.4691  0.3929  0.0585
  994TIP3    H124473   2.990   4.910   1.979  1.8241 -1.5055 -0.2523
  994TIP3    H224474   2.963   4.954   2.121  3.1637  0.9767 -0.7370
  995TIP3   OH224475   4.584   0.887   1.517 -0.2018  0.2868 -0.3849
  995TIP3    H124476   4.632   0.854   1.442 -0.4671  0.7791 -0.7750
  995TIP3    H224477   4.493   0.862   1.501 -0.0195 -1.0177  0.5584
  996TIP3   OH224478   0.560   2.164   3.258  0.5477 -0.2934  0.0031
  996TIP3    H124479   0.527   2.254   3.267 -0.7205 -0.6423 -0.9804
  996TIP3    H224480   0.610   2.165   3.177  0.7711 -0.4127  0.1389
  997TIP3   OH224481   0.127   0.590  16.683  0.1927 -0.1801  0.5373
  997TIP3    H124482   0.171   0.552  16.759  0.0320  2.2561  1.9214
  997TIP3    H224483   0.051   0.534  16.669  0.2399 -0.6978  2.1875
  998TIP3   OH224484   6.390   5.483   2.410  0.0038 -0.1559  0.2538
  998TIP3    H124485   6.355   5.425   2.342  1.8169 -0.3491 -0.5295
  998TIP3    H224486   6.315   5.538   2.435 -0.8876 -0.6282 -1.3175
  999TIP3   OH224487   3.191   3.888   3.354  0.3648 -0.2061 -0.4814
  999TIP3    H124488   3.141   3.966   3.333 -0.0169 -0.4392 -0.4451
  999TIP3    H224489   3.145   3.849   3.428  0.6339 -0.3886 -0.4111
 1000TIP3   OH224490   5.295   2.124  12.451 -0.2020 -0.4426 -0.2782
 1000TIP3    H124491   5.269   2.153  12.538  0.6195  0.5893 -0.3689
 1000TIP3    H224492   5.390   2.120  12.454 -0.1139  0.5478 -1.4145
 1001TIP3   OH224493   4.310   3.831  14.889 -0.8203  0.0749 -0.3731
 1001TIP3    H124494   4.309   3.848  14.795 -2.1493 -0.7193 -0.5141
 1001TIP3    H224495   4.338   3.739  14.897 -1.1563  0.0018 -0.0176
 1002TIP3   OH224496   4.427   1.785   0.594 -0.1493  0.3883 -0.3659
 1002TIP3    H124497   4.373   1.771   0.673 -0.0422  0.6270 -0.2498
 1002TIP3    H224498   4.418   1.878   0.575 -0.8401  0.1747 -1.1212
 1003TIP3   OH224499   0.199   2.371   2.005 -0.1184 -0.2982  0.2573
 1003TIP3    H124500   0.211   2.313   1.931 -0.0831  0.5651 -0.4219
 1003TIP3    H224501   0.260   2.339   2.072  0.4480 -0.5698 -0.3876
 1004TIP3   OH224502   4.718   2.427   4.108  0.5537  0.1997  0.5880
 1004TIP3    H124503   4.807   2.415   4.139  0.6255  0.5401  0.5158
 1004TIP3    H224504   4.723   2.500   4.046 -0.0039  1.0834  1.5763
 1005TIP3   OH224505   5.091   0.377  16.259  0.5024  0.0178 -0.1170
 1005TIP3    H124506   5.062   0.458  16.217  3.6355  1.2749 -0.0092
 1005TIP3    H224507   5.011   0.338  16.294 -1.2453  2.3758 -1.3381
 1006TIP3   OH224508   5.555   1.737   5.366  0.1271 -0.6065  0.1439
 1006TIP3    H124509   5.633   1.754   5.419  1.3992 -2.1925 -1.1625
 1006TIP3    H224510   5.580   1.663   5.310 -3.4106 -3.3481  1.9786
 1007TIP3   OH224511   0.496   0.655   3.217  0.0089  0.0047 -0.1801
 1007TIP3    H124512   0.412   0.631   3.256  0.8625 -2.3271  0.3153
 1007TIP3    H224513   0.509   0.592   3.146 -0.3449  2.6422 -2.6909
 1008TIP3   OH224514   6.425   5.285  11.241 -0.3649 -0.1585  0.0220
 1008TIP3    H124515   6.378   5.263  11.161  0.4017  0.0450 -0.4865
 1008TIP3    H224516   6.438   5.201  11.285  0.4299 -0.4369 -0.7373
 1009TIP3   OH224517   0.436   0.715   5.007 -0.0411  0.6223 -0.4165
 1009TIP3    H124518   0.391   0.703   5.091  1.0731 -0.3867  0.0388
 1009TIP3    H224519   0.405   0.643   4.953  0.7743  0.1119 -0.2091
 1010TIP3   OH224520   6.477   1.310  15.515  0.1945  0.4232 -0.1256
 1010TIP3    H124521   6.429   1.391  15.535  0.3579  0.1915  1.3010
 1010TIP3    H224522   6.481   1.307  15.420 -2.5599  0.5012 -0.2908
 1011TIP3   OH224523   4.869   6.180   3.172  1.1621 -0.5688  0.0865
 1011TIP3    H124524   4.965   6.187   3.172  1.1631 -0.1850 -1.3264
 1011TIP3    H224525   4.851   6.086   3.169  1.5174 -0.6293 -0.2554
 1012TIP3   OH224526   3.690   0.444   5.172 -0.7799  0.8541 -0.0303
 1012TIP3    H124527   3.738   0.487   5.101  1.1082  2.2807  2.0058
 1012TIP3    H224528   3.611   0.409   5.131  0.3998  1.3978 -2.8542
 1013TIP3   OH224529   6.234   2.204   3.473 -0.2546  0.1628  0.2116
 1013TIP3    H124530   6.189   2.276   3.430  0.2118  0.0192 -0.5302
 1013TIP3    H224531   6.187   2.191   3.556 -0.3091  1.3425  0.3665
 1014TIP3   OH224532   2.067   1.702   5.402  0.6062  0.1437  0.3938
 1014TIP3    H124533   2.143   1.760   5.389  0.8136 -0.4452 -1.1364
 1014TIP3    H224534   2.019   1.742   5.474  0.4090  2.5832 -1.0153
 1015TIP3   OH224535   0.456   3.717  13.107  0.3010  0.3219  0.0406
 1015TIP3    H124536   0.376   3.694  13.060  1.5811 -0.0461 -2.0064
 1015TIP3    H224537   0.452   3.813  13.115 -0.6951  0.2450  0.6653
 1016TIP3   OH224538   2.232   2.512  17.047 -0.0735 -0.0325  0.0087
 1016TIP3    H124539   2.224   2.532  17.141 -0.7261  1.4575 -0.3481
 1016TIP3    H224540   2.222   2.417  17.042 -0.7825 -0.0479  1.3889
 1017TIP3   OH224541   6.768   2.864   6.304 -0.6277 -0.1039 -0.1531
 1017TIP3    H124542   6.680   2.883   6.336 -0.2138  0.9527  0.3896
 1017TIP3    H224543   6.822   2.936   6.338  0.7289 -1.5422  0.8409
 1018TIP3   OH224544   3.082   5.967   2.199 -0.3334 -0.3372  0.3852
 1018TIP3    H124545   3.000   5.988   2.243 -0.2857  1.1981 -0.2187
 1018TIP3    H224546   3.061   5.892   2.144 -1.3957  0.1377  0.1211
 1019TIP3   OH224547   2.074   2.871   5.507  0.1608 -0.1366 -0.1969
 1019TIP3    H124548   2.005   2.926   5.468  0.5567  1.0691  0.7674
 1019TIP3    H224549   2.064   2.884   5.602  1.9251  0.3076 -0.0633
 1020TIP3   OH224550   4.855   6.003  12.643 -0.4505 -0.1091  0.2711
 1020TIP3    H124551   4.933   5.964  12.604 -0.6261 -0.1926  0.0041
 1020TIP3    H224552   4.882   6.091  12.669 -0.8716  0.6297 -1.7677
 1021TIP3   OH224553   6.758   6.047  11.536 -0.5390  0.5283 -0.1686
 1021TIP3    H124554   6.804   6.128  11.556  1.5489 -0.6478 -0.1118
 1021TIP3    H224555   6.731   6.057  11.444  0.4035  0.9772 -0.4096
 1022TIP3   OH224556   1.477   6.264   1.006  0.3986 -0.1593  0.5948
 1022TIP3    H124557   1.446   6.174   1.003  0.3136 -0.1123 -0.0536
 1022TIP3    H224558   1.552   6.262   1.066  1.0469 -0.8677 -0.2202
 1023TIP3   OH224559   1.122   1.626  15.302  0.4010 -0.1846  0.3394
 1023TIP3    H124560   1.036   1.596  15.272  0.2047  0.9862 -0.2767
 1023TIP3    H224561   1.184   1.567  15.260  0.0876  1.0039 -1.8490
 1024TIP3   OH224562   4.910   5.528   0.539 -0.1181 -0.4215  0.6427
 1024TIP3    H124563   4.816   5.514   0.533 -0.3623  1.6047 -1.2632
 1024TIP3    H224564   4.923   5.569   0.624 -0.9938 -0.5343  0.8336
 1025TIP3   OH224565   2.954   5.226   3.891  0.9420  0.3673  0.2675
 1025TIP3    H124566   3.026   5.164   3.880  0.1574 -0.5829  0.4115
 1025TIP3    H224567   2.923   5.242   3.802  0.9853  0.3605  0.2511
 1026TIP3   OH224568   2.587   2.393   4.328  0.4872 -0.2159  0.2631
 1026TIP3    H124569   2.548   2.474   4.295  2.0078  0.6905  0.6486
 1026TIP3    H224570   2.590   2.404   4.423  2.9053  0.3063  0.1410
 1027TIP3   OH224571   2.370   0.678   5.781  0.5234 -0.4315 -0.4351
 1027TIP3    H124572   2.324   0.596   5.763  0.5143  0.1669 -3.3676
 1027TIP3    H224573   2.309   0.747   5.755  1.4861  0.4524 -0.4156
 1028TIP3   OH224574   4.951   2.610  12.941 -0.1862 -0.8189 -0.2193
 1028TIP3    H124575   4.920   2.558  13.015 -0.4330 -0.6183 -0.1807
 1028TIP3    H224576   5.046   2.598  12.942  0.5426  3.5544  3.5625
 1029TIP3   OH224577   1.102   2.993  16.712  0.3635 -0.0508  1.0092
 1029TIP3    H124578   1.094   3.008  16.806  0.2573 -0.8757  1.1345
 1029TIP3    H224579   1.051   2.914  16.695  0.4462  0.0473  0.2702
 1030TIP3   OH224580   6.567   0.599  12.669  0.0849 -0.5193 -0.0588
 1030TIP3    H124581   6.653   0.639  12.659  0.0790 -0.4110  0.3109
 1030TIP3    H224582   6.561   0.535  12.598  0.7573 -1.0344  0.3498
 1031TIP3   OH224583   3.499   6.680  12.864  0.2646  0.1990 -0.4674
 1031TIP3    H124584   3.490   6.638  12.950  0.4946  2.0003  0.4634
 1031TIP3    H224585   3.531   6.611  12.807  3.2595 -0.2728  1.6364
 1032TIP3   OH224586   1.553   1.268  10.963  0.5068  0.5715  0.3317
 1032TIP3    H124587   1.497   1.190  10.965 -0.5710  1.3454  1.0757
 1032TIP3    H224588   1.491   1.341  10.959  1.5141  1.3672 -1.5647
 1033TIP3   OH224589   0.291   6.554   2.086 -0.1444  0.3614 -0.0032
 1033TIP3    H124590   0.324   6.468   2.061  0.1518  0.7786 -1.0713
 1033TIP3    H224591   0.365   6.613   2.071 -0.4009  0.8258  0.5546
 1034TIP3   OH224592   6.698   0.112   1.605 -0.2903 -0.3071 -0.3232
 1034TIP3    H124593   6.646   0.050   1.554 -0.3846 -0.1588 -0.4075
 1034TIP3    H224594   6.787   0.099   1.575 -0.0847 -1.5253  0.7998
 1035TIP3   OH224595   5.455   3.536  13.148 -0.4003 -0.1013  0.2326
 1035TIP3    H124596   5.440   3.469  13.215  0.0048 -0.1984  0.2295
 1035TIP3    H224597   5.550   3.543  13.143 -0.4392  0.2079 -0.0331
 1036TIP3   OH224598   3.764   1.530  13.392 -0.2029  0.0401 -0.0115
 1036TIP3    H124599   3.748   1.536  13.298 -2.7610 -1.2504  0.2740
 1036TIP3    H224600   3.715   1.604  13.429  1.9188  1.3611  0.2292
 1037TIP3   OH224601   5.764   5.926   5.099 -0.0651 -0.2573  0.0559
 1037TIP3    H124602   5.694   5.872   5.063  0.8514 -0.2986 -1.7253
 1037TIP3    H224603   5.838   5.866   5.109  0.8469  0.5266 -1.5972
 1038TIP3   OH224604   5.904   6.275   3.770  0.0753  0.5305 -0.0846
 1038TIP3    H124605   5.858   6.205   3.723  0.1170  0.7826 -0.5045
 1038TIP3    H224606   5.907   6.347   3.708 -1.0144  1.3222  0.7698
 1039TIP3   OH224607   2.879   4.292  11.611  0.5362 -0.0305  0.1269
 1039TIP3    H124608   2.930   4.307  11.532  0.7039  2.6900  0.7075
 1039TIP3    H224609   2.831   4.374  11.625 -1.8845 -1.5608  1.1240
 1040TIP3   OH224610   2.715   5.920   2.494  0.1045 -0.7702  0.3219
 1040TIP3    H124611   2.636   5.887   2.537 -1.0070 -0.1133 -1.1702
 1040TIP3    H224612   2.738   5.853   2.430 -0.6470  0.1010 -0.8945
 1041TIP3   OH224613   0.218   2.316  16.325 -0.4304 -0.5759  0.1539
 1041TIP3    H124614   0.245   2.259  16.252  0.4132 -0.6407  0.5171
 1041TIP3    H224615   0.297   2.362  16.350 -0.4224 -1.4852  1.8772
 1042TIP3   OH224616   4.353   0.093  14.449  0.4960 -0.3340 -0.0405
 1042TIP3    H124617   4.433   0.146  14.449 -0.5805  1.3300  0.9070
 1042TIP3    H224618   4.303   0.124  14.374  0.0758 -0.3343  0.2352
 1043TIP3   OH224619   0.500   3.681   1.856  0.2205 -0.2205  0.5220
 1043TIP3    H124620   0.507   3.585   1.854  0.2013 -0.2138  0.1225
 1043TIP3    H224621   0.537   3.705   1.941 -1.9414 -0.7540  1.6364
 1044TIP3   OH224622   1.432   6.534  16.423  0.2755  0.0035  0.0609
 1044TIP3    H124623   1.495   6.480  16.377  1.3188  1.7596 -0.5868
 1044TIP3    H224624   1.365   6.472  16.453  1.1381 -1.5529 -1.1772
 1045TIP3   OH224625   1.750   4.427  11.618  0.1630  0.2167  0.4813
 1045TIP3    H124626   1.698   4.506  11.632 -1.0650 -0.6765  1.0446
 1045TIP3    H224627   1.810   4.424  11.693  0.0452  0.4977  0.5850
 1046TIP3   OH224628   5.589   0.834  14.161 -0.3473 -0.0316 -0.2036
 1046TIP3    H124629   5.529   0.807  14.091 -0.6794  0.4372 -0.1039
 1046TIP3    H224630   5.638   0.907  14.122  0.6147 -0.8341 -0.5106
 1047TIP3   OH224631   2.147   4.050  14.033  0.2002 -0.0274  0.4814
 1047TIP3    H124632   2.166   4.141  14.008 -1.0825  0.1243 -0.0080
 1047TIP3    H224633   2.136   4.054  14.129  1.1684  0.1337  0.5934
 1048TIP3   OH224634   5.385   2.561  13.428 -0.0942  0.2443  0.5882
 1048TIP3    H124635   5.404   2.624  13.359 -1.1521 -0.0269  0.0373
 1048TIP3    H224636   5.346   2.487  13.383  1.4012 -0.9398  1.2027
 1049TIP3   OH224637   5.249   4.951   2.644  0.2487 -0.3009 -0.4876
 1049TIP3    H124638   5.245   4.940   2.550  3.2018 -1.0989 -0.5717
 1049TIP3    H224639   5.212   4.870   2.680 -0.5337 -0.1521 -0.9696
 1050TIP3   OH224640   3.147   3.714   1.905  0.3716 -0.1433  0.0826
 1050TIP3    H124641   3.162   3.630   1.948  1.1533 -0.0819 -0.0646
 1050TIP3    H224642   3.085   3.760   1.962  1.0444 -0.2489  0.9037
 1051TIP3   OH224643   1.407   0.714  11.860  0.4214  0.1890 -0.1723
 1051TIP3    H124644   1.377   0.730  11.771  0.4291 -2.3517 -0.6921
 1051TIP3    H224645   1.438   0.623  11.858 -1.7204 -0.6651  2.9932
 1052TIP3   OH224646   5.119   4.253  16.656 -0.0945  0.1844 -0.1449
 1052TIP3    H124647   5.206   4.292  16.655  0.5941 -1.3153  0.9745
 1052TIP3    H224648   5.096   4.244  16.563  0.1617  2.2472 -0.4320
 1053TIP3   OH224649   2.796   2.286  11.383 -0.3916  0.0875 -0.0378
 1053TIP3    H124650   2.772   2.200  11.417  3.0985 -0.7070  0.5840
 1053TIP3    H224651   2.839   2.268  11.300  1.8754  1.0685  0.8940
 1054TIP3   OH224652   1.845   6.035   2.119  0.0023  0.7673  0.4234
 1054TIP3    H124653   1.799   6.088   2.054  0.9539  2.0124  0.7420
 1054TIP3    H224654   1.812   6.065   2.203  0.0813  0.4136  0.5816
 1055TIP3   OH224655   5.001   3.299   5.692 -1.0398 -0.5432 -0.3874
 1055TIP3    H124656   4.953   3.276   5.770 -0.4672  2.1037  0.8048
 1055TIP3    H224657   5.019   3.393   5.701  3.9872 -1.3112 -0.9107
 1056TIP3   OH224658   4.573   0.463  13.965  0.0685 -0.0235 -0.0402
 1056TIP3    H124659   4.578   0.554  13.996 -0.0692 -0.5826  1.6922
 1056TIP3    H224660   4.591   0.411  14.043 -1.9023 -1.5167 -0.5498
 1057TIP3   OH224661   1.898   0.799  13.522  0.0939 -0.4984 -0.1301
 1057TIP3    H124662   1.916   0.722  13.468 -0.0395 -0.9997  0.5472
 1057TIP3    H224663   1.803   0.797  13.536  0.2244 -0.7809  0.7435
 1058TIP3   OH224664   2.441   3.539   4.229 -0.1440 -0.3182  0.1995
 1058TIP3    H124665   2.395   3.617   4.261 -0.4013 -0.6984  0.7825
 1058TIP3    H224666   2.473   3.563   4.142  0.9238  0.8890  0.9097
 1059TIP3   OH224667   2.323   3.459   4.967  0.2279 -0.0920 -0.0204
 1059TIP3    H124668   2.248   3.411   5.002  0.1126 -0.4053 -0.7071
 1059TIP3    H224669   2.293   3.550   4.962  0.4390  0.0663  1.2533
 1060TIP3   OH224670   0.484   2.447   3.285  0.4304 -0.9027  0.0329
 1060TIP3    H124671   0.395   2.478   3.272  0.8252  0.1731 -0.1106
 1060TIP3    H224672   0.536   2.492   3.219  1.1817 -1.0879  0.4829
 1061TIP3   OH224673   0.503   6.623  15.481 -0.0878  0.7396  0.6384
 1061TIP3    H124674   0.495   6.701  15.426  1.9410  0.4721 -0.0609
 1061TIP3    H224675   0.597   6.609  15.490 -0.4236 -1.3930  1.0989
 1062TIP3   OH224676   5.753   3.791   4.261 -0.1548  0.1094 -0.4473
 1062TIP3    H124677   5.670   3.745   4.249 -0.7545  0.2659  2.5911
 1062TIP3    H224678   5.745   3.832   4.348  2.4668  1.4792 -0.7924
 1063TIP3   OH224679   1.718   1.057   2.929  0.0767  0.4584  0.5583
 1063TIP3    H124680   1.788   1.026   2.987 -1.5077  0.1786  2.3809
 1063TIP3    H224681   1.722   1.000   2.853  1.2682 -0.1177  1.0466
 1064TIP3   OH224682   0.246   4.684   0.001 -0.2027 -0.0361 -0.7178
 1064TIP3    H124683   0.289   4.606   0.037 -1.6759 -0.1695  0.7743
 1064TIP3    H224684   0.279   4.688  -0.089 -0.6214 -2.7949 -1.0579
 1065TIP3   OH224685   2.510   1.345   1.017  0.3069 -0.3237 -0.5387
 1065TIP3    H124686   2.558   1.365   1.097  0.1548  2.0427 -0.9861
 1065TIP3    H224687   2.575   1.302   0.960  1.3900  1.1118 -0.4218
 1066TIP3   OH224688   4.771   6.047  16.380  0.2247 -0.9473 -0.2546
 1066TIP3    H124689   4.803   6.103  16.309  1.4112 -0.3174  0.7760
 1066TIP3    H224690   4.850   6.014  16.423 -0.4803 -2.1070  0.1804
 1067TIP3   OH224691   0.644   0.030  16.373  0.4776 -0.7559  0.4439
 1067TIP3    H124692   0.734   0.046  16.343  0.1588  0.6341  0.1785
 1067TIP3    H224693   0.648  -0.055  16.416  1.8099 -0.9529 -0.0418
 1068TIP3   OH224694   4.202   6.053  11.047 -0.0759  0.0010 -0.1168
 1068TIP3    H124695   4.186   5.991  11.118 -0.3701  0.1159 -0.0792
 1068TIP3    H224696   4.278   6.018  11.000 -2.2888 -2.2316 -2.1724
 1069TIP3   OH224697   6.720   4.665   1.308 -0.0503 -0.5033  0.2423
 1069TIP3    H124698   6.715   4.691   1.400 -0.3514 -1.3867  0.4834
 1069TIP3    H224699   6.793   4.604   1.304 -0.3843 -0.8972  0.0092
 1070TIP3   OH224700   4.747   2.633   2.605  0.3644 -0.1429 -0.3257
 1070TIP3    H124701   4.664   2.590   2.586  0.0224  0.7749 -0.9785
 1070TIP3    H224702   4.784   2.653   2.518  0.7428  0.4190 -0.0407
 1071TIP3   OH224703   3.308   6.818  15.585  0.4852  0.1728  0.2566
 1071TIP3    H124704   3.372   6.884  15.609 -0.4832  2.1638 -2.3988
 1071TIP3    H224705   3.346   6.774  15.509  0.4411 -1.3466  1.0832
 1072TIP3   OH224706   0.158   4.639   3.907  0.2431  0.0625 -0.3798
 1072TIP3    H124707   0.177   4.548   3.884  1.1507 -0.0533  0.7590
 1072TIP3    H224708   0.236   4.687   3.879  0.2260  0.3204  0.0141
 1073TIP3   OH224709   4.565   5.929   4.406  0.3224 -0.2520  0.0892
 1073TIP3    H124710   4.570   5.834   4.410 -1.5789 -0.5657 -3.2177
 1073TIP3    H224711   4.536   5.948   4.317  0.9393  3.4461  0.5963
 1074TIP3   OH224712   2.461   5.272  11.950  0.2959 -0.9312  0.3703
 1074TIP3    H124713   2.425   5.353  11.914  1.5765 -0.6981 -0.4052
 1074TIP3    H224714   2.390   5.236  12.004  0.0341  1.2158  1.5266
 1075TIP3   OH224715   2.083   0.862   5.117  0.3617 -0.0951 -0.2396
 1075TIP3    H124716   2.119   0.893   5.200  1.6911  0.0844 -0.8773
 1075TIP3    H224717   2.114   0.772   5.109  2.5129  0.7464 -1.8190
 1076TIP3   OH224718   3.451   3.298  17.139 -0.2757 -0.2256 -0.3416
 1076TIP3    H124719   3.412   3.359  17.076 -1.1908 -1.9919 -1.5617
 1076TIP3    H224720   3.501   3.353  17.198  1.6611  1.4231 -3.3554
 1077TIP3   OH224721   1.142   4.969   0.044  0.2954  0.4749 -0.2984
 1077TIP3    H124722   1.197   4.942  -0.029 -0.5104  0.5837 -0.9502
 1077TIP3    H224723   1.059   4.923   0.030  0.1922  0.3607  0.6388
 1078TIP3   OH224724   6.353   2.695  14.360 -0.0110 -0.2556  0.2854
 1078TIP3    H124725   6.430   2.688  14.304  1.1015  1.6166  1.5526
 1078TIP3    H224726   6.293   2.751  14.312  0.9856  1.4357  0.9874
 1079TIP3   OH224727   6.401   3.662   6.427 -0.0918  0.8574 -0.1537
 1079TIP3    H124728   6.487   3.634   6.396  0.0061 -0.4679  1.2513
 1079TIP3    H224729   6.409   3.756   6.441  1.7414  0.4409  1.8013
 1080TIP3   OH224730   6.253   4.832  16.628 -0.5442  0.4368 -0.5301
 1080TIP3    H124731   6.269   4.848  16.721 -1.1872 -0.8986 -0.1692
 1080TIP3    H224732   6.266   4.737  16.618  3.0017  1.0477 -2.5037
 1081TIP3   OH224733   2.217   4.898  14.321  0.3021 -0.4690 -0.0510
 1081TIP3    H124734   2.161   4.821  14.306 -0.9738  0.3201  0.5346
 1081TIP3    H224735   2.155   4.970  14.335  1.4545  0.9675 -1.9851
 1082TIP3   OH224736   1.542   2.890  14.355  0.2271 -0.9080  0.3303
 1082TIP3    H124737   1.455   2.929  14.366 -0.5780 -2.3673 -0.7863
 1082TIP3    H224738   1.593   2.924  14.430 -1.4109 -0.3828  1.2292
 1083TIP3   OH224739   6.301   5.635   0.489  0.3785  0.3754  0.2132
 1083TIP3    H124740   6.298   5.600   0.578  1.5532 -0.5388 -0.0868
 1083TIP3    H224741   6.234   5.585   0.442  1.0858 -0.5022  0.1247
 1084TIP3   OH224742   3.318   3.924   5.302 -1.1330  0.0987 -0.8769
 1084TIP3    H124743   3.272   3.921   5.386 -0.6983  0.8780 -0.6051
 1084TIP3    H224744   3.304   4.013   5.271 -0.4385  0.1175 -1.1450
 1085TIP3   OH224745   2.240   1.541   6.265  0.8850 -0.4830  0.4782
 1085TIP3    H124746   2.202   1.624   6.236  0.3219 -0.7032  0.5820
 1085TIP3    H224747   2.168   1.495   6.309  0.7337 -1.7423 -1.0500
 1086TIP3   OH224748   4.041   4.631   2.601 -0.2149 -0.2955  0.1368
 1086TIP3    H124749   4.007   4.718   2.581  1.8494  0.2352 -1.3368
 1086TIP3    H224750   4.098   4.645   2.677  0.7374 -0.1737 -0.5805
 1087TIP3   OH224751   3.583   3.522  15.225  0.0830 -0.4974  0.1584
 1087TIP3    H124752   3.643   3.505  15.297  1.7159  0.7754 -0.8527
 1087TIP3    H224753   3.580   3.440  15.176 -0.2849 -1.0693  1.1329
 1088TIP3   OH224754   2.502   5.473   3.684 -0.1463  0.2443  0.1096
 1088TIP3    H124755   2.510   5.386   3.644  1.0811  1.3650 -2.2192
 1088TIP3    H224756   2.416   5.503   3.657  1.2522  1.6011 -3.1108
 1089TIP3   OH224757   4.891   4.850   0.158 -0.5075 -0.2951 -0.4848
 1089TIP3    H124758   4.884   4.941   0.186 -0.1106 -0.2544 -0.5142
 1089TIP3    H224759   4.900   4.800   0.239  1.9100 -0.0630 -0.5679
 1090TIP3   OH224760   3.195   6.621   5.039  0.1038 -0.1509  0.2322
 1090TIP3    H124761   3.253   6.692   5.068  0.9275 -0.6306 -0.2340
 1090TIP3    H224762   3.108   6.648   5.070  0.6265  0.3876  1.2746
 1091TIP3   OH224763   1.503   1.254   1.364  0.3684 -0.1129  0.6327
 1091TIP3    H124764   1.571   1.200   1.404 -1.6945 -2.7895  0.6223
 1091TIP3    H224765   1.532   1.266   1.274  1.4025 -0.2324  0.9376
 1092TIP3   OH224766   1.386   5.085   3.361 -0.2176 -0.0802 -0.1114
 1092TIP3    H124767   1.456   5.033   3.399  0.7823  1.3079 -0.0136
 1092TIP3    H224768   1.348   5.133   3.435 -0.8408 -0.3318 -0.2636
 1093TIP3   OH224769   3.536   3.576  13.105 -0.4173 -0.2904  0.9522
 1093TIP3    H124770   3.611   3.519  13.088 -0.0937  0.0203  1.3400
 1093TIP3    H224771   3.553   3.613  13.192 -0.9126 -0.0552  0.9486
 1094TIP3   OH224772   4.637   5.495   2.408 -0.2152  0.3504 -0.0444
 1094TIP3    H124773   4.669   5.564   2.350 -0.9171 -0.1213 -0.9989
 1094TIP3    H224774   4.714   5.441   2.427  0.0235  0.5365 -0.4903
 1095TIP3   OH224775   0.322   2.571  16.835  0.0162  0.2779  0.3349
 1095TIP3    H124776   0.231   2.546  16.818  0.0314 -0.6740  1.5598
 1095TIP3    H224777   0.371   2.489  16.828  0.8961  0.9237 -1.1009
 1096TIP3   OH224778   4.444   1.020  11.849 -0.0311 -0.2380 -0.0953
 1096TIP3    H124779   4.415   0.936  11.815  0.0187 -0.2926 -0.0017
 1096TIP3    H224780   4.532   1.003  11.883  0.0855 -0.0882 -0.3220
 1097TIP3   OH224781   0.876   1.898  12.549  0.5990 -0.0843 -0.0448
 1097TIP3    H124782   0.910   1.980  12.586  1.9722  0.6443 -2.8238
 1097TIP3    H224783   0.794   1.924  12.506  0.2982 -0.4712  0.2861
 1098TIP3   OH224784   3.366   3.295   2.999 -0.1747 -0.4430  0.3059
 1098TIP3    H124785   3.327   3.358   3.060  1.2881  2.4574 -1.6050
 1098TIP3    H224786   3.295   3.235   2.977 -1.8424  0.9883  1.6380
 1099TIP3   OH224787   5.761   2.096   2.641 -0.0432  0.2371  0.9000
 1099TIP3    H124788   5.810   2.023   2.603  0.5456  0.7481  0.6580
 1099TIP3    H224789   5.829   2.158   2.667 -0.6337  2.3780 -2.3347
 1100TIP3   OH224790   1.190   3.549   0.281  0.0167 -0.0220  0.4655
 1100TIP3    H124791   1.155   3.635   0.259  0.4657  0.2644  0.8669
 1100TIP3    H224792   1.239   3.523   0.203 -1.6994 -0.7642 -0.4059
 1101TIP3   OH224793   6.445   1.724  13.008 -0.0616 -0.0156  0.1032
 1101TIP3    H124794   6.353   1.706  13.029 -0.7954 -1.3278 -3.8906
 1101TIP3    H224795   6.443   1.807  12.960  0.9254  0.2666  0.5399
 1102TIP3   OH224796   6.462   5.588   5.292 -0.1951  0.6461 -0.0358
 1102TIP3    H124797   6.487   5.563   5.203 -1.0828  0.8800 -0.3544
 1102TIP3    H224798   6.466   5.507   5.342 -1.8629  0.0813 -0.7904
 1103TIP3   OH224799   1.940   6.490   4.279  0.2728 -0.2117  0.4701
 1103TIP3    H124800   1.884   6.484   4.356  2.2834  1.8592  2.1773
 1103TIP3    H224801   2.004   6.420   4.290  0.3180 -0.1676  0.4924
 1104TIP3   OH224802   3.105   2.423  12.590 -0.0417  0.4253 -0.1164
 1104TIP3    H124803   3.065   2.505  12.562 -0.6019  0.0827 -0.3251
 1104TIP3    H224804   3.157   2.447  12.667 -1.4713  0.6926  0.7840
 1105TIP3   OH224805   2.274   4.827  13.137 -0.2567  0.1378  0.0170
 1105TIP3    H124806   2.259   4.787  13.222  2.1072  1.0267  0.9031
 1105TIP3    H224807   2.283   4.753  13.077  1.3890 -0.6305  1.1593
 1106TIP3   OH224808   2.462   1.458  12.261 -0.0306  0.2544 -0.0605
 1106TIP3    H124809   2.513   1.409  12.326  0.1299  0.7396  0.1768
 1106TIP3    H224810   2.517   1.532  12.237 -0.7574  0.9565  0.4331
 1107TIP3   OH224811   1.826   6.720   1.261  0.4515 -0.4870  0.1232
 1107TIP3    H124812   1.809   6.716   1.167  1.6470  0.5451 -0.1532
 1107TIP3    H224813   1.750   6.677   1.301 -0.3182 -0.4681 -1.2789
 1108TIP3   OH224814   5.767   1.153   5.118 -0.3471  0.1540 -0.2633
 1108TIP3    H124815   5.816   1.222   5.073 -1.9677  0.0787 -2.2000
 1108TIP3    H224816   5.772   1.078   5.059  0.7052 -1.1585  1.4498
 1109TIP3   OH224817   5.052   4.759   4.733 -0.7002  0.0544 -0.5378
 1109TIP3    H124818   5.048   4.788   4.824  2.6396  0.8369 -0.5807
 1109TIP3    H224819   4.978   4.803   4.691 -0.9944  1.4159  1.3282
 1110TIP3   OH224820   1.246   4.354  14.036  0.3663  0.8126  0.7769
 1110TIP3    H124821   1.291   4.357  13.951  0.1350  1.4425  0.6786
 1110TIP3    H224822   1.225   4.445  14.056 -0.5649  0.5513  0.9908
 1111TIP3   OH224823   3.975   0.118  15.314 -0.0687 -0.4551  0.2286
 1111TIP3    H124824   3.987   0.140  15.406 -0.5626  0.6237  0.0444
 1111TIP3    H224825   4.033   0.177  15.267  2.8992 -3.4031  0.0067
 1112TIP3   OH224826   0.641   4.879   0.615  1.0416 -0.3435 -0.3726
 1112TIP3    H124827   0.561   4.908   0.573  1.0961  2.8910  1.6382
 1112TIP3    H224828   0.614   4.805   0.669  0.0288 -1.2161 -2.0272
 1113TIP3   OH224829   3.161   3.788  12.024  0.1421  0.2020 -0.1614
 1113TIP3    H124830   3.129   3.874  12.054  1.9058  0.8340 -0.0664
 1113TIP3    H224831   3.146   3.790  11.929 -0.9753  0.1158  0.0091
 1114TIP3   OH224832   5.478   5.747  12.475  0.1493  0.1647 -0.1537
 1114TIP3    H124833   5.451   5.656  12.464  0.2950 -0.6452  5.0919
 1114TIP3    H224834   5.403   5.799  12.445 -0.7172 -1.7046 -1.2733
 1115TIP3   OH224835   1.509   4.001  12.552  0.1947  0.1298 -0.1331
 1115TIP3    H124836   1.514   4.096  12.539  2.4307  0.0170 -0.4479
 1115TIP3    H224837   1.430   3.975  12.505  1.2339  1.4566 -2.7815
 1116TIP3   OH224838   4.851   5.152   1.575  0.0029 -0.1727 -0.2301
 1116TIP3    H124839   4.877   5.242   1.592 -0.0818 -0.1688 -0.1161
 1116TIP3    H224840   4.882   5.134   1.487 -0.1552  0.0335 -0.3290
 1117TIP3   OH224841   1.097   6.129  16.012  0.2041  0.6355 -0.0268
 1117TIP3    H124842   1.139   6.085  16.086  1.3137  0.5783 -0.6704
 1117TIP3    H224843   1.081   6.218  16.042 -0.1014  0.3868  0.5576
 1118TIP3   OH224844   5.786   5.893  13.392 -0.3613  0.3071  0.4088
 1118TIP3    H124845   5.723   5.946  13.440 -2.3087 -0.6371 -1.0445
 1118TIP3    H224846   5.823   5.953  13.327  0.2434  0.8538  1.2449
 1119TIP3   OH224847   4.183   4.822  11.352  0.3484  0.8353  0.9397
 1119TIP3    H124848   4.095   4.859  11.359 -0.1022  0.0522 -0.2560
 1119TIP3    H224849   4.215   4.852  11.267  0.8087  0.2447  0.9001
 1120TIP3   OH224850   5.939   4.323   3.447  0.6217  0.0574 -0.4535
 1120TIP3    H124851   5.974   4.288   3.365 -0.3262 -0.4685 -0.6448
 1120TIP3    H224852   5.935   4.417   3.433 -0.3506 -0.1115 -1.3366
 1121TIP3   OH224853   5.560   2.828   4.321  0.0457  0.1989 -0.0896
 1121TIP3    H124854   5.624   2.875   4.268 -0.5430  2.3936  1.0660
 1121TIP3    H224855   5.613   2.767   4.374  0.9608  0.4643 -0.6820
 1122TIP3   OH224856   0.014   1.150   1.857 -0.5744 -0.2172 -0.2744
 1122TIP3    H124857  -0.068   1.199   1.862 -1.4796 -1.7922  0.8843
 1122TIP3    H224858   0.049   1.154   1.946 -1.3443 -2.7505  0.1812
 1123TIP3   OH224859   3.034   1.798   0.209 -0.1663  0.0937  0.6815
 1123TIP3    H124860   3.005   1.713   0.242  1.8030 -0.7947  0.1733
 1123TIP3    H224861   3.117   1.814   0.254  1.7476 -0.3751 -2.5241
 1124TIP3   OH224862   5.515   4.863  11.285 -0.4220 -0.3264 -0.3941
 1124TIP3    H124863   5.510   4.839  11.377  1.2876  1.3202  0.1570
 1124TIP3    H224864   5.504   4.780  11.238 -1.5265 -1.1393  1.2630
 1125TIP3   OH224865   0.353   4.016   1.883  0.6398 -0.4426  0.4347
 1125TIP3    H124866   0.405   3.987   1.808 -0.0775 -0.2278 -0.1438
 1125TIP3    H224867   0.332   4.107   1.864 -0.7435 -0.8002  0.2266
 1126TIP3   OH224868   3.732   3.872   3.557  0.3231 -0.2546  0.1975
 1126TIP3    H124869   3.722   3.965   3.539  0.6569 -0.1019  0.7795
 1126TIP3    H224870   3.726   3.865   3.653 -2.2941 -1.1531  0.0030
 1127TIP3   OH224871   2.870   1.436   1.602 -1.1064 -0.4885  0.1058
 1127TIP3    H124872   2.845   1.510   1.547 -1.2257 -0.3857  0.2971
 1127TIP3    H224873   2.860   1.360   1.545 -0.5290 -0.3150 -0.2358
 1128TIP3   OH224874   0.605   5.445  12.415  0.1586  0.3037 -0.0830
 1128TIP3    H124875   0.590   5.507  12.344  0.0206  0.3721  0.0056
 1128TIP3    H224876   0.521   5.439  12.461 -0.0914 -0.6368 -0.6425
 1129TIP3   OH224877   4.479   2.559   2.943 -0.6200  0.1513 -0.1254
 1129TIP3    H124878   4.516   2.470   2.945  2.5867  1.4000 -0.4740
 1129TIP3    H224879   4.389   2.546   2.913 -0.7809 -3.1361  1.4904
 1130TIP3   OH224880   1.791   1.365   5.920 -0.4816  0.0703 -0.2265
 1130TIP3    H124881   1.725   1.385   5.853  0.9305 -1.1456 -2.0516
 1130TIP3    H224882   1.772   1.425   5.992 -2.8793  0.5033 -1.1679
 1131TIP3   OH224883   5.355   5.079  14.032 -0.0332 -0.2323 -0.1350
 1131TIP3    H124884   5.393   5.166  14.014  0.0556 -0.0376  0.9406
 1131TIP3    H224885   5.324   5.085  14.122 -2.6002 -0.4193 -0.9756
 1132TIP3   OH224886   1.724   2.456   2.833 -0.4440  0.0439  0.3601
 1132TIP3    H124887   1.735   2.531   2.775  0.7066 -0.7576 -0.4928
 1132TIP3    H224888   1.812   2.440   2.868 -0.8627 -0.3170  1.2763
 1133TIP3   OH224889   4.842   0.945  13.245  0.3521  0.3274  0.0069
 1133TIP3    H124890   4.922   0.892  13.254 -0.4752 -1.0074 -0.2479
 1133TIP3    H224891   4.848   1.010  13.315  0.1909 -1.7570  2.0533
 1134TIP3   OH224892   1.458   3.148  15.523  0.2794 -0.2179  0.3352
 1134TIP3    H124893   1.397   3.161  15.451 -0.1763 -1.1214  0.5438
 1134TIP3    H224894   1.424   3.204  15.593  0.5968  0.4908 -0.0791
 1135TIP3   OH224895   0.126   3.863   2.540  0.7389  0.7495  0.1993
 1135TIP3    H124896   0.119   3.950   2.581 -0.2794  0.5826  0.3861
 1135TIP3    H224897   0.126   3.882   2.446  1.3871  1.0103  0.2464
 1136TIP3   OH224898   4.542   4.705  16.849  0.4150  0.4247  0.2326
 1136TIP3    H124899   4.538   4.801  16.842  0.1899  0.4050  0.0662
 1136TIP3    H224900   4.629   4.687  16.884 -0.0789  0.7676  1.6571
 1137TIP3   OH224901   3.513   5.726  13.099 -0.7737  0.1441  0.0964
 1137TIP3    H124902   3.477   5.704  13.184  0.2675 -1.0837  0.2339
 1137TIP3    H224903   3.498   5.820  13.090 -2.0631  0.0396  1.0594
 1138TIP3   OH224904   6.603   2.959  11.917  0.3876 -0.4603 -0.4220
 1138TIP3    H124905   6.647   2.986  11.836 -0.2665  1.6354 -0.1041
 1138TIP3    H224906   6.520   2.922  11.888  0.4453 -0.3356 -0.7456
 1139TIP3   OH224907   6.757   3.343  11.132  0.7295 -0.2287 -0.1276
 1139TIP3    H124908   6.707   3.373  11.056  1.2581 -0.3857 -0.5395
 1139TIP3    H224909   6.845   3.378  11.119  0.8767 -0.4250  0.3084
 1140TIP3   OH224910   3.128   6.043  14.696  0.5040  0.1810 -0.6852
 1140TIP3    H124911   3.076   6.044  14.777 -0.0222 -0.2017 -1.0145
 1140TIP3    H224912   3.132   6.135  14.669  0.3905  0.2694 -0.4080
 1141TIP3   OH224913   6.742   4.011   5.394 -0.2656  0.4044 -0.7023
 1141TIP3    H124914   6.775   4.096   5.366 -2.8179  1.6128 -0.2417
 1141TIP3    H224915   6.660   4.001   5.346 -3.0416  1.0163  3.6605
 1142TIP3   OH224916   3.679   2.160  15.205 -0.1931  0.1143 -0.3740
 1142TIP3    H124917   3.596   2.185  15.245  0.9358 -0.1649  2.2346
 1142TIP3    H224918   3.745   2.209  15.253  1.5418 -3.2257  0.8190
 1143TIP3   OH224919   2.782   5.255   3.384  0.3215 -0.3093  0.2246
 1143TIP3    H124920   2.800   5.196   3.311  3.6380  1.0635 -0.1489
 1143TIP3    H224921   2.730   5.326   3.346  1.8464  0.2867 -0.8085
 1144TIP3   OH224922   3.768   5.218  14.474 -0.2349  0.3692  0.0565
 1144TIP3    H124923   3.712   5.146  14.504  0.0305 -0.1000 -0.5493
 1144TIP3    H224924   3.731   5.243  14.390  1.3523 -0.9797 -1.0968
 1145TIP3   OH224925   3.346   5.117   2.565 -0.3364 -0.3635  0.6270
 1145TIP3    H124926   3.258   5.082   2.550 -0.5982  0.5405 -0.0323
 1145TIP3    H224927   3.348   5.136   2.659 -1.3210  0.8247  0.4201
 1146TIP3   OH224928   0.711   3.622  11.245  0.4469 -0.2274  0.7539
 1146TIP3    H124929   0.776   3.646  11.311  0.6042 -2.5856  1.4761
 1146TIP3    H224930   0.738   3.536  11.214 -0.8691 -0.1035 -0.8163
 1147TIP3   OH224931   0.125   4.025  13.258  0.2271 -0.2436  0.4255
 1147TIP3    H124932   0.135   4.095  13.194  0.9651 -1.7495 -1.1506
 1147TIP3    H224933   0.125   3.944  13.206  0.4504 -1.4779  2.2791
 1148TIP3   OH224934   3.038   2.704  17.132  0.4259 -0.3982  0.6280
 1148TIP3    H124935   2.961   2.700  17.076  1.3897  2.4513 -0.9872
 1148TIP3    H224936   3.008   2.745  17.213 -0.0509 -0.6707  0.5903
 1149TIP3   OH224937   6.791   0.365  14.555 -0.8203  0.1149 -0.0240
 1149TIP3    H124938   6.875   0.357  14.601 -0.9312 -0.4038  0.1004
 1149TIP3    H224939   6.813   0.403  14.471 -0.3036 -0.9993 -0.4094
 1150TIP3   OH224940   0.390   0.575  11.866  0.1407  0.2672 -0.1076
 1150TIP3    H124941   0.342   0.500  11.901  2.4468  0.4935  3.8316
 1150TIP3    H224942   0.464   0.537  11.820  0.0514  0.1096 -0.1212
 1151TIP3   OH224943   4.992   1.909   2.769  0.2816 -0.2758 -0.2685
 1151TIP3    H124944   4.934   1.835   2.788  0.4795 -0.8691 -1.9219
 1151TIP3    H224945   5.071   1.870   2.731  1.2027  0.6350  0.6693
 1152TIP3   OH224946   5.548   1.262   5.268  0.4797  0.4840  0.1892
 1152TIP3    H124947   5.627   1.216   5.241 -0.0664 -1.5858  2.0196
 1152TIP3    H224948   5.484   1.241   5.200  0.9635  0.6221 -0.3127
 1153TIP3   OH224949   0.986   4.886   5.432  0.1671  0.6484  0.6100
 1153TIP3    H124950   0.905   4.936   5.432  0.7199  1.6015  2.0905
 1153TIP3    H224951   0.976   4.822   5.362 -1.6111  1.1444  0.4031
 1154TIP3   OH224952   0.945   0.945  13.892  0.0590  0.0846  0.0602
 1154TIP3    H124953   0.855   0.969  13.916  0.7877  3.5572 -0.4955
 1154TIP3    H224954   0.934   0.886  13.818 -1.8035 -1.0177  1.1554
 1155TIP3   OH224955   1.915   6.115   3.058  0.5661 -0.1167  0.0697
 1155TIP3    H124956   2.007   6.122   3.033 -0.0635  0.3429 -2.2194
 1155TIP3    H224957   1.878   6.200   3.036 -0.8469 -0.9618 -0.8592
 1156TIP3   OH224958   2.992   5.426  13.001  0.0436 -0.3912  0.3152
 1156TIP3    H124959   3.031   5.498  13.050 -1.8046  0.4923  0.5322
 1156TIP3    H224960   2.932   5.383  13.063 -1.4699  0.0508 -0.7907
 1157TIP3   OH224961   1.916   3.744   4.799  0.0141  0.0847 -0.5501
 1157TIP3    H124962   1.949   3.665   4.841  0.6960  0.4765 -0.3473
 1157TIP3    H224963   1.979   3.762   4.729  0.2359  0.8335 -0.1624
 1158TIP3   OH224964   4.165   3.667   5.714 -0.4061  0.1688 -0.5699
 1158TIP3    H124965   4.110   3.618   5.653 -2.1886  2.0816 -0.5233
 1158TIP3    H224966   4.201   3.739   5.662 -2.2994  2.0905  0.6896
 1159TIP3   OH224967   5.512   3.905  13.266 -0.2878  0.1422  0.7114
 1159TIP3    H124968   5.530   3.907  13.172 -0.8084 -1.8308  0.5397
 1159TIP3    H224969   5.598   3.911  13.307  0.0876 -0.7585  0.0648
 1160TIP3   OH224970   4.639   3.595   4.660 -0.0040 -0.1419 -0.3197
 1160TIP3    H124971   4.683   3.647   4.592 -0.0303  0.0264 -0.2085
 1160TIP3    H224972   4.672   3.506   4.646  0.6423  0.0443 -0.0221
 1161TIP3   OH224973   1.838   3.485  11.406  0.2169 -0.7687 -0.0798
 1161TIP3    H124974   1.923   3.499  11.365  0.2995  0.5014  0.5056
 1161TIP3    H224975   1.856   3.426  11.479  0.4220 -1.3206 -0.5768
 1162TIP3   OH224976   0.482   3.691  12.721 -0.0629  0.1044 -0.7314
 1162TIP3    H124977   0.523   3.777  12.724 -1.2698  0.7513 -2.2720
 1162TIP3    H224978   0.432   3.691  12.640 -2.0085 -1.1637  0.4316
 1163TIP3   OH224979   6.193   4.983  14.475  0.0668 -0.2522  0.1050
 1163TIP3    H124980   6.206   4.932  14.395  0.7866 -1.3713  0.9060
 1163TIP3    H224981   6.282   5.010  14.500  0.1543 -2.0223  1.8514
 1164TIP3   OH224982   4.641   0.778  10.563 -0.0632  0.5384 -0.2677
 1164TIP3    H124983   4.547   0.767  10.550 -0.6917  2.0980  2.5072
 1164TIP3    H224984   4.668   0.696  10.606  0.1367 -0.4673 -2.2587
 1165TIP3   OH224985   2.935   5.179  16.626  0.0331  0.1176 -0.1408
 1165TIP3    H124986   2.975   5.127  16.697 -1.1759  0.7754  1.0455
 1165TIP3    H224987   2.945   5.125  16.548  1.6979 -0.4770  0.4703
 1166TIP3   OH224988   6.059   3.657   2.806  0.6849  0.0967 -0.2000
 1166TIP3    H124989   6.137   3.621   2.763  2.2748  2.4734  0.5790
 1166TIP3    H224990   6.055   3.748   2.776 -0.2637  0.7507  1.8484
 1167TIP3   OH224991   5.864   1.499  15.685 -0.0056  0.0573 -0.5747
 1167TIP3    H124992   5.799   1.534  15.625  0.2021 -1.1245 -1.5130
 1167TIP3    H224993   5.882   1.411  15.652  0.9877 -0.1698  0.5293
 1168TIP3   OH224994   4.740   1.710   6.226  0.2018  0.4522  0.1349
 1168TIP3    H124995   4.825   1.704   6.270 -0.2659  1.3727  1.1910
 1168TIP3    H224996   4.715   1.802   6.233 -0.9682  0.1568  0.0019
 1169TIP3   OH224997   4.696   1.894  10.808 -0.2535  0.6516  0.0914
 1169TIP3    H124998   4.761   1.826  10.827  1.3455  1.5493 -1.9857
 1169TIP3    H224999   4.624   1.847  10.765 -0.3518 -0.1044  1.0475
 1170TIP3   OH225000   2.191   1.417  12.352 -0.1764 -0.1571 -0.0301
 1170TIP3    H125001   2.183   1.368  12.433  0.4760  1.3554  0.9534
 1170TIP3    H225002   2.284   1.416  12.331  0.0442  1.8085  0.7371
 1171TIP3   OH225003   1.840   2.462  14.714  0.1108 -0.0517 -0.4733
 1171TIP3    H125004   1.835   2.518  14.636 -2.1378 -1.1171 -1.1063
 1171TIP3    H225005   1.801   2.515  14.784  0.1651  0.0779 -0.5397
 1172TIP3   OH225006   0.902   4.994   4.223 -0.8710  0.0108  0.2879
 1172TIP3    H125007   0.813   4.993   4.188 -0.1829  0.2974 -1.5411
 1172TIP3    H225008   0.954   5.038   4.155  0.7600 -0.6707  1.0619
 1173TIP3   OH225009   1.777   5.723   5.285 -0.2535  0.6038 -0.2301
 1173TIP3    H125010   1.728   5.649   5.319  1.6903  0.5831  2.7217
 1173TIP3    H225011   1.723   5.800   5.304  0.3103  0.4758  2.0783
 1174TIP3   OH225012   0.314   2.317  17.134  0.6274 -0.1296  0.3591
 1174TIP3    H125013   0.263   2.396  17.115  1.7317  0.1433 -1.4947
 1174TIP3    H225014   0.248   2.249  17.147 -0.3131  0.9475  1.4091
 1175TIP3   OH225015   1.525   2.750  12.368 -0.2309  0.4703  0.6695
 1175TIP3    H125016   1.477   2.772  12.288  0.2476 -1.0187 -0.0635
 1175TIP3    H225017   1.462   2.703  12.422 -0.1387  0.1683  0.5170
 1176TIP3   OH225018   1.000   6.599   5.573  0.0034  0.0420 -0.2118
 1176TIP3    H125019   0.991   6.527   5.510 -1.0623 -0.0385  0.0304
 1176TIP3    H225020   0.912   6.611   5.609  0.7509 -0.3923  1.8120
 1177TIP3   OH225021   0.775   2.550   5.636 -0.2216 -0.5174  0.4768
 1177TIP3    H125022   0.755   2.465   5.596 -2.1926 -0.8406  2.0788
 1177TIP3    H225023   0.716   2.611   5.591  3.8170  0.8050 -3.4086
 1178TIP3   OH225024   2.465   0.720  14.298  0.6383 -0.5109 -0.1213
 1178TIP3    H125025   2.523   0.784  14.340 -0.1797  0.2270 -0.0864
 1178TIP3    H225026   2.377   0.756  14.310 -0.2015 -3.3785  2.9339
 1179TIP3   OH225027   6.554   4.936   2.557  0.1478  0.0151  0.5062
 1179TIP3    H125028   6.549   4.964   2.465  0.6258  2.0472  1.0640
 1179TIP3    H225029   6.583   4.845   2.553 -1.5391 -0.5076 -1.4196
 1180TIP3   OH225030   1.465   2.056  12.487  0.3058 -0.4464 -0.2094
 1180TIP3    H125031   1.371   2.047  12.474 -0.4364  3.9478  1.4834
 1180TIP3    H225032   1.502   2.047  12.400 -1.8188 -0.4924 -1.1358
 1181TIP3   OH225033   2.839   3.407  13.152  0.1305 -0.4347  0.0254
 1181TIP3    H125034   2.863   3.348  13.080  1.5608 -0.8990  0.8637
 1181TIP3    H225035   2.850   3.495  13.116  1.0371 -0.6655 -0.2724
 1182TIP3   OH225036   3.683   6.476   0.786  0.0321  0.7847  0.1203
 1182TIP3    H125037   3.656   6.451   0.698 -0.6204  0.5178  0.3908
 1182TIP3    H225038   3.715   6.395   0.825 -0.1341  0.8015  0.2933
 1183TIP3   OH225039   5.666   3.976  12.675  0.0232 -0.3518 -0.1613
 1183TIP3    H125040   5.749   4.011  12.640  0.4046  0.2988  1.3618
 1183TIP3    H225041   5.601   4.042  12.651  0.4559  0.5981  1.1975
 1184TIP3   OH225042   5.359   1.545   0.843 -0.6478  0.2335 -0.1497
 1184TIP3    H125043   5.359   1.611   0.774 -0.8266 -1.2002 -1.5573
 1184TIP3    H225044   5.442   1.557   0.889  0.6326 -0.4133 -2.2280
 1185TIP3   OH225045   1.712   3.231  15.451  0.4154 -0.1967 -0.3386
 1185TIP3    H125046   1.704   3.187  15.366 -1.0505 -2.8169  1.0759
 1185TIP3    H225047   1.629   3.213  15.495  0.9501  1.5615  1.4792
 1186TIP3   OH225048   1.471   2.727  16.389 -0.1449  0.4620  0.2095
 1186TIP3    H125049   1.423   2.766  16.316 -2.1972 -0.9401  0.7707
 1186TIP3    H225050   1.548   2.784  16.401 -1.7052  2.8116 -0.6408
 1187TIP3   OH225051   4.872   6.504   2.575  0.1004 -0.0102 -0.1368
 1187TIP3    H125052   4.778   6.524   2.574 -0.1429 -1.0262 -2.6410
 1187TIP3    H225053   4.893   6.484   2.483  3.1035  1.7756  0.0807
 1188TIP3   OH225054   4.621   2.159  12.032  0.4224 -0.3280  0.5802
 1188TIP3    H125055   4.540   2.129  12.074 -1.9910  1.0317 -2.9010
 1188TIP3    H225056   4.682   2.086  12.045 -1.4929 -1.6307  2.7793
 1189TIP3   OH225057   5.673   1.075   2.584  0.1164 -0.0654 -0.2353
 1189TIP3    H125058   5.607   1.092   2.651  1.4493 -1.9572  1.6178
 1189TIP3    H225059   5.628   1.025   2.517 -1.2063  1.7359 -0.7291
 1190TIP3   OH225060   0.217   3.417  11.076 -0.0239  0.8250  0.2589
 1190TIP3    H125061   0.303   3.460  11.081  0.3552 -0.0684  1.7194
 1190TIP3    H225062   0.236   3.324  11.088 -1.3591  0.7929  2.4154
 1191TIP3   OH225063   3.632   4.768  12.883 -0.5632  0.0804 -0.2215
 1191TIP3    H125064   3.639   4.845  12.939  0.2543 -0.0456 -0.1425
 1191TIP3    H225065   3.580   4.797  12.808 -1.6525  0.2546  0.5865
 1192TIP3   OH225066   0.816   0.730   3.699 -0.3306 -0.3703  0.3121
 1192TIP3    H125067   0.855   0.814   3.675 -0.5326 -0.1502  0.7544
 1192TIP3    H225068   0.859   0.667   3.641  0.1784 -0.0323  0.3173
 1193TIP3   OH225069   5.185   1.008   0.703  0.2637 -0.3723 -0.0522
 1193TIP3    H125070   5.142   0.949   0.641 -0.2725 -0.9750  0.8801
 1193TIP3    H225071   5.150   1.095   0.682  3.2934  0.1885 -3.4514
 1194TIP3   OH225072   3.912   2.553   4.424 -0.5439 -0.2856 -0.4368
 1194TIP3    H125073   3.845   2.611   4.388  0.3010  0.2227 -1.2574
 1194TIP3    H225074   3.864   2.480   4.462 -1.5453  0.0000 -1.1299
 1195TIP3   OH225075   6.145   2.975  15.178  0.3273  0.0403  0.1044
 1195TIP3    H125076   6.093   2.959  15.099  0.6408 -0.8185  0.0606
 1195TIP3    H225077   6.135   3.068  15.195 -3.1797 -0.4756  1.4350
 1196TIP3   OH225078   0.219   5.413  13.708  0.5679 -0.0555 -0.2133
 1196TIP3    H125079   0.214   5.433  13.614  1.0258  0.8776 -0.0376
 1196TIP3    H225080   0.309   5.433  13.732 -0.0200  1.3764  0.8042
 1197TIP3   OH225081   0.212   1.277   1.730  0.0123  0.5255 -0.1860
 1197TIP3    H125082   0.145   1.223   1.772  0.0968 -1.1278 -2.1178
 1197TIP3    H225083   0.287   1.219   1.720  1.4079  2.0776  1.0501
 1198TIP3   OH225084   6.626   3.491  11.737  0.3934 -0.0745  0.0648
 1198TIP3    H125085   6.542   3.451  11.759 -0.3887  1.1784 -0.5931
 1198TIP3    H225086   6.627   3.573  11.785  1.2889 -0.1093  0.1233
 1199TIP3   OH225087   6.802   6.584  15.472  0.0662  0.3902  0.1048
 1199TIP3    H125088   6.707   6.597  15.476  0.1024  0.6470  0.1604
 1199TIP3    H225089   6.825   6.552  15.559 -0.3599 -2.3836 -0.7560
 1200TIP3   OH225090   2.395   3.775  16.647 -0.4740 -0.0916 -0.4308
 1200TIP3    H125091   2.314   3.820  16.670 -0.1537 -0.0030  0.5141
 1200TIP3    H225092   2.422   3.730  16.727  1.2506  1.1744 -0.2669
 1201TIP3   OH225093   3.437   6.290  13.361  0.3941  0.0989 -0.4744
 1201TIP3    H125094   3.447   6.197  13.343 -1.5409  0.0783 -1.5445
 1201TIP3    H225095   3.368   6.295  13.428 -2.2054  0.9214 -3.1282
 1202TIP3   OH225096   6.154   4.582  15.073  0.0831  0.9233 -0.1342
 1202TIP3    H125097   6.163   4.532  14.991 -1.8675  0.5033 -0.0984
 1202TIP3    H225098   6.064   4.613  15.072 -0.6075 -0.8314  2.8714
 1203TIP3   OH225099   3.807   2.973   5.614 -0.3460  0.4135 -0.3327
 1203TIP3    H125100   3.824   2.937   5.701 -1.4456 -0.3671 -0.4248
 1203TIP3    H225101   3.741   3.041   5.628  0.0862  0.8631 -0.4543
 1204TIP3   OH225102   1.168   4.622   5.713 -0.0531  0.1577  0.0857
 1204TIP3    H125103   1.153   4.565   5.638 -0.1885  1.2897 -0.7471
 1204TIP3    H225104   1.247   4.587   5.755 -0.3964 -0.9153 -0.1531
 1205TIP3   OH225105   6.701   2.800  14.579 -0.1836 -0.3186 -0.0357
 1205TIP3    H125106   6.664   2.755  14.503  0.3894 -0.7244 -0.0747
 1205TIP3    H225107   6.784   2.754  14.596 -0.5233 -0.5148  1.1005
 1206TIP3   OH225108   5.376   5.961  13.541 -0.8878 -0.1502 -0.7182
 1206TIP3    H125109   5.387   5.945  13.634 -2.1086 -2.4722 -0.9206
 1206TIP3    H225110   5.292   6.006  13.534  0.8904  3.3689 -0.4464
 1207TIP3   OH225111   0.796   5.292   2.244  0.1040  0.2053  0.3579
 1207TIP3    H125112   0.865   5.232   2.218  0.4810 -0.0465  1.8976
 1207TIP3    H225113   0.812   5.309   2.336 -0.1964  2.4099  0.0433
 1208TIP3   OH225114   4.971   5.438  13.227  0.1250 -0.3942 -0.1300
 1208TIP3    H125115   5.045   5.379  13.207  0.6481  0.4447 -0.7043
 1208TIP3    H225116   4.993   5.477  13.311  0.5963  0.2427 -0.5411
 1209TIP3   OH225117   5.868   3.610   5.103  0.0839 -0.0968 -0.4909
 1209TIP3    H125118   5.794   3.660   5.067 -1.6047 -1.8486  0.4657
 1209TIP3    H225119   5.906   3.566   5.027 -1.7327 -1.5401 -0.6128
 1210TIP3   OH225120   5.962   1.330  11.495  0.1034 -0.3551  0.7032
 1210TIP3    H125121   5.880   1.288  11.468  0.7151 -2.3740  1.9050
 1210TIP3    H225122   6.014   1.259  11.532  1.2397  1.4444  2.6445
 1211TIP3   OH225123   4.980   0.390   3.323 -0.1357  0.4903  0.2134
 1211TIP3    H125124   4.963   0.447   3.398  0.2392  1.8350 -0.7027
 1211TIP3    H225125   4.955   0.442   3.247 -0.3921 -0.8131 -0.6074
 1212TIP3   OH225126   0.443   0.008   0.399  0.5972  0.0896  0.2225
 1212TIP3    H125127   0.484   0.016   0.485  1.7202 -3.4867  0.0761
 1212TIP3    H225128   0.516   0.011   0.337  0.4031 -3.1697 -0.2227
 1213TIP3   OH225129   1.774   1.481  15.937  0.6214  0.1354 -0.6889
 1213TIP3    H125130   1.756   1.466  15.844  0.0566  0.3410 -0.6130
 1213TIP3    H225131   1.715   1.553  15.962  0.3320 -0.3234 -0.0289
 1214TIP3   OH225132   5.748   3.103  15.750  0.2823  0.0167  0.4014
 1214TIP3    H125133   5.758   3.008  15.757  0.1372 -0.1382 -1.3010
 1214TIP3    H225134   5.812   3.128  15.683 -1.0303  0.8694 -0.5388
 1215TIP3   OH225135   6.109   5.293  15.079 -0.0762 -0.4103  0.0501
 1215TIP3    H125136   6.131   5.203  15.054  0.5080 -1.1042  2.8383
 1215TIP3    H225137   6.091   5.288  15.173  1.1377  2.5853  0.5058
 1216TIP3   OH225138   1.051   6.066   2.180 -0.4989  0.3429 -0.4272
 1216TIP3    H125139   1.119   6.090   2.244  1.1155 -0.4369 -1.7992
 1216TIP3    H225140   1.005   5.993   2.222 -2.3672  2.6575  1.7186
 1217TIP3   OH225141   0.884   2.877   5.653 -0.1018  0.2569 -0.2548
 1217TIP3    H125142   0.913   2.802   5.705 -0.1853 -0.2109 -0.8733
 1217TIP3    H225143   0.878   2.949   5.715  2.1687  0.3226 -0.0605
 1218TIP3   OH225144   5.593   4.616  12.173 -0.2471  0.3238 -0.3108
 1218TIP3    H125145   5.643   4.537  12.155 -2.0418 -0.9987  0.4207
 1218TIP3    H225146   5.612   4.674  12.099  2.7888  0.1008  0.2274
 1219TIP3   OH225147   4.161   6.421  15.417  0.0129  0.4873 -0.9625
 1219TIP3    H125148   4.246   6.463  15.431  0.5518 -0.0886 -2.4703
 1219TIP3    H225149   4.137   6.387  15.504  1.7552 -0.1420 -0.7046
 1220TIP3   OH225150   0.894   6.410   1.539  0.5110 -0.7290 -0.2587
 1220TIP3    H125151   0.951   6.367   1.603  1.7035 -1.4054 -1.7478
 1220TIP3    H225152   0.816   6.354   1.535 -1.2266  1.2864  3.2924
 1221TIP3   OH225153   3.730   2.743  13.547 -0.4519  0.1530  0.0406
 1221TIP3    H125154   3.758   2.749  13.456  0.5572  2.5739  0.4429
 1221TIP3    H225155   3.677   2.822  13.561  2.6775  1.9461  2.5555
 1222TIP3   OH225156   6.065   2.272  17.043 -0.4505 -0.4134  0.0948
 1222TIP3    H125157   6.132   2.215  17.081 -2.1350 -1.5498  1.4191
 1222TIP3    H225158   6.109   2.315  16.970  1.7148 -1.1568  0.9278
 1223TIP3   OH225159   5.772   4.946   1.208 -0.0842  0.4716 -0.4069
 1223TIP3    H125160   5.784   5.029   1.162  1.1583  1.2529  1.2665
 1223TIP3    H225161   5.684   4.952   1.245  0.2822  1.3877  0.3494
 1224TIP3   OH225162   5.483   4.682   0.517 -0.0680  0.0519 -0.2924
 1224TIP3    H125163   5.556   4.622   0.500 -0.5490 -0.3220 -1.0605
 1224TIP3    H225164   5.427   4.635   0.579 -0.4919 -0.3337 -0.9650
 1225TIP3   OH225165   6.168   4.935   4.368  0.0261  0.2989  0.3877
 1225TIP3    H125166   6.246   4.907   4.416  0.6307  1.4241  0.0810
 1225TIP3    H225167   6.111   4.858   4.367  1.5897 -0.8659 -0.3305
 1226TIP3   OH225168   4.636   2.100   3.870  0.1824 -0.4731  0.2915
 1226TIP3    H125169   4.577   2.039   3.915  1.4637 -1.1481  1.1050
 1226TIP3    H225170   4.630   2.076   3.778  0.0160 -1.2666  0.5014
 1227TIP3   OH225171   4.921   6.246  15.010  1.1275  0.4722 -0.5956
 1227TIP3    H125172   4.960   6.326  14.975  0.5082  0.5814 -1.0412
 1227TIP3    H225173   4.944   6.179  14.946 -0.5550  0.7965 -1.5518
 1228TIP3   OH225174   6.369   1.250  12.835  0.0665  0.0132  0.1351
 1228TIP3    H125175   6.306   1.192  12.793 -2.5279  1.5325  1.7703
 1228TIP3    H225176   6.381   1.321  12.773  0.5602 -0.5197 -0.3861
 1229TIP3   OH225177   1.287   3.430   6.037 -0.2731  0.2610  0.4458
 1229TIP3    H125178   1.349   3.383   5.982 -1.6125 -1.8227  0.6496
 1229TIP3    H225179   1.248   3.496   5.978 -1.5024 -1.7573 -1.0603
 1230TIP3   OH225180   4.137   4.006  12.395 -0.1503 -0.2477 -0.1296
 1230TIP3    H125181   4.085   4.075  12.435  1.2838  0.6248  0.2585
 1230TIP3    H225182   4.078   3.931  12.391 -1.2150  0.5151  0.9262
 1231TIP3   OH225183   1.609   3.500   1.724  0.7075  0.0668  0.1975
 1231TIP3    H125184   1.632   3.407   1.733  1.6141  0.3145  0.5290
 1231TIP3    H225185   1.679   3.536   1.668 -0.5936  0.1872 -1.3929
 1232TIP3   OH225186   2.514   6.805  14.871  0.1370 -0.4334 -0.3057
 1232TIP3    H125187   2.510   6.724  14.921  0.0613 -0.3589 -0.1903
 1232TIP3    H225188   2.464   6.868  14.924 -2.1461 -1.0010 -1.6962
 1233TIP3   OH225189   4.596   4.203  11.999 -0.6142  0.7893  0.6059
 1233TIP3    H125190   4.650   4.263  11.949 -1.0144  0.1189 -0.6515
 1233TIP3    H225191   4.536   4.165  11.935  0.1833 -1.5623  1.2095
 1234TIP3   OH225192   1.730   4.828   0.518 -0.0035 -0.2664  0.5624
 1234TIP3    H125193   1.825   4.827   0.506  0.2198  2.0481  1.7780
 1234TIP3    H225194   1.717   4.874   0.600 -2.2321  0.3614 -0.1041
 1235TIP3   OH225195   2.250   6.728   1.183  1.0657  0.1347  0.0552
 1235TIP3    H125196   2.204   6.771   1.111 -0.2232  0.2034  0.8945
 1235TIP3    H225197   2.331   6.696   1.144 -0.4643 -1.5344 -1.9055
 1236TIP3   OH225198   3.433   4.164  16.837  0.2080 -0.0277 -0.4244
 1236TIP3    H125199   3.477   4.154  16.752 -1.5466 -0.6507 -1.2933
 1236TIP3    H225200   3.446   4.256  16.860  1.9375 -0.2058 -0.6610
 1237TIP3   OH225201   5.844   6.277   0.181  0.4495 -0.2019  0.0793
 1237TIP3    H125202   5.931   6.295   0.144  0.7587  1.7187  1.6881
 1237TIP3    H225203   5.860   6.211   0.248  0.2767 -1.7022 -1.3254
 1238TIP3   OH225204   0.155   1.255  11.108 -0.4388 -0.7744 -0.7335
 1238TIP3    H125205   0.144   1.211  11.024  2.3796  1.0094 -2.1209
 1238TIP3    H225206   0.179   1.345  11.085  3.3325 -0.9850  1.8736
 1239TIP3   OH225207   5.574   2.264  12.467 -0.1707 -0.3571 -0.1950
 1239TIP3    H125208   5.611   2.311  12.392 -0.4452 -0.6735 -0.5307
 1239TIP3    H225209   5.517   2.328  12.510 -2.1882 -0.9851 -1.8543
 1240TIP3   OH225210   0.952   6.064  15.471 -0.0454 -0.2418 -0.0734
 1240TIP3    H125211   0.948   6.150  15.431 -0.8695  0.0924  0.6914
 1240TIP3    H225212   0.898   6.072  15.550  2.1608 -0.6403  1.5390
 1241TIP3   OH225213   6.233   1.787  16.078 -0.5829 -0.1660  0.1920
 1241TIP3    H125214   6.264   1.698  16.065 -2.0051 -0.6771  0.2244
 1241TIP3    H225215   6.224   1.796  16.173 -1.2792 -0.2929  0.1441
 1242TIP3   OH225216   2.077   4.218   3.978  0.2235 -0.4279  0.1390
 1242TIP3    H125217   1.991   4.179   3.961  0.3209 -1.0436  0.9841
 1242TIP3    H225218   2.099   4.188   4.067  0.5217  1.1686  0.6223
 1243TIP3   OH225219   1.480   6.334   4.368  0.0827 -0.2256 -0.2107
 1243TIP3    H125220   1.425   6.365   4.439  1.9812 -0.2422  1.3165
 1243TIP3    H225221   1.450   6.244   4.352 -0.7885  0.0035  0.1141
 1244TIP3   OH225222   6.169   2.775   2.961 -0.4550 -0.2143  0.6475
 1244TIP3    H125223   6.098   2.720   2.997 -1.5576  0.3785 -0.5957
 1244TIP3    H225224   6.129   2.861   2.949  0.0580 -0.2428 -1.4348
 1245TIP3   OH225225   0.163   6.441   5.164  0.2950 -0.0349  0.5624
 1245TIP3    H125226   0.223   6.471   5.095  0.4331  3.2387  2.0176
 1245TIP3    H225227   0.086   6.497   5.153 -1.3944 -2.3506  0.4585
 1246TIP3   OH225228   6.456   3.067   0.939  0.0988 -0.0850  0.0035
 1246TIP3    H125229   6.437   3.159   0.923 -2.1929 -0.7329 -1.1580
 1246TIP3    H225230   6.523   3.068   1.007  0.6430  2.4424 -0.5309
 1247TIP3   OH225231   3.383   3.662   4.563  0.7858 -0.2914  0.5304
 1247TIP3    H125232   3.308   3.716   4.536  1.1819 -0.0722 -0.1411
 1247TIP3    H225233   3.366   3.576   4.525  0.3149 -0.5598  1.3323
 1248TIP3   OH225234   5.042   0.920   2.823 -0.0081 -0.8824  0.2453
 1248TIP3    H125235   5.026   1.008   2.791 -0.2653 -1.4727 -1.2737
 1248TIP3    H225236   5.133   0.901   2.798 -0.6253 -1.8373 -1.3209
 1249TIP3   OH225237   3.139   5.079   0.315  0.4665 -0.6380 -0.4475
 1249TIP3    H125238   3.233   5.098   0.311  0.4895  0.2535  3.0529
 1249TIP3    H225239   3.112   5.075   0.223  3.1519  2.9430 -1.5244
 1250TIP3   OH225240   1.744   4.729  15.510 -0.0892 -0.0461 -0.2121
 1250TIP3    H125241   1.770   4.755  15.598 -0.0842 -0.8302  0.0301
 1250TIP3    H225242   1.651   4.751  15.504  0.0268  0.4496 -0.1817
 1251TIP3   OH225243   3.848   3.845  14.134  0.0991  0.2612  0.2924
 1251TIP3    H125244   3.888   3.814  14.215 -0.6995 -3.1328 -0.5414
 1251TIP3    H225245   3.797   3.921  14.160  2.7131  1.4107  2.3208
 1252TIP3   OH225246   3.565   1.592   3.128  0.0283 -0.0576  0.3308
 1252TIP3    H125247   3.571   1.609   3.034  0.3689  0.6056  0.4720
 1252TIP3    H225248   3.597   1.502   3.138  0.0803 -0.0973 -0.1764
 1253TIP3   OH225249   0.955   1.599  14.425 -0.5647  0.5106 -0.1166
 1253TIP3    H125250   1.010   1.648  14.364 -1.3607  1.1130 -0.3632
 1253TIP3    H225251   1.009   1.588  14.503 -0.5770  2.3184  0.1718
 1254TIP3   OH225252   3.696   4.500   0.491  0.1952  0.3607 -0.3020
 1254TIP3    H125253   3.754   4.431   0.460  0.3869  0.6928 -0.6851
 1254TIP3    H225254   3.750   4.553   0.549  0.2613  0.6432 -0.6214
 1255TIP3   OH225255   6.387   1.323   1.484  0.4984  0.0856  0.0047
 1255TIP3    H125256   6.313   1.267   1.507  0.4590  0.0306 -0.2622
 1255TIP3    H225257   6.459   1.262   1.469  0.5082  0.1193 -0.0822
 1256TIP3   OH225258   1.791   6.701  16.204 -0.0060  0.1080  0.3133
 1256TIP3    H125259   1.763   6.675  16.116  0.7245  2.0424 -0.5064
 1256TIP3    H225260   1.851   6.632  16.231  0.3279 -0.1196 -0.9979
 1257TIP3   OH225261   3.127   1.730  16.303 -0.0743 -0.0024 -0.3544
 1257TIP3    H125262   3.204   1.778  16.332  0.3474 -0.2537 -1.0730
 1257TIP3    H225263   3.102   1.677  16.379 -0.6240  1.4385  0.4880
 1258TIP3   OH225264   0.798   3.236  12.235  0.6018  0.1758  0.3523
 1258TIP3    H125265   0.782   3.303  12.302  0.6018  0.7591 -0.2205
 1258TIP3    H225266   0.875   3.267  12.188 -0.2683  0.5390 -0.8670
 1259TIP3   OH225267   1.532   5.607   6.048  0.0256  0.0102  0.4222
 1259TIP3    H125268   1.579   5.587   5.968 -1.4138  0.1791 -0.4845
 1259TIP3    H225269   1.462   5.541   6.052 -0.5916  0.6857  0.9537
 1260TIP3   OH225270   3.109   0.926  14.321 -0.6139  0.1081  0.1390
 1260TIP3    H125271   3.032   0.904  14.374 -0.5159 -1.5705 -0.3795
 1260TIP3    H225272   3.079   0.994  14.262 -0.6715  2.1822  2.4719
 1261TIP3   OH225273   0.939   2.985  12.352 -0.1174 -0.1184 -0.2243
 1261TIP3    H125274   1.022   3.012  12.312  0.4572 -0.4033  0.7561
 1261TIP3    H225275   0.946   2.890  12.359 -0.2132 -0.0774  0.5181
 1262TIP3   OH225276   4.252   4.527   0.688  0.8232  0.4521  0.1671
 1262TIP3    H125277   4.250   4.598   0.753  0.4078  0.1950  0.4367
 1262TIP3    H225278   4.330   4.476   0.711  0.4098  0.0808  0.7675
 1263TIP3   OH225279   5.610   1.239  14.098 -0.1490  0.5361 -0.1979
 1263TIP3    H125280   5.545   1.225  14.167 -0.7063  0.1544 -0.7998
 1263TIP3    H225281   5.560   1.275  14.024 -0.0807 -1.7890 -1.4332
 1264TIP3   OH225282   2.159   3.590   2.471  0.3611 -0.1823 -0.4011
 1264TIP3    H125283   2.092   3.577   2.539  1.2569  0.7398  0.6783
 1264TIP3    H225284   2.141   3.522   2.406 -1.8744  0.2797 -0.3163
 1265TIP3   OH225285   2.016   4.073  10.428 -0.3439  0.1338 -0.5909
 1265TIP3    H125286   1.943   4.111  10.380 -1.2505  1.6992  1.9045
 1265TIP3    H225287   2.053   4.147  10.477 -0.4980 -1.6908  2.3696
 1266TIP3   OH225288   3.400   5.409  11.232 -0.6803 -0.1792  0.4443
 1266TIP3    H125289   3.400   5.315  11.213  1.2487 -0.1847  0.3428
 1266TIP3    H225290   3.480   5.423  11.283 -0.9953  1.4008  0.5334
 1267TIP3   OH225291   6.209   1.811   5.989 -0.0016 -0.1678 -0.0617
 1267TIP3    H125292   6.201   1.779   6.079  0.7928 -0.7890 -0.2038
 1267TIP3    H225293   6.158   1.748   5.937  1.3549 -1.0957 -0.3099
 1268TIP3   OH225294   4.839   5.954  11.979  0.6277  0.0737 -0.5346
 1268TIP3    H125295   4.864   5.867  11.947 -1.4545 -0.7710  0.0583
 1268TIP3    H225296   4.853   5.950  12.073  4.0231  1.6271 -0.9030
 1269TIP3   OH225297   1.361   4.167   4.240 -0.0415 -0.4950  0.3129
 1269TIP3    H125298   1.322   4.198   4.158  0.2953  0.4281  0.4965
 1269TIP3    H225299   1.302   4.197   4.308 -0.6806 -1.8549  0.3654
 1270TIP3   OH225300   4.891   2.564  10.537 -0.4967  0.4307 -0.1551
 1270TIP3    H125301   4.926   2.561  10.626  1.0138  0.4089 -0.7497
 1270TIP3    H225302   4.966   2.550  10.480 -1.6932 -1.1993 -1.4188
 1271TIP3   OH225303   2.925   1.161   6.551  0.4889 -0.8909  0.3651
 1271TIP3    H125304   3.013   1.199   6.550  0.4984 -0.8911  0.8448
 1271TIP3    H225305   2.883   1.202   6.627  0.0189 -0.7597  0.0344
 1272TIP3   OH225306   3.437   4.714   2.008  0.1270  0.3674  0.5862
 1272TIP3    H125307   3.466   4.661   2.082  0.0611  0.7647  0.9000
 1272TIP3    H225308   3.390   4.787   2.048 -1.4296 -0.3273  0.0733
 1273TIP3   OH225309   1.343   1.892  16.084  0.0613  0.2196  0.3023
 1273TIP3    H125310   1.254   1.912  16.115 -0.4600 -1.0082 -0.3828
 1273TIP3    H225311   1.332   1.872  15.991  1.0201 -0.2362  0.2794
 1274TIP3   OH225312   4.318   3.795  13.553 -0.0299 -0.5714 -0.4942
 1274TIP3    H125313   4.370   3.716  13.540 -0.4695 -0.6288 -2.1055
 1274TIP3    H225314   4.371   3.851  13.609  0.3161 -1.9870  0.6015
 1275TIP3   OH225315   4.636   2.238   1.742  0.1354 -0.0859  0.1975
 1275TIP3    H125316   4.675   2.326   1.743 -0.1357  0.0305  0.3711
 1275TIP3    H225317   4.551   2.250   1.701  0.6868 -0.5101 -1.0857
 1276TIP3   OH225318   4.231   2.110   3.269  0.2106 -0.6507 -0.2712
 1276TIP3    H125319   4.305   2.059   3.235  0.4486 -0.2591 -0.3403
 1276TIP3    H225320   4.266   2.155   3.346  0.1869 -0.0387 -0.6237
 1277TIP3   OH225321   6.693   1.961  17.025 -0.2964 -0.4760  0.0625
 1277TIP3    H125322   6.672   1.883  17.078  0.3576  0.1368  1.2407
 1277TIP3    H225323   6.662   2.035  17.077  2.3831  0.2849  0.6693
 1278TIP3   OH225324   4.591   4.006   2.358 -0.0316  0.3165 -0.1442
 1278TIP3    H125325   4.572   4.092   2.320 -1.0638  0.0808 -0.1740
 1278TIP3    H225326   4.606   3.949   2.283  1.8127  0.7216 -0.1017
 1279TIP3   OH225327   1.007   0.517   4.326 -0.2413  0.9120  0.5470
 1279TIP3    H125328   0.982   0.605   4.299 -1.9605 -0.1962 -1.7292
 1279TIP3    H225329   0.925   0.478   4.357  0.0191 -0.6109 -0.6388
 1280TIP3   OH225330   5.498   2.671   4.821  0.0188  0.0018  0.1809
 1280TIP3    H125331   5.438   2.666   4.747 -0.5671  0.7074  0.6033
 1280TIP3    H225332   5.499   2.581   4.856 -1.8090  0.2552  0.9563
 1281TIP3   OH225333   1.452   5.234   0.666  0.4155  0.4673 -0.0791
 1281TIP3    H125334   1.387   5.303   0.652 -0.3554  0.1016  1.5810
 1281TIP3    H225335   1.526   5.259   0.610 -0.0564  2.3753  0.1115
 1282TIP3   OH225336   5.207   5.607  14.057 -0.5213 -0.2913  0.4728
 1282TIP3    H125337   5.250   5.668  13.996 -0.8486  0.0583  0.5933
 1282TIP3    H225338   5.280   5.560  14.098 -0.2562  0.1784  0.5496
 1283TIP3   OH225339   6.274   2.460  13.114 -0.0556 -0.0319  0.3285
 1283TIP3    H125340   6.276   2.431  13.022 -0.7380 -2.4231  1.0244
 1283TIP3    H225341   6.205   2.525  13.117 -0.7815 -0.7377 -0.6613
 1284TIP3   OH225342   5.378   6.762  16.762  0.2889 -0.1035  0.1241
 1284TIP3    H125343   5.455   6.806  16.726  0.4304  0.9674  1.6349
 1284TIP3    H225344   5.368   6.682  16.711  1.1483  0.7942 -1.4672
 1285TIP3   OH225345   1.990   1.589  15.435  0.0744  0.1244 -0.4508
 1285TIP3    H125346   1.980   1.494  15.438 -0.2198  0.1916  0.8224
 1285TIP3    H225347   1.900   1.623  15.438  0.1732  0.4358 -0.9953
 1286TIP3   OH225348   3.277   1.802   4.104 -0.1729 -0.3706 -0.2251
 1286TIP3    H125349   3.347   1.852   4.144  0.4289 -1.7257  0.4484
 1286TIP3    H225350   3.234   1.757   4.177 -0.8308 -0.6722 -0.7838
 1287TIP3   OH225351   2.543   2.903   0.105  0.4912 -0.3792  0.1701
 1287TIP3    H125352   2.595   2.891   0.185 -0.1140 -2.2267  0.2880
 1287TIP3    H225353   2.608   2.909   0.035  0.9412 -0.9465  0.5341
 1288TIP3   OH225354   1.101   2.177  15.559 -0.8113 -0.4148 -0.0631
 1288TIP3    H125355   1.036   2.111  15.533  0.7496 -0.6432 -3.7376
 1288TIP3    H225356   1.052   2.258  15.564 -1.9035 -1.0664 -0.0152
 1289TIP3   OH225357   2.420   4.122  11.739 -0.5632 -0.1453  0.9173
 1289TIP3    H125358   2.326   4.126  11.756 -0.3306 -0.9800  2.4747
 1289TIP3    H225359   2.439   4.028  11.733  0.0204  0.0405 -0.2867
 1290TIP3   OH225360   2.944   5.020   6.678 -0.0370 -0.0347  0.5643
 1290TIP3    H125361   2.923   5.074   6.602  0.7735 -0.7453 -0.1759
 1290TIP3    H225362   3.040   5.022   6.683 -0.0442 -0.6874  1.0535
 1291TIP3   OH225363   6.241   0.820  12.519 -0.3027  0.3462  0.0153
 1291TIP3    H125364   6.283   0.751  12.468 -0.1776  0.9154 -0.6591
 1291TIP3    H225365   6.189   0.774  12.584 -1.5046 -0.4001 -1.4557
 1292TIP3   OH225366   0.794   0.233   5.305 -0.7249 -0.0626 -0.3774
 1292TIP3    H125367   0.831   0.319   5.282  2.7248 -0.7286  2.3179
 1292TIP3    H225368   0.853   0.170   5.263  0.0910 -1.1233  2.2384
 1293TIP3   OH225369   1.015   5.111  10.408  0.0287  0.0727  0.3811
 1293TIP3    H125370   1.081   5.116  10.477  0.4964 -0.8714  0.0119
 1293TIP3    H225371   1.014   5.199  10.370  1.5642 -0.0710 -0.0368
 1294TIP3   OH225372   1.991   4.282   2.771 -0.2959 -0.3651 -0.0145
 1294TIP3    H125373   1.981   4.322   2.685 -0.1671 -0.0437  0.1160
 1294TIP3    H225374   1.979   4.188   2.756 -1.6607 -0.1889 -0.1621
 1295TIP3   OH225375   2.554   6.795  14.129 -0.0893 -0.0698 -0.2447
 1295TIP3    H125376   2.471   6.784  14.175 -1.0982 -0.2550 -2.0913
 1295TIP3    H225377   2.565   6.890  14.121 -1.1535 -0.0765 -1.8387
 1296TIP3   OH225378   2.584   0.005   3.834 -0.0326 -0.1495 -0.5378
 1296TIP3    H125379   2.647   0.076   3.843  0.0445 -0.0219 -1.9589
 1296TIP3    H225380   2.512   0.028   3.893  1.2157 -0.2726  1.0584
 1297TIP3   OH225381   1.845   6.372  13.608 -0.4567  0.7035 -0.2934
 1297TIP3    H125382   1.823   6.404  13.521 -0.8571  1.9131  0.2386
 1297TIP3    H225383   1.801   6.432  13.668 -1.5361 -1.0502  0.7448
 1298TIP3   OH225384   4.822   2.851   1.811  0.0938 -0.3692  0.3122
 1298TIP3    H125385   4.843   2.944   1.818  1.8273 -0.6075 -1.1942
 1298TIP3    H225386   4.878   2.820   1.740 -2.4114 -1.9776 -1.0393
 1299TIP3   OH225387   3.777   5.218   0.604  0.1799  0.2115 -0.0995
 1299TIP3    H125388   3.697   5.201   0.654  0.9531  2.0234  1.8273
 1299TIP3    H225389   3.765   5.306   0.568  0.5364 -0.2395 -1.3447
 1300TIP3   OH225390   4.197   6.461  10.403 -0.2312 -0.1124  0.1978
 1300TIP3    H125391   4.272   6.520  10.397  1.5131 -2.0455  2.1360
 1300TIP3    H225392   4.234   6.374  10.388 -2.6630 -0.8163 -2.0388
 1301TIP3   OH225393   2.063   6.244   5.620  0.1473  0.5637 -0.4414
 1301TIP3    H125394   2.010   6.298   5.562 -1.3515  0.8678  1.1719
 1301TIP3    H225395   2.103   6.179   5.562 -1.7030  0.5567 -1.7541
 1302TIP3   OH225396   5.471   5.914   4.976 -0.2040 -0.1821 -0.1109
 1302TIP3    H125397   5.424   5.997   4.987  1.4759  0.5808  1.6500
 1302TIP3    H225398   5.461   5.869   5.060  2.3933  0.1240  0.4015
 1303TIP3   OH225399   6.481   2.704  15.637  0.2211  0.0208 -0.0010
 1303TIP3    H125400   6.407   2.727  15.693 -0.2395  0.2987 -0.7147
 1303TIP3    H225401   6.558   2.734  15.685 -0.1421 -0.0705  0.6450
 1304TIP3   OH225402   2.035   4.585  14.844 -0.0287  0.0609  0.0788
 1304TIP3    H125403   2.112   4.640  14.861 -1.6441  3.4437 -2.9256
 1304TIP3    H225404   1.969   4.618  14.904 -0.3163 -0.1674 -0.1132
 1305TIP3   OH225405   2.429   0.946   6.016  0.7738  0.2496 -0.5828
 1305TIP3    H125406   2.417   0.856   5.984 -0.0941  0.0646  0.2475
 1305TIP3    H225407   2.388   0.946   6.102  1.6431  1.1907 -0.1681
 1306TIP3   OH225408   4.423   6.795  14.034  0.2758 -0.1560  0.2566
 1306TIP3    H125409   4.477   6.750  14.100 -1.4395 -0.0175  1.8158
 1306TIP3    H225410   4.375   6.724  13.991  0.5753 -0.1461 -0.0986
 1307TIP3   OH225411   2.201   5.663   6.046 -0.3959 -0.1667 -0.5439
 1307TIP3    H125412   2.174   5.639   6.135 -0.8826 -0.1359 -0.6852
 1307TIP3    H225413   2.134   5.723   6.016 -1.8100 -2.4237 -2.0282
 1308TIP3   OH225414   6.455   5.315   3.400 -0.6391 -0.0598 -0.3682
 1308TIP3    H125415   6.392   5.358   3.459 -0.0513  0.6082 -0.2148
 1308TIP3    H225416   6.499   5.250   3.455  0.2412  0.8870  0.0693
 1309TIP3   OH225417   1.060   1.156  13.761  0.2997  0.8444 -0.0081
 1309TIP3    H125418   1.000   1.090  13.796 -1.3361  2.3698  0.1697
 1309TIP3    H225419   1.109   1.111  13.693 -0.8531 -0.5263  0.0400
 1310TIP3   OH225420   0.368   0.008  11.684  0.2497 -0.4206  0.3266
 1310TIP3    H125421   0.380   0.022  11.590 -0.6329  2.0198  0.5494
 1310TIP3    H225422   0.455   0.025  11.721  0.2213  0.2455  0.1070
 1311TIP3   OH225423   6.207   6.061   1.604  0.6171  0.3019 -0.1357
 1311TIP3    H125424   6.171   6.143   1.636  0.0832 -0.7268  1.9267
 1311TIP3    H225425   6.287   6.087   1.557  0.6445  1.9440  0.7959
 1312TIP3   OH225426   4.434   3.809   3.693 -0.1963 -0.2727  0.3036
 1312TIP3    H125427   4.455   3.779   3.781 -0.3598 -1.2700  0.0163
 1312TIP3    H225428   4.475   3.745   3.635  0.5629  0.7953 -0.3688
 1313TIP3   OH225429   5.842   4.245   3.841  0.5656 -0.1418 -0.7182
 1313TIP3    H125430   5.842   4.225   3.934  2.2206 -0.8049 -0.8509
 1313TIP3    H225431   5.884   4.330   3.834  0.1622  0.0503 -0.8386
 1314TIP3   OH225432   2.002   0.585   3.088  0.0827 -0.4000  0.2193
 1314TIP3    H125433   1.999   0.489   3.094  1.7159 -0.5458 -0.9962
 1314TIP3    H225434   2.041   0.602   3.003  0.5218  1.3629  0.7591
 1315TIP3   OH225435   2.435   2.285  16.484 -0.2670  0.2954  0.6601
 1315TIP3    H125436   2.380   2.249  16.554 -0.5586 -0.8721 -0.1683
 1315TIP3    H225437   2.524   2.259  16.508 -0.3658 -0.0998  0.5985
 1316TIP3   OH225438   4.775   6.551  15.691  0.2117  0.0107  0.3008
 1316TIP3    H125439   4.758   6.598  15.609  1.4436 -0.0646 -0.0127
 1316TIP3    H225440   4.712   6.480  15.691 -1.4473  1.4366  0.6103
 1317TIP3   OH225441   4.682   6.192  12.006  0.1500 -0.2268 -0.1315
 1317TIP3    H125442   4.687   6.196  12.101 -1.9163  0.6195 -0.0308
 1317TIP3    H225443   4.703   6.101  11.984 -2.3948 -1.2273  1.3651
 1318TIP3   OH225444   1.056   3.279   1.743  0.2477 -0.2162 -0.1474
 1318TIP3    H125445   1.092   3.351   1.796 -2.6573  1.2594 -0.0535
 1318TIP3    H225446   1.112   3.276   1.666  0.5847  1.9823 -0.0261
 1319TIP3   OH225447   0.850   4.777  14.371  0.3854 -0.0532 -0.3101
 1319TIP3    H125448   0.896   4.834  14.433  1.1411  0.3968 -1.2730
 1319TIP3    H225449   0.892   4.795  14.287  0.7219 -2.1193 -0.6114
 1320TIP3   OH225450   4.201   5.890  12.980  0.0946  0.4252  0.5828
 1320TIP3    H125451   4.287   5.892  13.023 -0.8716  1.8192  2.5637
 1320TIP3    H225452   4.159   5.811  13.015  0.8202 -0.6714 -0.9620
 1321TIP3   OH225453   0.464   1.737   4.853 -0.0218  0.0951 -1.3036
 1321TIP3    H125454   0.518   1.738   4.932 -0.2449  1.2718 -1.1635
 1321TIP3    H225455   0.424   1.650   4.853  1.0975 -0.4385 -0.8892
 1322TIP3   OH225456   5.626   2.294  11.950  0.4106  0.6796 -0.1621
 1322TIP3    H125457   5.682   2.291  11.873 -0.3146 -0.1701 -0.6585
 1322TIP3    H225458   5.542   2.327  11.918 -0.1179 -0.3609  0.1153
 1323TIP3   OH225459   1.949   6.487   1.327 -0.1781  0.1707 -0.1752
 1323TIP3    H125460   1.938   6.497   1.421  0.3745 -0.0843 -0.0780
 1323TIP3    H225461   1.920   6.571   1.290  0.1442  0.4808  0.2669
 1324TIP3   OH225462   5.415   1.426   1.602  0.1052  0.0388 -0.4219
 1324TIP3    H125463   5.434   1.449   1.693 -0.2553  1.7146 -0.7504
 1324TIP3    H225464   5.321   1.405   1.602  0.5582 -2.0986 -0.0069
 1325TIP3   OH225465   3.336   3.444  12.353  0.5313  0.8365 -0.7529
 1325TIP3    H125466   3.347   3.534  12.385  0.0407  0.0430  1.7407
 1325TIP3    H225467   3.247   3.442  12.318 -0.2790  0.7578  1.2356
 1326TIP3   OH225468   3.246   3.000  11.958  0.3725  0.4255 -0.2996
 1326TIP3    H125469   3.190   3.062  12.005 -0.2722  0.0958 -0.6326
 1326TIP3    H225470   3.325   3.051  11.936  0.8181  0.5011  1.4018
 1327TIP3   OH225471   3.468   0.582   4.530 -0.1970  0.4060 -0.1302
 1327TIP3    H125472   3.555   0.620   4.520  0.0778 -0.5093 -1.2917
 1327TIP3    H225473   3.413   0.655   4.559  1.3186  0.5989  2.4135
 1328TIP3   OH225474   0.971   1.590   4.421 -0.1035  0.1437  0.2654
 1328TIP3    H125475   0.946   1.533   4.493 -1.9078  0.0295 -0.4255
 1328TIP3    H225476   1.056   1.625   4.447 -1.7461  1.9600  3.5448
 1329TIP3   OH225477   6.611   1.706  12.489  0.1881  0.0186 -0.6375
 1329TIP3    H125478   6.678   1.772  12.508 -0.0791  0.5406 -1.4966
 1329TIP3    H225479   6.528   1.752  12.500 -0.0931 -0.9894  1.8169
 1330TIP3   OH225480   3.612   3.244  12.104 -0.0812 -0.0111  0.4719
 1330TIP3    H125481   3.681   3.305  12.079 -0.6306  1.0265  1.4016
 1330TIP3    H225482   3.602   3.258  12.198 -0.6259 -1.1251  0.5825
 1331TIP3   OH225483   6.239   2.384   4.407  0.1576 -0.6109 -0.3860
 1331TIP3    H125484   6.203   2.411   4.491  0.6343 -1.0341 -0.0449
 1331TIP3    H225485   6.173   2.325   4.371  0.9899 -2.2712  0.7402
 1332TIP3   OH225486   0.833   5.902  14.515 -0.2389  0.3425 -0.1197
 1332TIP3    H125487   0.853   5.887  14.607 -1.3016 -1.7689 -0.2033
 1332TIP3    H225488   0.780   5.982  14.514  0.7778  1.0386  0.9575
 1333TIP3   OH225489   3.184   0.855   2.957  0.6390  0.1322 -0.0584
 1333TIP3    H125490   3.090   0.871   2.949  0.4296 -0.6244  0.8683
 1333TIP3    H225491   3.191   0.784   3.021  1.7138 -1.4179 -1.8690
 1334TIP3   OH225492   6.030   4.262   5.524  0.4639 -0.6838  0.0997
 1334TIP3    H125493   6.010   4.291   5.613  0.1212 -1.2581  0.2127
 1334TIP3    H225494   6.119   4.293   5.508  0.6495 -0.8664  0.7587
 1335TIP3   OH225495   3.092   4.158   3.754 -0.4828 -0.4956  0.8777
 1335TIP3    H125496   3.002   4.174   3.779 -0.6771 -0.4722  0.1849
 1335TIP3    H225497   3.101   4.063   3.756 -0.6760 -0.5271  0.4550
 1336TIP3   OH225498   2.145   5.717   0.226 -0.1360  0.5305 -0.2125
 1336TIP3    H125499   2.126   5.707   0.133 -2.1579 -0.6836  0.3147
 1336TIP3    H225500   2.138   5.629   0.262  0.4697  1.0142  1.1228
 1337TIP3   OH225501   1.342   3.066   0.564  0.3671 -0.6316  0.5053
 1337TIP3    H125502   1.370   2.980   0.532 -3.2206 -1.8666  0.4848
 1337TIP3    H225503   1.306   3.109   0.487 -1.3216 -0.6342  1.2756
 1338TIP3   OH225504   3.787   1.367   3.600 -0.9290  0.4616 -0.2167
 1338TIP3    H125505   3.840   1.440   3.568  0.3424 -0.4611 -0.3143
 1338TIP3    H225506   3.800   1.368   3.695 -2.3946  1.4710 -0.0235
 1339TIP3   OH225507   4.565   3.784  12.414 -0.6585  0.0661 -0.5773
 1339TIP3    H125508   4.521   3.870  12.412 -1.9605 -0.5834 -0.8212
 1339TIP3    H225509   4.628   3.791  12.486  0.3695  1.7509 -1.6019
 1340TIP3   OH225510   5.055   0.262   2.315  0.3142  0.0125 -0.1527
 1340TIP3    H125511   5.139   0.228   2.284  0.7516 -1.2673  2.3031
 1340TIP3    H225512   5.078   0.320   2.388 -0.8349  1.1110 -0.6350
 1341TIP3   OH225513   0.134   2.542   3.530 -0.1731  0.1016 -0.3581
 1341TIP3    H125514   0.111   2.587   3.448 -1.3173  0.7456  0.3074
 1341TIP3    H225515   0.159   2.454   3.502 -1.2732  0.0782 -1.3493
 1342TIP3   OH225516   1.306   3.432  11.263 -0.6184  0.2241  0.5315
 1342TIP3    H125517   1.286   3.522  11.290  1.2739  0.5168  1.0121
 1342TIP3    H225518   1.397   3.418  11.290 -0.9324 -1.8913  0.6137
 1343TIP3   OH225519   2.697   0.821  14.828  0.3651  0.3176  0.3257
 1343TIP3    H125520   2.702   0.867  14.744  1.8966 -0.1499  0.1505
 1343TIP3    H225521   2.712   0.729  14.805  1.3033  0.2614  1.1870
 1344TIP3   OH225522   4.369   5.111  17.056  0.2952  0.2205 -0.0872
 1344TIP3    H125523   4.441   5.066  17.101  0.2033  1.8506  1.7575
 1344TIP3    H225524   4.383   5.091  16.964  1.4558 -1.8431  0.4882
 1345TIP3   OH225525   6.403   5.743  13.128  0.1258 -0.4069  0.3846
 1345TIP3    H125526   6.351   5.787  13.061  0.9150 -0.0817 -0.0081
 1345TIP3    H225527   6.369   5.779  13.211  0.2112  0.3318  0.1023
 1346TIP3   OH225528   4.457   6.475   0.507 -0.8432  0.1699 -0.3953
 1346TIP3    H125529   4.377   6.462   0.557  0.5669 -1.9658  1.4064
 1346TIP3    H225530   4.508   6.395   0.521  1.4080  1.2748 -1.8654
 1347TIP3   OH225531   4.440   1.574  12.301  0.1039  0.7515  0.2350
 1347TIP3    H125532   4.453   1.629  12.378 -2.2529  3.1552 -0.9916
 1347TIP3    H225533   4.515   1.592  12.245 -0.3156  2.2039  0.1385
 1348TIP3   OH225534   2.379   5.628  12.481 -0.0681 -0.8152 -0.2547
 1348TIP3    H125535   2.465   5.668  12.468 -0.0622 -0.5758  0.5162
 1348TIP3    H225536   2.393   5.535  12.462  0.0367 -0.5610 -1.5141
 1349TIP3   OH225537   6.545   5.127   3.012 -0.3236 -0.6047  0.3355
 1349TIP3    H125538   6.542   5.121   2.916  1.3301  1.4220  0.1388
 1349TIP3    H225539   6.635   5.149   3.032 -0.8896 -0.0237  2.3217
 1350TIP3   OH225540   4.686   6.499   6.074  0.3981 -0.4528 -0.0641
 1350TIP3    H125541   4.666   6.407   6.093  0.6368 -0.6055 -0.5230
 1350TIP3    H225542   4.655   6.512   5.984  1.1317 -0.3285 -0.3058
 1351TIP3   OH225543   0.771   4.086   0.871  0.0629 -0.0186  0.2497
 1351TIP3    H125544   0.846   4.143   0.853  0.1813 -0.1810  0.2321
 1351TIP3    H225545   0.808   3.999   0.881  0.0689  0.1323  1.7822
 1352TIP3   OH225546   5.508   5.524  11.740 -0.0742  0.0712  0.0271
 1352TIP3    H125547   5.573   5.533  11.809  0.0388  1.6809 -0.2821
 1352TIP3    H225548   5.453   5.602  11.747 -1.9819 -1.2719  0.2859
 1353TIP3   OH225549   4.308   6.596  16.638  0.0018 -0.1318  0.1601
 1353TIP3    H125550   4.301   6.547  16.557  1.7534  0.4060 -0.3301
 1353TIP3    H225551   4.359   6.540  16.696 -1.7060 -0.7534  1.1010
 1354TIP3   OH225552   4.554   0.577   1.457 -0.1719  0.3960  0.5287
 1354TIP3    H125553   4.473   0.590   1.506 -0.6994  1.3141 -0.5796
 1354TIP3    H225554   4.553   0.644   1.389  0.0254 -1.5477 -1.4505
 1355TIP3   OH225555   0.866   1.474  11.795 -0.2707  0.3621 -0.4479
 1355TIP3    H125556   0.774   1.451  11.782 -0.8450  2.4148 -0.1828
 1355TIP3    H225557   0.914   1.393  11.779 -2.2660 -1.2089  1.2816
 1356TIP3   OH225558   2.411   4.895   1.200 -0.7146 -0.7206 -0.0168
 1356TIP3    H125559   2.339   4.951   1.230 -0.9655 -1.6007  1.0182
 1356TIP3    H225560   2.489   4.935   1.237 -0.6060  0.4883 -1.4979
 1357TIP3   OH225561   2.778   1.165  16.345 -0.0413 -0.7108 -0.7102
 1357TIP3    H125562   2.807   1.252  16.318 -0.8015 -0.4147 -0.5946
 1357TIP3    H225563   2.840   1.105  16.304 -1.0215 -0.2564 -2.9727
 1358TIP3   OH225564   4.112   2.314   0.583  0.1464  0.4156  0.5394
 1358TIP3    H125565   4.051   2.374   0.540 -0.1517  0.0562  0.4642
 1358TIP3    H225566   4.176   2.293   0.515  2.2043  3.2847  1.4796
 1359TIP3   OH225567   5.235   4.909  11.282  0.1266 -0.0716  0.4713
 1359TIP3    H125568   5.247   4.905  11.187 -2.7584 -1.7056  0.1190
 1359TIP3    H225569   5.140   4.902  11.294  0.5039 -0.3572  3.4981
 1360TIP3   OH225570   6.083   5.384  17.080  0.1744 -0.2816 -0.0845
 1360TIP3    H125571   5.990   5.384  17.100 -0.3383  1.0872 -2.3051
 1360TIP3    H225572   6.126   5.380  17.165 -1.9037  2.1647  1.1346
 1361TIP3   OH225573   2.087   1.712   3.942 -0.0395 -0.1812  0.7312
 1361TIP3    H125574   2.008   1.678   3.984 -0.0170 -0.2704  0.6995
 1361TIP3    H225575   2.148   1.728   4.014  0.9033 -2.6579  0.5018
 1362TIP3   OH225576   3.345   0.291  16.593  0.2918  1.0789  0.1201
 1362TIP3    H125577   3.279   0.328  16.651 -0.6773  1.5470 -1.2851
 1362TIP3    H225578   3.406   0.246  16.652  0.4083  3.2180  1.6773
 1363TIP3   OH225579   2.361   5.876   4.555 -0.3764 -0.0743  0.2573
 1363TIP3    H125580   2.366   5.955   4.501 -0.3457 -0.2077  0.0676
 1363TIP3    H225581   2.367   5.804   4.493 -0.1770 -0.2269  0.4552
 1364TIP3   OH225582   0.359   5.400   1.696 -0.5758  0.0735 -0.5624
 1364TIP3    H125583   0.265   5.387   1.701 -0.9161  0.4592 -4.2932
 1364TIP3    H225584   0.372   5.451   1.616  2.6680  1.6376  0.8692
 1365TIP3   OH225585   0.647   3.766  15.604  0.0505  0.5795 -0.1652
 1365TIP3    H125586   0.640   3.808  15.690 -1.6433 -0.0354  0.0126
 1365TIP3    H225587   0.603   3.681  15.616  1.2082 -0.1766 -1.2024
 1366TIP3   OH225588   1.950   0.442  13.869 -0.3235 -0.0552 -0.2649
 1366TIP3    H125589   1.916   0.447  13.780 -1.0091  0.9797  0.0457
 1366TIP3    H225590   1.997   0.525  13.881 -0.4494 -0.0802  0.4313
 1367TIP3   OH225591   1.166   5.512  11.715  0.1548  0.1808 -0.0003
 1367TIP3    H125592   1.151   5.424  11.683  0.2832  0.3381 -0.4902
 1367TIP3    H225593   1.195   5.562  11.639 -0.9737  0.9148  0.0281
 1368TIP3   OH225594   0.487   2.098  11.954 -0.0394 -0.0021 -0.5557
 1368TIP3    H125595   0.445   2.184  11.966  1.7777  1.2604 -2.7404
 1368TIP3    H225596   0.576   2.111  11.986  0.0948 -1.2145 -0.4429
 1369TIP3   OH225597   3.557   0.975  14.918 -0.1933  0.0653  0.1668
 1369TIP3    H125598   3.556   0.881  14.934  0.7978 -0.0180 -0.2660
 1369TIP3    H225599   3.617   1.010  14.984  0.7939  0.1861 -0.7857
 1370TIP3   OH225600   2.281   5.217   3.870  0.2724 -0.2575  0.3188
 1370TIP3    H125601   2.211   5.199   3.934 -0.2667  1.4715  0.2550
 1370TIP3    H225602   2.336   5.282   3.914  1.3828 -1.0209  0.0421
 1371TIP3   OH225603   4.474   4.671  15.245 -0.0839  0.0911  0.0653
 1371TIP3    H125604   4.562   4.670  15.282 -0.6835 -2.1145  1.5113
 1371TIP3    H225605   4.439   4.757  15.270  0.7646 -0.0012  1.6092
 1372TIP3   OH225606   5.249   2.865  14.351 -0.2021 -0.2531  0.3192
 1372TIP3    H125607   5.308   2.889  14.279  0.6913 -0.8498  0.8418
 1372TIP3    H225608   5.220   2.777  14.330 -1.8533  0.4791 -0.5383
 1373TIP3   OH225609   1.135   5.544   3.552 -0.7022 -0.0342 -0.4716
 1373TIP3    H125610   1.123   5.618   3.492  1.5102  0.8871  0.1453
 1373TIP3    H225611   1.148   5.585   3.638 -3.1776 -1.3064  0.5558
 1374TIP3   OH225612   0.201   2.346   2.542  0.0959  0.2673  0.0892
 1374TIP3    H125613   0.229   2.268   2.590  1.4007  1.2142  0.9245
 1374TIP3    H225614   0.277   2.369   2.488 -1.6618 -1.3192 -3.2258
 1375TIP3   OH225615   6.071   4.431  13.115 -0.6853  0.3404  0.0555
 1375TIP3    H125616   6.118   4.494  13.169 -0.5863 -1.9839  2.7881
 1375TIP3    H225617   6.126   4.421  13.037  0.6338  1.5862  0.8079
 1376TIP3   OH225618   5.740   1.450  14.249 -0.0378  0.1173 -0.2400
 1376TIP3    H125619   5.834   1.441  14.267 -0.3600  0.1530  1.5456
 1376TIP3    H225620   5.719   1.374  14.195  1.0704  0.2477 -0.8733
 1377TIP3   OH225621   5.744   3.397  12.072 -0.0751  0.1170  0.6084
 1377TIP3    H125622   5.741   3.421  11.979  0.6831 -1.2546  0.2219
 1377TIP3    H225623   5.836   3.402  12.095 -0.2997  0.7673  1.3820
 1378TIP3   OH225624   6.566   6.195  12.080 -0.0687 -0.1426  0.1489
 1378TIP3    H125625   6.635   6.170  12.141 -0.7149  0.6407  1.2118
 1378TIP3    H225626   6.613   6.223  12.001  0.7690 -1.1221  0.2892
 1379TIP3   OH225627   2.264   6.565   5.983  0.4571 -0.0574  0.0619
 1379TIP3    H125628   2.213   6.491   5.951  0.0316  0.4618 -0.4849
 1379TIP3    H225629   2.263   6.556   6.079 -2.5696  1.1548  0.2179
 1380TIP3   OH225630   1.175   0.649   6.113 -0.4173  0.0323  0.2350
 1380TIP3    H125631   1.221   0.720   6.068  2.4219 -1.2573  1.0112
 1380TIP3    H225632   1.141   0.689   6.192  1.2271  0.5519  0.6966
 1381TIP3   OH225633   6.448   6.391  13.310 -0.3961 -0.6521 -0.2615
 1381TIP3    H125634   6.529   6.374  13.359 -0.3190 -0.8818 -0.4655
 1381TIP3    H225635   6.413   6.304  13.291 -2.6079 -0.5525  2.9684
 1382TIP3   OH225636   0.916   1.773  15.006  0.8617  0.0393 -0.1643
 1382TIP3    H125637   0.867   1.712  14.951  1.8721 -2.6488  1.8007
 1382TIP3    H225638   1.007   1.756  14.985  1.1394  1.4843 -0.1766
 1383TIP3   OH225639   4.607   2.168   1.327  0.1747  0.3207  0.2833
 1383TIP3    H125640   4.518   2.176   1.293 -0.4161 -1.6705  1.2769
 1383TIP3    H225641   4.619   2.247   1.381 -0.8850  0.7422 -0.0862
 1384TIP3   OH225642   2.748   2.311  16.611 -0.0896  0.5590 -0.2766
 1384TIP3    H125643   2.815   2.305  16.680  0.9557 -0.6502 -1.3749
 1384TIP3    H225644   2.730   2.220  16.588 -2.0968  0.8816 -0.0371
 1385TIP3   OH225645   6.214   1.996  11.513  0.5039 -0.5175 -0.3020
 1385TIP3    H125646   6.201   1.912  11.556 -0.2533 -1.2244 -1.8777
 1385TIP3    H225647   6.303   1.994  11.480  1.4248  0.4089  1.9948
 1386TIP3   OH225648   6.529   1.044  14.417 -0.5862 -0.2743 -0.5772
 1386TIP3    H125649   6.465   0.978  14.391  0.5469 -1.9569  0.7852
 1386TIP3    H225650   6.613   1.010  14.385  0.1842 -0.1764  1.2299
 1387TIP3   OH225651   1.828   3.621  15.964  0.1548  0.2252  0.2877
 1387TIP3    H125652   1.816   3.609  16.058 -1.9083 -0.8678 -0.1002
 1387TIP3    H225653   1.900   3.563  15.941  0.4108  0.2129  1.1149
 1388TIP3   OH225654   3.133   0.775   6.127  0.0532 -0.4599  0.6313
 1388TIP3    H125655   3.214   0.731   6.153 -1.1871 -3.6579 -0.6301
 1388TIP3    H225656   3.136   0.774   6.031 -1.6146 -0.8917  0.5736
 1389TIP3   OH225657   6.095   5.010   6.122  0.1278 -0.3382  0.3388
 1389TIP3    H125658   6.012   5.040   6.160  0.8151  0.1206  1.4791
 1389TIP3    H225659   6.155   5.083   6.136  1.0530 -1.1507  0.5750
 1390TIP3   OH225660   6.089   5.177  17.265  0.1995 -0.9664  0.5457
 1390TIP3    H125661   6.158   5.203  17.204  0.1720  1.0357  1.3270
 1390TIP3    H225662   6.135   5.136  17.338  0.3904 -1.4855  0.1327
 1391TIP3   OH225663   3.126   6.785   1.652  0.2455  0.2683 -0.0423
 1391TIP3    H125664   3.042   6.798   1.608  0.3412  0.8214 -0.0627
 1391TIP3    H225665   3.105   6.787   1.746  0.0701 -0.7136 -0.0604
 1392TIP3   OH225666   0.042   6.109   0.855 -0.7916  0.3720  0.2028
 1392TIP3    H125667   0.088   6.162   0.921  0.6799  1.6309 -1.7949
 1392TIP3    H225668  -0.003   6.173   0.800 -1.0125 -0.5978 -0.7607
 1393TIP3   OH225669   1.332   3.315  15.697 -0.0922 -0.3336  0.1268
 1393TIP3    H125670   1.289   3.356  15.772  0.6875 -0.8224  0.8509
 1393TIP3    H225671   1.266   3.317  15.627 -0.6600  0.5555  0.6763
 1394TIP3   OH225672   4.277   2.121  11.650  0.4286  0.3373  0.2040
 1394TIP3    H125673   4.255   2.177  11.724 -1.8877  1.4721 -1.2753
 1394TIP3    H225674   4.208   2.055  11.648  1.7413 -1.0813  0.3979
 1395TIP3   OH225675   4.415   3.353  13.710  0.5833 -0.1903  0.7452
 1395TIP3    H125676   4.337   3.306  13.680 -1.3823  1.9669  2.2991
 1395TIP3    H225677   4.437   3.411  13.637 -1.2592  1.5226  1.5001
 1396TIP3   OH225678   3.998   1.115   6.495 -0.6480  0.1605  0.2746
 1396TIP3    H125679   3.990   1.187   6.433  1.2972  1.1262  1.1038
 1396TIP3    H225680   3.933   1.135   6.563  1.8801  2.7403  2.0126
 1397TIP3   OH225681   4.860   4.196   3.599 -0.0548 -0.0952  0.2127
 1397TIP3    H125682   4.838   4.119   3.651  0.2137  0.1933  0.7608
 1397TIP3    H225683   4.942   4.173   3.555  0.0732 -0.0874  0.4481
 1398TIP3   OH225684   5.988   0.448   0.356 -0.1904 -0.0507  0.2018
 1398TIP3    H125685   5.915   0.509   0.368  0.1183 -0.0902  2.5613
 1398TIP3    H225686   6.060   0.487   0.406  1.5875  0.2458 -2.4962
 1399TIP3   OH225687   2.693   3.721  13.658 -0.0553 -0.3053  0.1761
 1399TIP3    H125688   2.697   3.677  13.573 -2.2819  0.6659 -0.4831
 1399TIP3    H225689   2.748   3.799  13.648  0.8837 -0.9766  0.1140
 1400TIP3   OH225690   2.797   5.670   1.478  0.4345  0.2860 -0.7417
 1400TIP3    H125691   2.827   5.655   1.567 -2.3046  1.4078  0.4307
 1400TIP3    H225692   2.822   5.760   1.458  0.3437  0.2994 -0.7985
 1401TIP3   OH225693   4.997   2.473   3.082 -0.8896 -1.2842  0.0220
 1401TIP3    H125694   5.009   2.493   2.989 -0.6129  1.1714  0.5533
 1401TIP3    H225695   5.041   2.544   3.128  0.9577 -3.6979  2.0760
 1402TIP3   OH225696   2.697   6.635   5.747  0.5795 -0.0097  0.3577
 1402TIP3    H125697   2.674   6.563   5.689  2.3218  1.4080 -2.2083
 1402TIP3    H225698   2.774   6.605   5.794  0.9966 -0.0330 -0.3312
 1403TIP3   OH225699   4.514   2.091   4.480  0.0634 -0.1141  0.0681
 1403TIP3    H125700   4.421   2.088   4.461  0.4724  0.3564 -2.0503
 1403TIP3    H225701   4.521   2.050   4.567 -2.2201  0.9194  0.7909
 1404TIP3   OH225702   1.844   2.962   0.617  0.1076 -0.2838 -0.0709
 1404TIP3    H125703   1.775   3.027   0.601 -0.2417 -0.9743 -1.4643
 1404TIP3    H225704   1.834   2.938   0.709 -0.3815  0.9241  0.1977
 1405TIP3   OH225705   6.001   6.309  12.089  0.4706 -0.5228  0.5655
 1405TIP3    H125706   5.986   6.362  12.167 -0.7861 -1.4118  0.9350
 1405TIP3    H225707   6.085   6.265  12.106 -0.6132 -2.0243  2.1700
 1406TIP3   OH225708   0.527   4.469   4.079 -0.7335  0.0549 -0.1441
 1406TIP3    H125709   0.542   4.562   4.066 -0.3911  0.5690  3.2636
 1406TIP3    H225710   0.598   4.426   4.030 -0.3151  1.6176 -0.9325
 1407TIP3   OH225711   0.053   1.427   3.980  0.4071 -0.1039 -0.0005
 1407TIP3    H125712   0.124   1.491   3.981  0.6906 -0.4277  1.6958
 1407TIP3    H225713  -0.005   1.453   4.051  0.2704 -1.4281  0.4004
 1408TIP3   OH225714   1.564   3.713   0.759  0.4602 -0.1572 -0.1153
 1408TIP3    H125715   1.530   3.772   0.826 -0.2496 -1.1105  0.3683
 1408TIP3    H225716   1.532   3.751   0.677  0.5816  0.5160  0.1426
 1409TIP3   OH225717   2.701   1.787  14.718 -0.3850  0.5829 -0.0462
 1409TIP3    H125718   2.661   1.774  14.632  0.2612 -2.6163  0.0971
 1409TIP3    H225719   2.645   1.737  14.778 -0.1935  1.8972  1.2590
 1410TIP3   OH225720   0.844   3.960  14.968  0.2855  0.6758 -0.3227
 1410TIP3    H125721   0.795   4.005  15.037  0.2563  1.4250 -0.8291
 1410TIP3    H225722   0.779   3.908  14.922  0.3767 -0.1739  0.4801
 1411TIP3   OH225723   0.935   5.161  15.265  0.4624  0.1386  0.0843
 1411TIP3    H125724   0.911   5.152  15.358 -0.9160 -0.2731 -0.2920
 1411TIP3    H225725   0.856   5.135  15.218  1.0961  0.5246 -1.2118
 1412TIP3   OH225726   2.979   1.972  13.139 -0.8163  0.3917  0.4827
 1412TIP3    H125727   3.037   1.999  13.211  1.0430  0.4196 -1.0043
 1412TIP3    H225728   2.933   2.052  13.114  0.0463  0.8259  0.2795
 1413TIP3   OH225729   1.191   1.737   5.329  0.4459 -0.2661  0.1101
 1413TIP3    H125730   1.145   1.809   5.372  1.0746  0.1610  0.0804
 1413TIP3    H225731   1.266   1.779   5.286  0.6564 -0.8975 -0.1444
 1414TIP3   OH225732   3.856   0.138   2.399  0.5171  0.1769  0.4482
 1414TIP3    H125733   3.801   0.129   2.321 -0.6413 -2.1490  1.4775
 1414TIP3    H225734   3.891   0.050   2.413  0.8853  0.6313  2.4265
 1415TIP3   OH225735   4.523   6.298   2.056 -0.3742  0.5299 -0.4150
 1415TIP3    H125736   4.533   6.334   1.968  0.4898 -1.6012 -1.2154
 1415TIP3    H225737   4.555   6.208   2.049  1.2905  0.8338  2.4726
 1416TIP3   OH225738   3.701   1.111   3.356  0.5025  0.5450 -0.2913
 1416TIP3    H125739   3.684   1.025   3.317 -0.2600 -0.1453  1.5350
 1416TIP3    H225740   3.761   1.093   3.429 -0.0941  1.4883  0.4346
 1417TIP3   OH225741   0.231   0.693   1.551 -0.3233  0.3979  0.2932
 1417TIP3    H125742   0.217   0.602   1.578 -0.4278  0.3037 -0.0758
 1417TIP3    H225743   0.232   0.743   1.633  0.8920 -0.0919  0.5961
 1418TIP3   OH225744   5.675   0.883   1.600  0.3489 -0.2038  0.2115
 1418TIP3    H125745   5.649   0.879   1.508 -0.4720 -0.0268  0.4375
 1418TIP3    H225746   5.744   0.817   1.608 -1.2400 -1.9060  0.0249
 1419TIP3   OH225747   1.385   1.855   5.148  0.1433  0.5157 -0.0929
 1419TIP3    H125748   1.426   1.860   5.062  1.3695  1.0058  0.5119
 1419TIP3    H225749   1.330   1.933   5.153 -2.0539 -0.8894 -1.4887
 1420TIP3   OH225750   0.853   3.979  11.235  0.0100  0.3333  0.0378
 1420TIP3    H125751   0.843   4.039  11.161 -0.6988 -0.1648 -0.2814
 1420TIP3    H225752   0.800   4.018  11.305  1.7298  1.4989  0.7354
 1421TIP3   OH225753   6.053   6.685   1.712 -0.3702  0.0721  1.2445
 1421TIP3    H125754   6.013   6.616   1.765 -0.0815 -2.6937 -2.0027
 1421TIP3    H225755   6.004   6.684   1.630  1.1888  2.1450  0.2423
 1422TIP3   OH225756   4.804   5.688   0.178  0.2934 -0.0585  0.4148
 1422TIP3    H125757   4.729   5.630   0.167  0.9929 -1.2401  1.7513
 1422TIP3    H225758   4.846   5.690   0.093  0.6848 -2.0992  0.5512
 1423TIP3   OH225759   2.717   4.164  14.060 -0.5619 -0.6524  0.5403
 1423TIP3    H125760   2.729   4.251  14.097 -0.3124 -1.7745  3.1655
 1423TIP3    H225761   2.806   4.131  14.046 -0.6539 -0.8028  0.2999
 1424TIP3   OH225762   3.469   0.046  11.995 -0.0190  0.1501 -0.1100
 1424TIP3    H125763   3.394  -0.011  11.978 -0.8435  1.4196 -0.7770
 1424TIP3    H225764   3.445   0.095  12.074 -0.4521  1.4583 -1.0266
 1425TIP3   OH225765   4.601   0.105  15.721 -0.0740  0.0057  0.3511
 1425TIP3    H125766   4.638   0.046  15.787 -0.3756 -1.2986 -0.6225
 1425TIP3    H225767   4.556   0.173  15.772 -0.6792 -1.2353  1.4943
 1426TIP3   OH225768   1.380   0.219   0.859  0.5489 -1.0108  0.1658
 1426TIP3    H125769   1.356   0.161   0.786 -0.3665  1.0443 -1.2050
 1426TIP3    H225770   1.444   0.279   0.821  1.5553 -1.1563  1.6088
 1427TIP3   OH225771   4.999   3.770  12.375  0.0252 -0.1074  0.4461
 1427TIP3    H125772   5.016   3.755  12.282 -1.7855 -0.5879  0.1726
 1427TIP3    H225773   5.073   3.823  12.405  1.1277 -0.7644 -1.0335
 1428TIP3   OH225774   1.655   0.781  16.897 -0.3808 -0.0014 -0.3892
 1428TIP3    H125775   1.652   0.704  16.953  0.7184 -0.3914 -0.8493
 1428TIP3    H225776   1.564   0.802  16.880 -0.6922 -1.1801 -0.2206
 1429TIP3   OH225777   6.206   4.727  11.273  0.5505 -1.0088  0.4965
 1429TIP3    H125778   6.248   4.726  11.359  0.6981  0.7621  0.4614
 1429TIP3    H225779   6.112   4.719  11.292  0.4893  0.5700  0.9075
 1430TIP3   OH225780   5.587   2.450   3.878  0.6265  0.7898  0.6202
 1430TIP3    H125781   5.677   2.449   3.910  0.4072  1.3266  1.2365
 1430TIP3    H225782   5.577   2.535   3.836  0.8871  0.1324 -0.8268
 1431TIP3   OH225783   0.830   5.302   0.057  0.0864 -0.3438  0.6231
 1431TIP3    H125784   0.779   5.377   0.026  2.5490  1.0372 -0.2206
 1431TIP3    H225785   0.879   5.272  -0.019  1.3607 -0.9578  1.6605
 1432TIP3   OH225786   4.873   3.213   5.924 -0.0615 -0.6041  0.3890
 1432TIP3    H125787   4.813   3.267   5.976 -1.3692 -0.8030 -0.8695
 1432TIP3    H225788   4.843   3.123   5.938  0.1795 -0.7385  0.0600
 1433TIP3   OH225789   3.249   3.626  15.457 -0.5760 -0.0643  0.2752
 1433TIP3    H125790   3.249   3.709  15.505  1.8603  1.3396 -2.0294
 1433TIP3    H225791   3.322   3.577  15.495  1.1080  0.8930 -1.5886
 1434TIP3   OH225792   4.597   0.663  12.766  0.4556 -0.2407 -0.6061
 1434TIP3    H125793   4.667   0.617  12.720  1.9617  1.5640 -0.1573
 1434TIP3    H225794   4.631   0.675  12.855 -1.0592 -0.7065  0.0519
 1435TIP3   OH225795   2.955   2.500   0.091  0.2172  0.6270 -0.7769
 1435TIP3    H125796   2.900   2.423   0.109  1.5001  0.1875  1.4959
 1435TIP3    H225797   2.897   2.559   0.044 -1.8426 -0.3766  0.3834
 1436TIP3   OH225798   0.191   0.389  15.245  0.0266 -0.4445 -0.2362
 1436TIP3    H125799   0.125   0.377  15.177 -0.9929  1.2591  0.4409
 1436TIP3    H225800   0.144   0.380  15.327  0.7195  0.2635  0.2552
 1437TIP3   OH225801   1.965   0.924  13.166 -0.1598 -0.1246  0.0574
 1437TIP3    H125802   1.874   0.907  13.142 -0.2383  0.3345  0.0196
 1437TIP3    H225803   2.013   0.848  13.133 -0.1814  0.7542 -2.0982
 1438TIP3   OH225804   4.960   4.753  14.610 -0.1263  0.0832 -0.2753
 1438TIP3    H125805   4.890   4.805  14.649  0.0994 -0.2467  0.5759
 1438TIP3    H225806   4.925   4.664  14.607  0.1292 -0.0216 -0.1710
 1439TIP3   OH225807   1.196   4.755   4.789  0.5400  0.2296  0.2870
 1439TIP3    H125808   1.112   4.709   4.794  1.2288 -1.1415 -0.3858
 1439TIP3    H225809   1.212   4.785   4.879 -0.4103  0.0334  0.5271
 1440TIP3   OH225810   3.685   4.332   2.552 -0.3968 -0.3040  0.0079
 1440TIP3    H125811   3.621   4.299   2.615 -1.7652  1.7144 -0.2953
 1440TIP3    H225812   3.739   4.392   2.602  1.2419 -1.9367  0.2381
 1441TIP3   OH225813   2.125   0.653   4.911  0.1934 -0.1891  0.5453
 1441TIP3    H125814   2.194   0.654   4.978 -0.9195 -2.0295  1.7518
 1441TIP3    H225815   2.146   0.578   4.857  0.3769  0.5624 -0.4405
 1442TIP3   OH225816   5.061   2.554  14.262 -0.3000 -0.2783  0.3391
 1442TIP3    H125817   5.110   2.566  14.180 -0.4193  1.4455  0.5046
 1442TIP3    H225818   5.127   2.532  14.327 -0.1455 -1.1847 -0.1227
 1443TIP3   OH225819   3.812   3.777   5.118 -0.1226  0.5531  0.1610
 1443TIP3    H125820   3.737   3.797   5.175  0.5151  0.1160  1.1675
 1443TIP3    H225821   3.849   3.697   5.155  1.3452  1.2321  0.1824
 1444TIP3   OH225822   2.541   1.317  11.372 -0.5254  0.0074 -0.2665
 1444TIP3    H125823   2.475   1.385  11.385 -0.8750 -0.1338 -1.2662
 1444TIP3    H225824   2.598   1.352  11.304  0.3625  0.0658  0.4952
 1445TIP3   OH225825   4.080   5.421   5.462 -0.4785 -0.4535  0.3648
 1445TIP3    H125826   4.021   5.495   5.455 -0.2477 -0.3322 -0.3115
 1445TIP3    H225827   4.163   5.452   5.425  0.1737 -0.4431  1.8093
 1446TIP3   OH225828   4.449   2.884   5.594 -0.0566  0.1087 -0.0727
 1446TIP3    H125829   4.364   2.901   5.632 -0.3088  0.1032 -0.6256
 1446TIP3    H225830   4.446   2.928   5.509  0.4566  0.0340 -0.1313
 1447TIP3   OH225831   6.653   0.209   0.324 -0.2349  0.2753 -0.5613
 1447TIP3    H125832   6.718   0.279   0.312  0.7110 -0.6320 -0.7942
 1447TIP3    H225833   6.650   0.165   0.239  0.3095 -0.9213  0.0322
 1448TIP3   OH225834   0.243   0.663  10.675 -0.4739  0.9177  0.3866
 1448TIP3    H125835   0.167   0.625  10.631 -0.3348  1.4873 -0.3709
 1448TIP3    H225836   0.222   0.756  10.683  0.8026  1.3758 -1.2813
 1449TIP3   OH225837   4.361   2.683   3.841  0.0348  0.4745 -0.3698
 1449TIP3    H125838   4.352   2.598   3.798 -0.2565  0.5248 -0.4078
 1449TIP3    H225839   4.324   2.745   3.779  0.4530  0.6589 -0.4387
 1450TIP3   OH225840   1.971   2.502   6.240 -0.3115 -0.1747  0.7972
 1450TIP3    H125841   1.904   2.452   6.287 -1.4151  0.9551  0.4360
 1450TIP3    H225842   1.923   2.571   6.195  0.7708 -1.0003 -1.7297
 1451TIP3   OH225843   4.726   0.977  11.465  0.6468  0.3548 -0.3766
 1451TIP3    H125844   4.743   1.048  11.403  0.3484  0.9155  0.1672
 1451TIP3    H225845   4.680   1.020  11.537 -1.0399 -0.7121 -0.8021
 1452TIP3   OH225846   2.769   6.190   3.991  0.0167  0.6240 -0.0654
 1452TIP3    H125847   2.749   6.238   3.910 -0.2575  0.8151  0.1140
 1452TIP3    H225848   2.858   6.158   3.978 -0.3382 -0.0925 -0.8115
 1453TIP3   OH225849   5.510   1.965  13.010 -0.0117 -0.3061 -0.6928
 1453TIP3    H125850   5.448   2.027  12.970  2.2138  1.8895 -0.8340
 1453TIP3    H225851   5.566   2.020  13.065  2.2417 -2.1394 -1.1048
 1454TIP3   OH225852   1.870   0.487   2.765  0.2338 -0.0024  0.8982
 1454TIP3    H125853   1.906   0.399   2.768  0.8772  0.1650 -1.0389
 1454TIP3    H225854   1.946   0.544   2.754 -0.4685  0.3821 -2.8053
 1455TIP3   OH225855   1.140   3.485  12.924 -0.1017  0.5195  0.3473
 1455TIP3    H125856   1.226   3.463  12.959 -1.4188 -1.8258  2.2461
 1455TIP3    H225857   1.114   3.409  12.873 -1.8775  0.3803  1.4210
 1456TIP3   OH225858   3.717   2.633  16.866 -0.1113 -0.0508  0.0784
 1456TIP3    H125859   3.743   2.686  16.942  1.5414  0.2183 -0.6461
 1456TIP3    H225860   3.693   2.697  16.799  2.4673 -0.1483 -1.0017
 1457TIP3   OH225861   2.840   3.965  14.269 -0.0704  0.5520  0.0487
 1457TIP3    H125862   2.845   3.876  14.234 -0.3085 -0.2197  1.8976
 1457TIP3    H225863   2.915   4.011  14.231  1.1430 -0.9913  0.5384
 1458TIP3   OH225864   6.800   3.979  16.901 -0.0587  0.0722 -0.4737
 1458TIP3    H125865   6.808   4.071  16.878  1.0641 -0.1217 -0.8915
 1458TIP3    H225866   6.830   3.974  16.992  0.2882  0.0562 -0.5895
 1459TIP3   OH225867   1.441   1.211  11.657 -0.0910  0.4888 -0.0042
 1459TIP3    H125868   1.534   1.194  11.676 -0.0214  0.6336 -0.2089
 1459TIP3    H225869   1.396   1.192  11.739  0.2418  1.4361  0.4092
 1460TIP3   OH225870   5.198   1.838  17.025 -0.6990 -0.6257  0.7652
 1460TIP3    H125871   5.262   1.870  17.089 -0.9121  1.4818 -0.0217
 1460TIP3    H225872   5.140   1.782  17.075 -0.6810  0.7316  2.3726
 1461TIP3   OH225873   4.664   3.849   2.598  0.4161  0.4916  0.5009
 1461TIP3    H125874   4.646   3.783   2.531  0.8432 -1.1419  1.9851
 1461TIP3    H225875   4.706   3.920   2.549  0.6166 -0.6139 -0.9896
 1462TIP3   OH225876   6.623   5.145  13.480 -0.1205 -0.3114  0.0053
 1462TIP3    H125877   6.542   5.139  13.532  0.3261  0.1095  0.7625
 1462TIP3    H225878   6.595   5.129  13.390 -0.9657 -0.6983  0.3297
 1463TIP3   OH225879   3.255   2.121  15.909  0.1343 -0.1013 -0.1544
 1463TIP3    H125880   3.306   2.151  15.834 -0.8521  0.6977 -0.5169
 1463TIP3    H225881   3.183   2.184  15.916 -1.5011 -1.8982 -0.4177
 1464TIP3   OH225882   2.924   4.904  10.774  0.0006  0.4106 -0.9718
 1464TIP3    H125883   3.010   4.864  10.758 -0.0384  0.0039 -0.1721
 1464TIP3    H225884   2.892   4.925  10.687  0.2955 -0.7464 -1.3722
 1465TIP3   OH225885   5.883   3.709  15.027 -0.5090 -0.2584 -0.0006
 1465TIP3    H125886   5.889   3.626  14.978 -1.5034  1.0123 -2.3403
 1465TIP3    H225887   5.843   3.770  14.966  0.9008  2.1819  1.4421
 1466TIP3   OH225888   6.694   3.470   2.916  0.1962 -0.4875  0.0731
 1466TIP3    H125889   6.774   3.479   2.968 -0.2193 -0.3263  0.6864
 1466TIP3    H225890   6.642   3.403   2.962 -1.8838  2.3804  2.0705
 1467TIP3   OH225891   6.369   5.730   2.220  0.1929 -0.0155 -0.4797
 1467TIP3    H125892   6.316   5.738   2.300  0.9862  2.1207 -0.1432
 1467TIP3    H225893   6.307   5.701   2.153 -0.8318 -0.1668  0.5146
 1468TIP3   OH225894   0.856   0.448  15.530  0.0038 -0.8635  0.1106
 1468TIP3    H125895   0.871   0.428  15.623  3.3425  0.0658 -0.1482
 1468TIP3    H225896   0.818   0.535  15.530 -1.5738 -1.5482  0.6735
 1469TIP3   OH225897   2.767   0.632   4.306 -0.0787  0.2435 -0.5009
 1469TIP3    H125898   2.706   0.665   4.373  0.3999 -0.3428  0.2413
 1469TIP3    H225899   2.783   0.707   4.249  1.3360  1.4690  1.4008
 1470TIP3   OH225900   3.937   4.960   2.333 -0.0750 -0.0767  0.5835
 1470TIP3    H125901   3.857   5.013   2.326  0.8716  1.4421  1.0273
 1470TIP3    H225902   4.006   5.024   2.350  1.0417 -1.5053  1.4861
 1471TIP3   OH225903   3.927   5.676  14.252 -0.4583  0.0618 -0.1583
 1471TIP3    H125904   3.954   5.762  14.285 -0.7969  0.5994 -1.2729
 1471TIP3    H225905   3.890   5.632  14.328 -2.2352  1.6994 -0.0476
 1472TIP3   OH225906   4.561   1.428   2.350  0.4931 -0.0914 -0.3684
 1472TIP3    H125907   4.590   1.343   2.316  1.1132 -0.2364  0.4859
 1472TIP3    H225908   4.469   1.415   2.373  0.8896 -0.8907  0.8425
 1473TIP3   OH225909   3.441   0.303   2.747 -0.3046  0.1574 -0.5579
 1473TIP3    H125910   3.447   0.377   2.686 -0.1591  0.6560  0.0605
 1473TIP3    H225911   3.360   0.259   2.721 -0.6810  0.8435 -0.5844
 1474TIP3   OH225912   6.624   6.117  16.040  0.0605  0.2563 -0.1863
 1474TIP3    H125913   6.584   6.125  16.127  0.0549  1.1274 -0.2702
 1474TIP3    H225914   6.702   6.063  16.055 -0.4717 -0.4223  0.1802
 1475TIP3   OH225915   5.937   5.633  15.438 -0.2254  0.6230  0.0661
 1475TIP3    H125916   5.927   5.538  15.429 -1.1966  0.9022 -1.9964
 1475TIP3    H225917   6.026   5.645  15.471  0.3813 -0.9343 -0.9867
 1476TIP3   OH225918   0.512   1.897  12.236  0.1076 -0.2994 -0.3280
 1476TIP3    H125919   0.587   1.901  12.177  0.6770  0.3428  0.4282
 1476TIP3    H225920   0.442   1.942  12.188  0.6324  0.4258 -0.4207
 1477TIP3   OH225921   1.341   3.902   1.825 -0.2924  0.1085 -0.6969
 1477TIP3    H125922   1.430   3.868   1.830 -0.5932 -0.6028 -0.1418
 1477TIP3    H225923   1.352   3.997   1.816  0.4780  0.3111  2.0044
 1478TIP3   OH225924   4.089   4.676   5.276 -0.1332 -0.2403  0.0452
 1478TIP3    H125925   4.045   4.591   5.280 -0.1504 -0.2515 -0.4319
 1478TIP3    H225926   4.094   4.704   5.368  3.0719 -2.3865  0.6162
 1479TIP3   OH225927   2.691   2.192   5.810  0.6475  0.4699  0.1027
 1479TIP3    H125928   2.725   2.145   5.887  1.1590  0.5753 -0.0559
 1479TIP3    H225929   2.652   2.271   5.846 -0.9390 -0.4444  0.4582
 1480TIP3   OH225930   5.445   5.476  14.598 -0.3723  0.0266 -0.0873
 1480TIP3    H125931   5.498   5.556  14.597 -0.7412  0.2861  1.2398
 1480TIP3    H225932   5.355   5.507  14.600 -0.5256 -0.4299  0.0796
 1481TIP3   OH225933   4.932   3.166   1.564  0.0779 -0.5604  0.8963
 1481TIP3    H125934   4.995   3.105   1.603  1.0467  0.3010  0.6948
 1481TIP3    H225935   4.986   3.235   1.525 -0.9064 -1.0703 -1.3997
 1482TIP3   OH225936   6.393   6.673   3.290  0.3691 -0.0249 -0.5074
 1482TIP3    H125937   6.368   6.594   3.338  0.6206  0.1338 -0.1132
 1482TIP3    H225938   6.488   6.666   3.279  0.4727  0.4639 -0.0170
 1483TIP3   OH225939   2.164   4.357  12.763 -0.1283  0.1889 -0.0421
 1483TIP3    H125940   2.231   4.413  12.803 -1.9278  1.5991  1.0623
 1483TIP3    H225941   2.176   4.370  12.669  0.2325  1.5593  0.1698
 1484TIP3   OH225942   5.025   6.277   5.554  0.7422  0.2006 -0.0023
 1484TIP3    H125943   5.023   6.184   5.576 -1.8893  0.7666  2.4698
 1484TIP3    H225944   4.977   6.284   5.472  1.2708 -0.6639 -0.3877
 1485TIP3   OH225945   1.781   5.912  13.874  0.1745  0.0685 -0.2127
 1485TIP3    H125946   1.837   5.971  13.925  1.3653 -0.5090 -0.8249
 1485TIP3    H225947   1.741   5.968  13.808  2.3677 -0.0150 -1.6641
 1486TIP3   OH225948   4.356   6.102  12.462  0.3960  0.1202 -0.1011
 1486TIP3    H125949   4.427   6.165  12.470  0.0116  0.9708 -2.7441
 1486TIP3    H225950   4.388   6.037  12.400 -0.5050 -0.4158 -0.0180
 1487TIP3   OH225951   5.233   3.069   4.021  0.1253 -0.8364  0.5773
 1487TIP3    H125952   5.223   3.077   3.926 -0.8500 -1.4887  0.6174
 1487TIP3    H225953   5.322   3.098   4.038  0.2476 -0.5423 -0.5192
 1488TIP3   OH225954   2.489   0.913   5.093  0.1248 -0.4240 -0.4855
 1488TIP3    H125955   2.533   0.899   5.010  0.3565 -0.4883 -0.3530
 1488TIP3    H225956   2.539   0.861   5.156 -0.9782 -1.6410 -0.5861
 1489TIP3   OH225957   1.984   5.197   0.178 -0.3894 -0.6841 -0.4195
 1489TIP3    H125958   1.907   5.140   0.180 -1.2508  0.4651 -0.7437
 1489TIP3    H225959   1.985   5.234   0.090  0.3096 -0.3686 -0.2845
 1490TIP3   OH225960   1.347   1.895   2.902 -0.0231 -0.3179  0.2815
 1490TIP3    H125961   1.304   1.973   2.936 -0.3699  0.0560 -1.0044
 1490TIP3    H225962   1.390   1.856   2.979 -2.2724 -0.4797  1.4941
 1491TIP3   OH225963   3.656   5.571  15.053  0.0946  0.1318  0.5568
 1491TIP3    H125964   3.690   5.643  15.106 -0.5170  0.5095  0.4403
 1491TIP3    H225965   3.734   5.530  15.016  0.4466  0.7571  0.5969
 1492TIP3   OH225966   2.891   1.259   0.994  0.2642  0.0073  0.0260
 1492TIP3    H125967   2.979   1.235   0.967  0.5562  2.1852 -1.0249
 1492TIP3    H225968   2.904   1.312   1.073 -0.0795  0.5803 -0.3007
 1493TIP3   OH225969   3.189   4.807  15.975 -0.0779  0.9471 -0.6740
 1493TIP3    H125970   3.181   4.852  15.891  1.3011  0.6773 -0.9726
 1493TIP3    H225971   3.129   4.854  16.034  0.6810  2.6323 -1.2002
 1494TIP3   OH225972   6.149   1.039  12.354  0.2973 -0.4336 -0.2984
 1494TIP3    H125973   6.170   1.106  12.418 -2.2509 -0.4029  0.5377
 1494TIP3    H225974   6.154   0.956  12.402 -1.7433 -0.4006  0.0025
 1495TIP3   OH225975   5.999   1.611  12.255  0.0836  0.5192 -0.8284
 1495TIP3    H125976   5.971   1.557  12.182 -1.1362  0.4290 -0.3060
 1495TIP3    H225977   5.944   1.688  12.251 -0.9480 -0.1029  0.7837
 1496TIP3   OH225978   3.664   3.159  12.961  0.3983  0.2423  0.0650
 1496TIP3    H125979   3.602   3.156  12.888  0.6796 -1.4554 -0.1098
 1496TIP3    H225980   3.611   3.139  13.038  0.7526 -1.4654 -0.1151
 1497TIP3   OH225981   1.652   6.260   0.289  0.5196 -0.0282  0.4780
 1497TIP3    H125982   1.732   6.231   0.333 -1.0485 -1.2508  2.6337
 1497TIP3    H225983   1.594   6.183   0.291 -0.8728  0.9597 -0.6805
 1498TIP3   OH225984   0.639   5.983  15.687  0.4564  0.0522 -0.3731
 1498TIP3    H125985   0.698   5.917  15.651  2.2982  1.3926  0.1381
 1498TIP3    H225986   0.606   5.945  15.768 -0.5127 -1.2813 -1.3703
 1499TIP3   OH225987   0.515   2.340   3.540 -0.1363 -0.0273  0.0336
 1499TIP3    H125988   0.431   2.294   3.530 -0.4982  0.4708  0.7730
 1499TIP3    H225989   0.524   2.390   3.459  0.1048 -1.1371 -0.6389
 1500TIP3   OH225990   5.530   5.044  11.959  0.8043 -0.2548  0.4006
 1500TIP3    H125991   5.532   5.133  11.996  0.8675 -0.2231  0.3194
 1500TIP3    H225992   5.616   5.033  11.918 -0.2633  0.7359 -2.1799
 1501TIP3   OH225993   5.386   1.124  11.800 -0.3213 -0.5522  0.5759
 1501TIP3    H125994   5.353   1.206  11.762  1.3622 -0.5626 -0.9826
 1501TIP3    H225995   5.315   1.093  11.856 -2.0031  0.6384 -0.8510
 1502TIP3   OH225996   4.977   1.050   3.813  0.4482 -0.0533 -0.1569
 1502TIP3    H125997   4.940   0.964   3.833  2.4597 -0.8069  0.4948
 1502TIP3    H225998   4.978   1.055   3.718  0.6877 -0.9252 -0.2039
 1503TIP3   OH225999   3.824   0.396  13.659  0.1585  0.3768  0.4847
 1503TIP3    H126000   3.828   0.357  13.571 -1.5876 -2.2507  1.5131
 1503TIP3    H226001   3.769   0.473  13.648 -1.0666 -0.6243 -0.5000
 1504TIP3   OH226002   5.118   6.508   2.787 -0.0801  0.0259  0.1983
 1504TIP3    H126003   5.166   6.558   2.852  0.4054 -1.7675  1.2326
 1504TIP3    H226004   5.145   6.546   2.703  2.7722 -0.6093  0.7736
 1505TIP3   OH226005   5.496   3.554  15.891 -0.2005  0.8877  0.4234
 1505TIP3    H126006   5.578   3.506  15.896  0.0734  1.2667 -0.2757
 1505TIP3    H226007   5.503   3.605  15.810 -1.9298 -0.5817 -0.7057
 1506TIP3   OH226008   2.551   5.125   4.404  0.4656  0.6156 -0.6450
 1506TIP3    H126009   2.596   5.140   4.487  0.2848  0.5478 -0.5354
 1506TIP3    H226010   2.478   5.069   4.426  0.1556  0.9667 -0.7756
 1507TIP3   OH226011   6.466   5.211   4.669 -0.3155 -0.1559 -0.0713
 1507TIP3    H126012   6.500   5.237   4.755 -1.2193  0.1357  0.2032
 1507TIP3    H226013   6.371   5.211   4.680 -0.4290 -0.2586 -1.0353
 1508TIP3   OH226014   5.387   5.396   5.489 -0.1653  0.0882  0.0290
 1508TIP3    H126015   5.344   5.469   5.444 -0.7271  0.4645  1.1473
 1508TIP3    H226016   5.444   5.438   5.554  1.6078 -0.4200 -1.1629
 1509TIP3   OH226017   1.116   0.101  12.018  0.6667  0.0033  0.1724
 1509TIP3    H126018   1.130   0.012  11.986  0.1876 -0.0495  0.1103
 1509TIP3    H226019   1.053   0.091  12.090 -1.4743  0.5887 -1.5748
 1510TIP3   OH226020   6.567   2.313   1.703 -0.2581 -0.5558 -0.3180
 1510TIP3    H126021   6.621   2.255   1.755  0.4345  0.2526 -0.1237
 1510TIP3    H226022   6.494   2.336   1.761  0.5954  0.4725  0.3791
 1511TIP3   OH226023   2.927   6.423  17.025  0.2731 -0.2249  0.3626
 1511TIP3    H126024   3.013   6.419  17.067  0.5101  0.3761 -0.0549
 1511TIP3    H226025   2.921   6.342  16.974  0.5108 -0.3594  0.5449
 1512TIP3   OH226026   0.644   1.237  13.659  0.1038  0.5784 -0.2808
 1512TIP3    H126027   0.733   1.257  13.631  0.0746 -0.5523 -1.2078
 1512TIP3    H226028   0.636   1.278  13.745  0.8539  2.3900 -1.0506
 1513TIP3   OH226029   3.583   3.497  11.277  0.2582  0.4883  0.0023
 1513TIP3    H126030   3.620   3.585  11.280 -0.0604  0.6091  0.4214
 1513TIP3    H226031   3.659   3.439  11.268  0.4533  0.8147 -0.4780
 1514TIP3   OH226032   6.666   3.978  12.941  0.3323 -0.4064  0.6288
 1514TIP3    H126033   6.630   3.916  13.004 -2.8048  1.2870  0.5877
 1514TIP3    H226034   6.756   3.993  12.971 -0.2999 -1.5534  3.2130
 1515TIP3   OH226035   6.359   5.030   3.861  0.3222 -0.1160  0.0213
 1515TIP3    H126036   6.311   4.967   3.914  0.9171 -1.6059 -1.1675
 1515TIP3    H226037   6.350   5.113   3.908 -1.8672 -0.7294  0.7565
 1516TIP3   OH226038   2.092   4.366   4.798 -0.2491  0.4688  0.3195
 1516TIP3    H126039   2.161   4.300   4.806 -1.8980 -1.2761  0.3227
 1516TIP3    H226040   2.135   4.448   4.824  2.0759 -0.4002 -0.5859
 1517TIP3   OH226041   0.697   2.599   1.866  0.6178  0.2278  0.1990
 1517TIP3    H126042   0.719   2.654   1.942 -0.4746  1.4094 -0.3183
 1517TIP3    H226043   0.610   2.628   1.840  0.7263 -0.5987 -1.1337
 1518TIP3   OH226044   6.153   3.407  14.680 -0.1384  0.4634 -0.4603
 1518TIP3    H126045   6.224   3.439  14.736  0.3464 -1.6470  0.1781
 1518TIP3    H226046   6.185   3.422  14.591  1.7934 -1.8134 -0.2032
 1519TIP3   OH226047   2.778   6.299   1.306 -0.3810 -0.0581  0.0320
 1519TIP3    H126048   2.716   6.321   1.237  0.3666  0.6811 -0.4047
 1519TIP3    H226049   2.724   6.261   1.375 -1.1950 -0.3129 -0.7386
 1520TIP3   OH226050   0.389   5.633   0.292 -0.1433 -0.1104  0.5169
 1520TIP3    H126051   0.378   5.714   0.341 -0.0850  0.6317 -0.6607
 1520TIP3    H226052   0.455   5.584   0.340 -0.4735  0.3577  1.4656
 1521TIP3   OH226053   1.632   4.654  10.676 -0.3827 -0.3239  0.9411
 1521TIP3    H126054   1.658   4.735  10.721  0.9829  2.1510 -3.9334
 1521TIP3    H226055   1.540   4.667  10.656 -0.2999 -0.1995  0.6363
 1522TIP3   OH226056   0.911   1.904   0.062 -0.3457  0.5201  0.0574
 1522TIP3    H126057   0.976   1.848   0.104 -1.3081  0.9123  2.1165
 1522TIP3    H226058   0.925   1.891  -0.032  1.5112 -0.7565  0.4952
 1523TIP3   OH226059   3.052   1.276   3.339  0.2715  0.6378  0.2884
 1523TIP3    H126060   3.062   1.197   3.392 -0.6891  1.3819  1.6140
 1523TIP3    H226061   3.134   1.282   3.289 -0.9935 -3.0489 -2.4646
 1524TIP3   OH226062   3.045   0.494  15.184  0.1924 -0.0030 -0.0947
 1524TIP3    H126063   3.017   0.474  15.095 -0.1071  1.5684 -0.3688
 1524TIP3    H226064   3.129   0.540  15.174  0.2836 -0.0442  0.4428
 1525TIP3   OH226065   4.412   3.143   4.689  0.1343  0.0520  0.5899
 1525TIP3    H126066   4.482   3.095   4.733  0.1795  0.9177  1.4912
 1525TIP3    H226067   4.397   3.219   4.745 -0.7978  0.4256 -0.1573
 1526TIP3   OH226068   2.164   1.867  16.685  0.0406  0.0798 -0.1631
 1526TIP3    H126069   2.143   1.800  16.621 -2.4066 -0.1120  0.8002
 1526TIP3    H226070   2.254   1.847  16.713 -0.1982 -1.9885 -0.8361
 1527TIP3   OH226071   5.526   6.159   2.339  0.9364 -0.3070 -0.0827
 1527TIP3    H126072   5.492   6.118   2.418 -1.4428  0.9389 -0.4146
 1527TIP3    H226073   5.531   6.252   2.360 -0.6203  0.1624 -1.6843
 1528TIP3   OH226074   4.647   3.440  10.781 -0.1699  0.3432  0.0730
 1528TIP3    H126075   4.654   3.345  10.772  0.4207  0.4112 -0.1858
 1528TIP3    H226076   4.567   3.454  10.831 -1.2972 -0.2055 -1.5532
 1529TIP3   OH226077   6.077   2.187   4.331 -0.0380  0.5929  0.0753
 1529TIP3    H126078   6.145   2.123   4.349  0.3627  0.1451 -2.7613
 1529TIP3    H226079   5.998   2.149   4.370  0.7828 -0.1728  1.0299
 1530TIP3   OH226080   1.568   6.388   4.988 -0.3067 -0.2603  1.1099
 1530TIP3    H126081   1.553   6.483   4.996 -0.1650 -0.3045  1.8543
 1530TIP3    H226082   1.631   6.381   4.916 -0.7986  0.1680  0.6217
 1531TIP3   OH226083   4.096   5.365   2.392 -0.1416 -0.4713 -0.4787
 1531TIP3    H126084   4.001   5.365   2.398 -0.0674  3.7162  1.7311
 1531TIP3    H226085   4.114   5.385   2.300 -1.3418 -1.4667 -0.9457
 1532TIP3   OH226086   2.874   4.045   6.125 -0.1726 -0.4072 -0.2029
 1532TIP3    H126087   2.924   4.085   6.196 -0.4837  1.4458 -1.0124
 1532TIP3    H226088   2.783   4.060   6.147 -0.2679  0.6315 -1.2149
 1533TIP3   OH226089   4.208   3.958  15.711 -0.3756  0.0922 -0.0006
 1533TIP3    H126090   4.118   3.937  15.732 -1.3087  1.8395 -2.0259
 1533TIP3    H226091   4.214   4.053  15.723  1.1803 -0.0084  0.1154
 1534TIP3   OH226092   0.333   3.786  10.778 -0.8536 -0.0430  0.8337
 1534TIP3    H126093   0.425   3.810  10.787 -0.8877 -0.8848  3.8034
 1534TIP3    H226094   0.333   3.718  10.711  0.6970 -0.0765  0.8372
 1535TIP3   OH226095   3.236   4.464   0.024  0.2198  0.4546 -0.4850
 1535TIP3    H126096   3.226   4.370   0.034  0.2486  0.4357 -0.6462
 1535TIP3    H226097   3.330   4.479   0.034  0.2863  0.4010 -1.0568
 1536TIP3   OH226098   3.327   1.058  16.847  0.7117  0.3720  0.4480
 1536TIP3    H126099   3.367   1.115  16.912 -1.7863  0.0150  2.3580
 1536TIP3    H226100   3.262   1.112  16.803  0.9809  0.0391 -0.3789
 1537TIP3   OH226101   4.636   5.061   4.062  0.1987 -0.0236  0.0947
 1537TIP3    H126102   4.691   5.003   4.115  1.0189 -0.3129 -1.0551
 1537TIP3    H226103   4.692   5.088   3.990 -0.9591  0.2478 -0.7164
 1538TIP3   OH226104   5.155   3.091   3.131  0.3243  0.0563 -0.0285
 1538TIP3    H126105   5.121   3.103   3.220 -1.9515  1.0045 -0.9732
 1538TIP3    H226106   5.096   3.028   3.091  1.5818 -0.6794 -0.7586
 1539TIP3   OH226107   2.185   5.749   4.728  0.8804 -0.4292 -0.4495
 1539TIP3    H126108   2.231   5.819   4.682  0.4604 -1.3155 -2.2576
 1539TIP3    H226109   2.177   5.679   4.664 -1.6083 -0.8936  0.3050
 1540TIP3   OH226110   1.423   4.314  16.694  0.2915  0.0384 -0.4305
 1540TIP3    H126111   1.486   4.358  16.637 -0.5088  2.8495  0.8064
 1540TIP3    H226112   1.477   4.275  16.763  0.8720  0.4994 -0.6170
 1541TIP3   OH226113   1.792   6.619   5.816 -0.3356  0.4423  0.2005
 1541TIP3    H126114   1.840   6.560   5.874 -1.0343  0.4519  0.7879
 1541TIP3    H226115   1.837   6.703   5.823  1.0822 -0.1898 -1.1597
 1542TIP3   OH226116   1.870   2.209  15.902 -0.4257 -0.8080  0.4685
 1542TIP3    H126117   1.871   2.251  15.987 -0.2903  0.4506 -0.1473
 1542TIP3    H226118   1.782   2.224  15.868 -0.0114  0.0479 -0.2600
 1543TIP3   OH226119   1.641   1.701   1.679 -0.8115 -0.7080 -0.3655
 1543TIP3    H126120   1.687   1.728   1.758 -0.0108 -0.3641 -0.9466
 1543TIP3    H226121   1.560   1.752   1.680  0.0678  0.7372 -0.7512
 1544TIP3   OH226122   4.362   1.618   5.187 -0.4318  0.1571 -0.0602
 1544TIP3    H126123   4.405   1.588   5.267  0.5358  2.0088  0.1367
 1544TIP3    H226124   4.354   1.539   5.133 -1.5545 -1.2214  2.0438
 1545TIP3   OH226125   0.396   0.770  16.841 -0.3979  0.1639 -0.0176
 1545TIP3    H126126   0.463   0.821  16.795 -0.4464  1.2312  1.0595
 1545TIP3    H226127   0.444   0.724  16.910 -0.5969  0.0299  0.0298
 1546TIP3   OH226128   6.601   6.690   4.717  0.3411  1.2106 -0.0435
 1546TIP3    H126129   6.574   6.615   4.664 -0.0320  1.9098 -0.8624
 1546TIP3    H226130   6.595   6.659   4.808 -2.7933  1.1840 -0.2039
 1547TIP3   OH226131   6.067   5.203   0.396  0.2787 -0.0444  0.1526
 1547TIP3    H126132   6.126   5.139   0.355 -0.8239 -0.7927 -0.3129
 1547TIP3    H226133   5.980   5.173   0.370 -0.2486  1.5991  0.0342
 1548TIP3   OH226134   2.870   6.163   4.916  0.2017  0.3359  0.1961
 1548TIP3    H126135   2.886   6.110   4.994 -0.8135  0.9005  0.7901
 1548TIP3    H226136   2.780   6.142   4.890  0.9830 -0.8757 -1.6282
 1549TIP3   OH226137   6.598   5.148   1.085 -0.1880 -0.1465 -0.1523
 1549TIP3    H126138   6.546   5.088   1.031  1.4471 -1.3705 -0.4091
 1549TIP3    H226139   6.646   5.091   1.145  1.7297  0.8561 -0.7009
 1550TIP3   OH226140   4.311   0.612   3.739 -0.1908 -0.2946 -0.2680
 1550TIP3    H126141   4.315   0.557   3.660 -0.2406 -1.2552  0.3954
 1550TIP3    H226142   4.293   0.551   3.810  1.5239  0.3426  0.7372
 1551TIP3   OH226143   0.723   6.188   1.547  0.3566  0.0280  0.0530
 1551TIP3    H126144   0.696   6.209   1.457 -0.0363  1.3973  0.4743
 1551TIP3    H226145   0.641   6.167   1.592  0.4133  0.5588  0.4030
 1552TIP3   OH226146   2.055   1.814   3.656 -0.3189 -0.6379  0.5642
 1552TIP3    H126147   2.089   1.800   3.745 -0.6030  0.2580  0.8221
 1552TIP3    H226148   2.086   1.901   3.632 -1.7216 -0.1607  0.4724
 1553TIP3   OH226149   1.935   2.516   3.252 -0.3340 -0.2034 -0.0644
 1553TIP3    H126150   1.993   2.587   3.221  1.5044 -1.2388  0.9182
 1553TIP3    H226151   1.865   2.562   3.298  2.1420  0.9692  2.7629
 1554TIP3   OH226152   3.541   3.808   2.393  0.0652  0.1779  0.0237
 1554TIP3    H126153   3.564   3.882   2.449 -1.2949  0.9406 -0.4025
 1554TIP3    H226154   3.447   3.795   2.407  0.4924 -2.1339  0.8634
 1555TIP3   OH226155   2.245   0.525   0.787 -0.1904  0.3985  0.6012
 1555TIP3    H126156   2.252   0.578   0.707 -0.3119  1.1728  1.1033
 1555TIP3    H226157   2.327   0.539   0.833  0.3352 -0.9228  0.0833
 1556TIP3   OH226158   2.709   1.072   1.206 -0.3852  0.0130  0.1827
 1556TIP3    H126159   2.676   1.036   1.124 -1.7765  0.6188  0.4598
 1556TIP3    H226160   2.756   1.151   1.180  0.6506 -0.7205 -0.1915
 1557TIP3   OH226161   3.291   5.662   0.294  0.8298 -0.1542  0.4263
 1557TIP3    H126162   3.343   5.740   0.274  1.1411 -0.6490 -0.7220
 1557TIP3    H226163   3.328   5.594   0.238 -0.4146 -0.7526  0.3271
 1558TIP3   OH226164   0.600   6.773   6.384  0.7626 -0.9520  0.1965
 1558TIP3    H126165   0.524   6.772   6.442 -0.1483  0.6532 -0.9212
 1558TIP3    H226166   0.582   6.704   6.320 -0.6202  0.5449 -1.0874
 1559TIP3   OH226167   5.385   1.201  10.446  0.0314  0.2295 -0.1315
 1559TIP3    H126168   5.474   1.165  10.445 -0.3995 -0.8633 -2.8253
 1559TIP3    H226169   5.396   1.292  10.474  1.7965 -0.3287  1.0660
 1560TIP3   OH226170   6.286   1.602   3.179  0.2649  0.0090  0.4515
 1560TIP3    H126171   6.277   1.563   3.092  3.0254 -0.7333  0.4811
 1560TIP3    H226172   6.283   1.528   3.240 -0.9865  0.4643  0.9775
 1561TIP3   OH226173   4.425   1.118   1.070 -0.0675  0.5602  0.0140
 1561TIP3    H126174   4.491   1.080   1.128 -0.0356  1.0908  0.3253
 1561TIP3    H226175   4.342   1.107   1.117 -0.0031  1.2571  0.2906
 1562TIP3   OH226176   2.821   4.919  11.505  0.1196 -1.0099  0.2259
 1562TIP3    H126177   2.890   4.953  11.448 -0.1601  1.1098  1.1258
 1562TIP3    H226178   2.741   4.929  11.454  0.2009 -1.5504 -0.0136
 1563TIP3   OH226179   0.367   1.951  14.006  0.1114  0.2790 -0.2506
 1563TIP3    H126180   0.459   1.945  13.980 -0.2241 -0.8790 -1.2102
 1563TIP3    H226181   0.345   2.044  13.992  1.0283  0.4887 -0.3545
 1564TIP3   OH226182   1.279   0.218  14.897  0.1465 -0.1203 -0.6278
 1564TIP3    H126183   1.232   0.139  14.925  0.4956 -0.5404 -1.2232
 1564TIP3    H226184   1.268   0.279  14.970  1.2594 -1.3016  0.5602
 1565TIP3   OH226185   0.842   2.459  13.478 -0.3404 -0.4783  0.0281
 1565TIP3    H126186   0.827   2.535  13.533  0.2196 -1.6062  1.7888
 1565TIP3    H226187   0.937   2.459  13.462 -0.2982 -0.9619  0.2677
 1566TIP3   OH226188   0.541   1.525   4.027 -0.4630 -0.0480 -0.4356
 1566TIP3    H126189   0.493   1.568   4.097 -2.0901 -1.4120 -0.6619
 1566TIP3    H226190   0.507   1.435   4.026  2.1612 -1.1013 -0.5569
 1567TIP3   OH226191   0.508   6.518  12.746 -0.1154 -0.0845 -0.0808
 1567TIP3    H126192   0.569   6.563  12.687 -1.4629  1.4204 -0.3544
 1567TIP3    H226193   0.434   6.494  12.691  0.3862 -2.3305  0.1522
 1568TIP3   OH226194   0.259   3.457   5.659 -0.5323  0.3657 -0.1445
 1568TIP3    H126195   0.304   3.475   5.576  0.4819  2.6942  0.8873
 1568TIP3    H226196   0.193   3.526   5.666 -1.4576 -0.5579  0.4041
 1569TIP3   OH226197   4.910   2.736   0.039 -0.6315  0.1856 -0.5758
 1569TIP3    H126198   4.930   2.691  -0.043 -1.1732 -0.4614 -0.3576
 1569TIP3    H226199   4.915   2.829   0.017 -1.3770  0.0170 -1.5082
 1570TIP3   OH226200   6.478   6.740   4.159 -0.6524 -0.2217  0.6720
 1570TIP3    H126201   6.423   6.670   4.124 -0.1071  0.0904 -0.8363
 1570TIP3    H226202   6.424   6.819   4.152 -0.0545  0.0671 -0.7130
 1571TIP3   OH226203   2.573   2.368  15.411  0.0476  0.3974  0.7042
 1571TIP3    H126204   2.622   2.429  15.356 -0.9328 -0.4543 -1.1352
 1571TIP3    H226205   2.481   2.392  15.397 -0.2271 -0.0108  1.7658
 1572TIP3   OH226206   5.153   5.847   5.963 -0.0657  0.1009  0.5666
 1572TIP3    H126207   5.061   5.872   5.963  0.3228  1.5452  0.5188
 1572TIP3    H226208   5.194   5.907   5.901  0.8412 -0.8227  0.2548
 1573TIP3   OH226209   4.350   6.127   1.440 -0.1382 -0.7501  0.5799
 1573TIP3    H126210   4.347   6.193   1.370 -1.3587 -0.7511  0.6206
 1573TIP3    H226211   4.435   6.141   1.482  0.2562 -0.1944 -0.3647
 1574TIP3   OH226212   0.526   3.754  16.099 -0.2511 -0.2373 -0.0445
 1574TIP3    H126213   0.555   3.813  16.169  0.7172 -0.1127 -0.5523
 1574TIP3    H226214   0.523   3.668  16.141 -0.8128  0.0253  0.4608
 1575TIP3   OH226215   3.707   3.058  13.673  0.2456 -0.4600 -0.1731
 1575TIP3    H126216   3.766   3.099  13.610  0.1443  0.9763  0.6279
 1575TIP3    H226217   3.754   3.063  13.757 -0.8079  0.3131  0.3907
 1576TIP3   OH226218   1.027   5.228  12.686 -0.2766 -0.1867  0.7172
 1576TIP3    H126219   0.984   5.312  12.673  1.5273  0.4395 -1.6846
 1576TIP3    H226220   1.080   5.240  12.764  0.7889  1.3087 -0.1997
 1577TIP3   OH226221   3.047   0.146   4.611  0.2856  0.4304  0.1844
 1577TIP3    H126222   3.065   0.217   4.550  0.1044  1.0761  0.8840
 1577TIP3    H226223   2.962   0.111   4.583  0.3736  0.4890 -0.1556
 1578TIP3   OH226224   4.354   6.077  13.747  0.5443 -0.4693 -0.0886
 1578TIP3    H126225   4.280   6.098  13.690  0.9250  1.0603 -0.0403
 1578TIP3    H226226   4.315   6.069  13.835  0.4307  0.3483 -0.0597
 1579TIP3   OH226227   4.475   5.971   4.153  0.1652  0.0547  0.0840
 1579TIP3    H126228   4.534   6.006   4.086 -0.5638  1.0227 -0.0495
 1579TIP3    H226229   4.389   6.005   4.131  0.0587  1.1600  2.0337
 1580TIP3   OH226230   1.330   0.730  11.302 -0.4820 -0.6031  0.2578
 1580TIP3    H126231   1.351   0.807  11.354  0.3621 -0.7271  0.1112
 1580TIP3    H226232   1.275   0.763  11.231 -1.7011 -0.4470  1.2535
 1581TIP3   OH226233   4.924   0.512   4.827  0.2209 -0.6200 -0.0506
 1581TIP3    H126234   4.925   0.591   4.881 -0.1284 -0.5257 -0.1813
 1581TIP3    H226235   4.847   0.522   4.772  1.4888  0.0672 -1.7381
 1582TIP3   OH226236   1.332   4.586  15.018  0.0981 -0.5780  0.2865
 1582TIP3    H126237   1.383   4.514  15.054  0.5477  0.0790  0.9908
 1582TIP3    H226238   1.398   4.645  14.980 -0.2961 -0.7639 -0.7072
 1583TIP3   OH226239   0.048   5.452  12.956 -0.3125 -0.2709 -0.1142
 1583TIP3    H126240  -0.003   5.438  13.035  0.6071  0.6909  0.6717
 1583TIP3    H226241   0.125   5.502  12.985  0.1548 -0.0993 -1.5671
 1584TIP3   OH226242   2.711   4.067   2.608 -0.2835  0.1675  0.3299
 1584TIP3    H126243   2.807   4.064   2.608 -0.2644  0.6466 -0.3528
 1584TIP3    H226244   2.684   3.977   2.590  0.0397  0.0472  0.4433
 1585TIP3   OH226245   6.083   2.879   0.211 -0.5013  0.4372 -0.5697
 1585TIP3    H126246   6.050   2.966   0.233 -1.1756  0.3150 -1.0521
 1585TIP3    H226247   6.088   2.833   0.295  3.1059  2.0014  0.1358
 1586TIP3   OH226248   3.158   1.704  12.210  0.0413 -0.7748  0.4489
 1586TIP3    H126249   3.090   1.766  12.235  0.2275 -0.6733  0.7064
 1586TIP3    H226250   3.230   1.758  12.177  0.6587 -0.7832  1.7652
 1587TIP3   OH226251   2.636   2.347   3.449 -0.1868 -0.8209  0.2439
 1587TIP3    H126252   2.676   2.433   3.465  0.8905 -1.3851  0.6476
 1587TIP3    H226253   2.605   2.319   3.535 -0.3746 -0.9227  0.1439
 1588TIP3   OH226254   4.521   6.796   5.695  0.0372  0.1327  0.5757
 1588TIP3    H126255   4.464   6.763   5.765  2.3235  1.6083  3.2291
 1588TIP3    H226256   4.570   6.720   5.666  0.5097 -0.1301  2.0096
 1589TIP3   OH226257   4.953   1.561  13.791 -0.6723  0.5002  0.6200
 1589TIP3    H126258   4.955   1.552  13.886 -1.7128  1.3015  0.7246
 1589TIP3    H226259   4.866   1.596  13.772 -1.3594 -1.8818 -0.8336
 1590TIP3   OH226260   3.777   6.269  11.691  0.4357  0.1706 -0.3730
 1590TIP3    H126261   3.702   6.229  11.736  0.3558  0.5792 -0.1403
 1590TIP3    H226262   3.849   6.207  11.706  0.2713  0.0310 -0.1513
 1591TIP3   OH226263   1.421   3.062   3.927 -0.9537 -0.5464  0.2649
 1591TIP3    H126264   1.389   2.978   3.894 -1.1006 -0.4260  0.0949
 1591TIP3    H226265   1.350   3.124   3.907 -0.8473 -0.3838  0.3895
 1592TIP3   OH226266   0.558   0.596  17.008 -0.0886  0.0460 -0.0596
 1592TIP3    H126267   0.547   0.502  17.021  0.8348 -0.2189 -1.1809
 1592TIP3    H226268   0.640   0.605  16.961 -0.2963  1.4021 -0.1849
 1593TIP3   OH226269   6.051   4.667  12.369  0.5976  0.1811 -0.5072
 1593TIP3    H126270   6.036   4.708  12.284  1.7843 -1.7241 -1.6700
 1593TIP3    H226271   6.020   4.577  12.358 -0.8379  0.3668  1.6274
 1594TIP3   OH226272   2.191   1.845   6.186 -0.0358 -0.2490  0.1566
 1594TIP3    H126273   2.241   1.911   6.137 -0.5344 -1.1164 -1.5959
 1594TIP3    H226274   2.110   1.836   6.136 -1.0345 -0.3814  1.7922
 1595TIP3   OH226275   5.846   3.921  15.979  0.0191 -0.0011 -0.2381
 1595TIP3    H126276   5.861   3.852  15.913  0.5589  0.6934 -0.8463
 1595TIP3    H226277   5.933   3.942  16.012 -0.2479 -0.2949  0.6515
 1596TIP3   OH226278   2.531   5.935  14.900 -0.0802  0.4327  0.0302
 1596TIP3    H126279   2.494   6.023  14.893 -0.8974  0.1423  0.6562
 1596TIP3    H226280   2.621   5.945  14.869 -0.3456  1.3677 -0.4669
 1597TIP3   OH226281   1.930   5.387   6.039  0.0815  0.0009  0.4530
 1597TIP3    H126282   1.885   5.394   6.124 -0.4923  0.2990  0.1275
 1597TIP3    H226283   2.022   5.373   6.062  0.0906  1.1226  1.1177
 1598TIP3   OH226284   0.255   2.867  11.894 -0.1882 -0.5764  0.2470
 1598TIP3    H126285   0.266   2.921  11.972  1.3240  1.1376 -1.1160
 1598TIP3    H226286   0.334   2.813  11.890 -0.3718 -0.8369  0.0232
 1599TIP3   OH226287   3.464   0.415   5.045  0.1752 -0.2966 -0.7189
 1599TIP3    H126288   3.463   0.408   4.949 -1.7918 -1.8238 -0.6301
 1599TIP3    H226289   3.394   0.477   5.065 -0.1766 -0.8352 -0.2468
 1600TIP3   OH226290   5.820   4.675   5.599  0.1067  0.0631  0.3123
 1600TIP3    H126291   5.783   4.617   5.532  1.3693 -0.6871  0.2429
 1600TIP3    H226292   5.882   4.729   5.552 -0.8652  1.2926  0.4322
 1601TIP3   OH226293   2.513   6.024  13.556  0.2080  0.2110  0.4893
 1601TIP3    H126294   2.545   6.114  13.559  0.7282  0.0290  0.3562
 1601TIP3    H226295   2.417   6.032  13.556  0.2550  0.7478  0.9331
 1602TIP3   OH226296   1.961   6.699   3.799 -0.3308 -0.0563  0.4236
 1602TIP3    H126297   1.923   6.623   3.843  0.4308 -0.1718  0.8941
 1602TIP3    H226298   1.924   6.697   3.711 -2.1473  0.3806  1.1634
 1603TIP3   OH226299   1.315   3.940  15.795  0.1519 -0.0702  0.0731
 1603TIP3    H126300   1.379   3.986  15.742  0.8898  0.1171  1.1099
 1603TIP3    H226301   1.354   3.854  15.812 -0.4001 -0.4003 -0.2868
 1604TIP3   OH226302   1.733   0.141  14.664 -0.1653  0.2003  0.2283
 1604TIP3    H126303   1.669   0.166  14.598 -1.3513 -0.4474  1.1156
 1604TIP3    H226304   1.802   0.207  14.657 -0.4164  0.3016 -1.4520
 1605TIP3   OH226305   4.959   6.529  15.970  0.1421  0.2058  0.5957
 1605TIP3    H126306   5.010   6.556  16.046 -0.1987  2.0712  0.1907
 1605TIP3    H226307   4.977   6.597  15.904 -0.6677 -0.6277 -0.5020
 1606TIP3   OH226308   4.404   5.136   4.477 -0.2303 -0.2253 -0.3667
 1606TIP3    H126309   4.313   5.120   4.452 -0.4079  0.7334 -0.3593
 1606TIP3    H226310   4.418   5.080   4.553 -0.4453 -1.2687 -1.0709
 1607TIP3   OH226311   3.370   3.639  11.882 -0.6158  0.1262 -0.2568
 1607TIP3    H126312   3.458   3.618  11.852 -0.7207 -1.1870  0.3173
 1607TIP3    H226313   3.380   3.718  11.935  0.0751  0.4851 -0.9175
 1608TIP3   OH226314   2.862   0.116   4.393 -0.5931 -0.0433  0.7850
 1608TIP3    H126315   2.832   0.164   4.316 -0.7648 -0.4837  0.5798
 1608TIP3    H226316   2.952   0.090   4.372  0.1152  1.6657  1.5784
 1609TIP3   OH226317   0.676   0.844  12.756 -0.1196  0.1447  0.3181
 1609TIP3    H126318   0.607   0.818  12.818  1.4207  0.6827  2.3243
 1609TIP3    H226319   0.646   0.927  12.719 -1.8727 -1.0489 -0.9922
 1610TIP3   OH226320   6.598   5.824   1.291 -0.6395  0.4253 -0.6554
 1610TIP3    H126321   6.546   5.804   1.213 -1.1087 -2.5940  0.3554
 1610TIP3    H226322   6.555   5.776   1.362  1.7793  0.2890  0.7877
 1611TIP3   OH226323   4.966   4.192  13.564 -0.4327 -0.3061 -0.0056
 1611TIP3    H126324   5.004   4.266  13.516  1.5054 -1.8516 -0.8762
 1611TIP3    H226325   4.984   4.116  13.509 -1.9007 -1.5383  1.1791
 1612TIP3   OH226326   0.684   4.007   1.248 -0.0533  0.7089  0.0987
 1612TIP3    H126327   0.596   3.971   1.242 -0.7528  2.3277  0.5059
 1612TIP3    H226328   0.674   4.086   1.301  1.7464  0.5760  0.6693
 1613TIP3   OH226329   1.849   4.425   3.776 -0.2991 -0.4062 -0.3714
 1613TIP3    H126330   1.893   4.497   3.730  1.1607 -0.3764  1.0144
 1613TIP3    H226331   1.889   4.346   3.739  1.1949 -0.3728  1.0901
 1614TIP3   OH226332   0.139   4.146  13.014 -0.2423 -0.4067 -0.6146
 1614TIP3    H126333   0.223   4.109  12.988 -0.2182 -1.9377  1.5383
 1614TIP3    H226334   0.158   4.237  13.034  0.9694 -0.7994  0.0675
 1615TIP3   OH226335   2.206   4.516   0.060 -0.0793  0.3025  0.3158
 1615TIP3    H126336   2.297   4.487   0.050  0.4390  0.8158  3.1211
 1615TIP3    H226337   2.213   4.602   0.100 -1.8231  0.2378  0.7692
 1616TIP3   OH226338   0.999   3.415   5.476  0.2380 -0.2466  0.3802
 1616TIP3    H126339   0.988   3.325   5.506  1.6820 -1.3316 -2.2508
 1616TIP3    H226340   1.089   3.437   5.500 -0.1442  0.5688  1.1136
 1617TIP3   OH226341   2.611   5.650   0.144 -0.0394 -0.4122 -0.3811
 1617TIP3    H126342   2.577   5.727   0.099  0.5847  0.1522  0.1061
 1617TIP3    H226343   2.706   5.663   0.145 -0.0137 -0.6680  0.6406
 1618TIP3   OH226344   4.901   6.428  12.933 -0.0315  0.0767  0.2217
 1618TIP3    H126345   4.982   6.421  12.983  0.3162  1.5442 -0.0966
 1618TIP3    H226346   4.882   6.522  12.932 -0.6373 -0.0456 -1.4136
 1619TIP3   OH226347   6.740   1.728  11.258  0.6132 -0.2014 -0.2646
 1619TIP3    H126348   6.740   1.729  11.162 -0.1816 -1.5931 -0.2900
 1619TIP3    H226349   6.796   1.655  11.281 -0.0394 -0.5237  0.3095
 1620TIP3   OH226350   6.060   1.425  16.964  0.1848 -0.0012 -0.0076
 1620TIP3    H126351   6.065   1.438  17.059 -0.7252 -0.0541  0.0511
 1620TIP3    H226352   6.113   1.347  16.947  0.0015 -0.2372  0.5105
 1621TIP3   OH226353   5.143   6.631   5.363 -0.2065  0.0197  0.2855
 1621TIP3    H126354   5.206   6.572   5.403  2.1411  2.1146 -0.1800
 1621TIP3    H226355   5.121   6.590   5.279  0.1152 -0.9994  0.7021
 1622TIP3   OH226356   3.364   2.361   2.771 -0.4920 -0.6322  0.1147
 1622TIP3    H126357   3.392   2.301   2.702 -2.5206  0.6566 -1.9127
 1622TIP3    H226358   3.445   2.386   2.815  1.3163  0.9652 -3.8911
 1623TIP3   OH226359   0.371   5.466  11.720 -0.1265  0.3809  0.1803
 1623TIP3    H126360   0.305   5.475  11.651 -0.4445 -0.6403  0.3394
 1623TIP3    H226361   0.341   5.392  11.772  0.5899  0.5797  0.8863
 1624TIP3   OH226362   4.455   3.465  12.517 -0.2632 -0.3199  0.0881
 1624TIP3    H126363   4.415   3.463  12.429  0.4294  0.5400 -0.2475
 1624TIP3    H226364   4.458   3.557  12.540  1.0347 -0.4163  0.3362
 1625TIP3   OH226365   5.210   0.437  12.050 -0.2132 -0.2297 -0.3338
 1625TIP3    H126366   5.166   0.522  12.048  1.9787  1.0166  1.8730
 1625TIP3    H226367   5.189   0.401  12.136  0.1489 -1.2260 -0.6547
 1626TIP3   OH226368   0.679   1.436   3.328 -0.1484 -0.0654  0.1699
 1626TIP3    H126369   0.628   1.425   3.408 -0.4632  0.3168  0.0247
 1626TIP3    H226370   0.728   1.354   3.319 -0.8545 -0.4967  0.2286
 1627TIP3   OH226371   0.444   3.628  11.408  0.3843  0.1751 -0.1979
 1627TIP3    H126372   0.477   3.670  11.328 -0.6070 -0.5788 -1.0093
 1627TIP3    H226373   0.489   3.674  11.479  2.4059 -0.1353 -1.2391
 1628TIP3   OH226374   6.428   4.264   6.803 -0.0643 -0.4723 -0.2025
 1628TIP3    H126375   6.387   4.300   6.724 -1.3866 -1.7157 -0.0995
 1628TIP3    H226376   6.457   4.341   6.851  0.7964  0.3094 -1.9079
 1629TIP3   OH226377   3.199   5.665   5.272 -0.4456 -0.1424  0.7832
 1629TIP3    H126378   3.168   5.591   5.324  0.8354 -1.3127 -0.0832
 1629TIP3    H226379   3.294   5.657   5.271 -0.3729  0.5833 -0.6726
 1630TIP3   OH226380   5.947   0.805   4.917  0.0730 -0.0155  0.0912
 1630TIP3    H126381   5.907   0.797   4.830  0.4152  1.9925 -0.2683
 1630TIP3    H226382   6.002   0.727   4.925 -1.7735 -1.4082 -0.5281
 1631TIP3   OH226383   1.944   3.859   1.264  0.3028  0.2051  0.0051
 1631TIP3    H126384   2.014   3.918   1.292 -0.4404  2.4042 -2.4911
 1631TIP3    H226385   1.990   3.789   1.218  1.0378  0.1610  0.7807
 1632TIP3   OH226386   3.599   4.573   0.751 -0.3635 -0.0235  0.4178
 1632TIP3    H126387   3.592   4.503   0.816  0.6226  0.6485  1.2713
 1632TIP3    H226388   3.676   4.623   0.778 -0.4348  0.7641 -0.7953
 1633TIP3   OH226389   5.862   0.937  15.370  0.6665 -0.1234 -0.6802
 1633TIP3    H126390   5.784   0.990  15.388  0.7651  0.3043 -1.4768
 1633TIP3    H226391   5.838   0.884  15.294  1.7134  1.2187 -1.9669
 1634TIP3   OH226392   6.162   5.520  16.812  0.0735  0.9759 -0.2202
 1634TIP3    H126393   6.076   5.547  16.777 -0.3699  0.9290  0.8362
 1634TIP3    H226394   6.141   5.463  16.886  1.0180  1.1491  0.1782
 1635TIP3   OH226395   0.982   6.009  16.505 -0.3675  0.1174  0.5610
 1635TIP3    H126396   0.972   5.978  16.415 -0.4216  1.0682  0.2355
 1635TIP3    H226397   1.072   5.987  16.528 -0.5868 -0.8244  0.5516
 1636TIP3   OH226398   3.787   6.814  15.132 -0.0314 -0.4015 -0.2342
 1636TIP3    H126399   3.828   6.729  15.114  0.4391  0.1543 -1.8143
 1636TIP3    H226400   3.860   6.872  15.152 -0.3371 -0.2844  0.5857
 1637TIP3   OH226401   4.035   0.192   2.052 -0.2415  0.1956 -0.8192
 1637TIP3    H126402   4.019   0.213   2.144 -0.0248 -0.5768 -0.6041
 1637TIP3    H226403   4.129   0.173   2.047 -0.5816 -1.5120 -0.8485
 1638TIP3   OH226404   6.460   1.775   4.598 -0.2269  0.5574  0.2717
 1638TIP3    H126405   6.370   1.808   4.598 -0.3746  0.1584  0.1142
 1638TIP3    H226406   6.500   1.813   4.519 -1.5827 -2.8277 -2.1246
 1639TIP3   OH226407   0.355   0.480   3.933 -0.0185  0.1638  0.2592
 1639TIP3    H126408   0.349   0.404   3.875  0.4015 -1.3909  2.2020
 1639TIP3    H226409   0.302   0.547   3.891 -2.0821 -1.8800 -0.4693
 1640TIP3   OH226410   1.755   5.062   0.192 -0.6860 -0.1944  0.3768
 1640TIP3    H126411   1.709   5.027   0.268 -0.7371  0.9387  0.8657
 1640TIP3    H226412   1.716   5.017   0.117 -0.7703 -1.1670  1.0006
 1641TIP3   OH226413   2.355   6.348   1.488 -0.0819  0.2365  0.3068
 1641TIP3    H126414   2.299   6.399   1.429  0.1322 -0.1426 -0.2225
 1641TIP3    H226415   2.416   6.413   1.524 -0.1480  0.4499  0.0406
 1642TIP3   OH226416   4.797   3.822  12.592  0.2234  0.7399  0.1399
 1642TIP3    H126417   4.826   3.772  12.668 -2.5088 -2.8668 -1.0713
 1642TIP3    H226418   4.864   3.806  12.525  0.1268 -0.0557  0.2343
 1643TIP3   OH226419   0.367   5.337   6.287  0.1818  0.3887 -0.3897
 1643TIP3    H126420   0.326   5.424   6.284  0.7530  0.7836  2.0159
 1643TIP3    H226421   0.397   5.322   6.197 -2.6774  1.3081 -1.5524
 1644TIP3   OH226422   5.036   6.119   3.664 -0.4510  0.3647 -0.1035
 1644TIP3    H126423   5.030   6.208   3.629  0.4666  0.8357  0.9018
 1644TIP3    H226424   5.111   6.080   3.620 -2.5051 -0.9021 -2.6303
 1645TIP3   OH226425   1.964   2.429  15.098 -0.0959 -0.0337 -0.2572
 1645TIP3    H126426   2.006   2.515  15.091 -0.3645  0.0546 -0.8384
 1645TIP3    H226427   1.874   2.447  15.124 -0.3999 -0.0740 -1.2445
 1646TIP3   OH226428   5.893   1.054  14.342  0.4408  0.3734 -0.3621
 1646TIP3    H126429   5.971   1.103  14.369  0.9183 -1.0643  0.9808
 1646TIP3    H226430   5.928   0.978  14.295 -0.1403 -0.2506  0.1959
 1647TIP3   OH226431   6.056   2.446  16.034 -0.0918  0.0063  0.4870
 1647TIP3    H126432   6.117   2.429  16.106  0.2280  0.3367  0.2959
 1647TIP3    H226433   6.111   2.447  15.956 -0.4778 -0.6193  0.2083
 1648TIP3   OH226434   4.851   3.275   2.928 -0.3598  0.2816  0.0828
 1648TIP3    H126435   4.867   3.277   2.834  0.0319 -1.3618  0.0946
 1648TIP3    H226436   4.862   3.366   2.957  0.3263  0.6502 -1.3199
 1649TIP3   OH226437   3.626   3.333   1.570 -0.1235 -0.0185 -0.0912
 1649TIP3    H126438   3.599   3.380   1.649 -2.2943  0.6748 -1.1914
 1649TIP3    H226439   3.544   3.294   1.537  0.7209 -0.1625 -2.0719
 1650TIP3   OH226440   1.759   5.651   1.065  0.2686  0.0811 -0.2844
 1650TIP3    H126441   1.829   5.713   1.044  0.2263  1.1385  2.4445
 1650TIP3    H226442   1.681   5.706   1.073  0.0538 -0.4321  1.2343
 1651TIP3   OH226443   1.088   1.166   3.858  0.1378  0.5454  0.1642
 1651TIP3    H126444   1.127   1.094   3.908 -0.4002 -0.6522 -1.0863
 1651TIP3    H226445   1.111   1.245   3.906  1.1490 -0.4371  1.3117
 1652TIP3   OH226446   2.111   6.074   3.424 -0.6902 -0.0897 -0.3870
 1652TIP3    H126447   2.080   6.130   3.496  2.4844  0.4607  0.6251
 1652TIP3    H226448   2.127   5.989   3.465 -1.6781 -0.6189 -1.0847
 1653TIP3   OH226449   5.112   4.704  13.285 -0.5743 -0.2295 -0.8442
 1653TIP3    H126450   5.061   4.633  13.246 -1.5353 -1.9320  3.3211
 1653TIP3    H226451   5.183   4.660  13.332 -0.3591  1.6506  0.6441
 1654TIP3   OH226452   0.572   2.328  17.153  0.0187 -0.1450  0.1829
 1654TIP3    H126453   0.601   2.407  17.199 -1.8722  0.6941 -0.0291
 1654TIP3    H226454   0.478   2.326  17.166 -0.2822 -1.0199 -1.8896
 1655TIP3   OH226455   1.180   4.612  15.488 -0.6245 -0.0439 -0.1195
 1655TIP3    H126456   1.111   4.565  15.443  0.5100 -1.1856 -0.7120
 1655TIP3    H226457   1.258   4.597  15.435  0.3248  0.2501  1.1456
 1656TIP3   OH226458   1.591   6.812   1.657  0.2578  0.0532 -0.8049
 1656TIP3    H126459   1.557   6.722   1.655 -2.4773  1.0268 -0.6563
 1656TIP3    H226460   1.671   6.807   1.709 -0.0011 -2.2439 -0.5885
 1657TIP3   OH226461   1.382   3.336  12.046 -0.2737 -0.3525 -0.3563
 1657TIP3    H126462   1.371   3.245  12.019  0.4126  0.1217 -2.2606
 1657TIP3    H226463   1.331   3.386  11.982  1.3577  0.7786 -0.8007
 1658TIP3   OH226464   3.843   1.645  11.238  0.1547 -0.0474  0.1271
 1658TIP3    H126465   3.877   1.556  11.228  0.4519  0.0648  0.1411
 1658TIP3    H226466   3.821   1.672  11.149 -0.8989 -0.5119  0.2310
 1659TIP3   OH226467   1.395   2.006   6.401 -0.3856 -0.1307  0.3989
 1659TIP3    H126468   1.400   2.032   6.309 -1.3690  1.7377  0.8583
 1659TIP3    H226469   1.480   2.031   6.438  0.2709 -1.5157 -0.1436
 1660TIP3   OH226470   2.985   3.021  15.116  0.0607  0.0920  0.3036
 1660TIP3    H126471   2.962   2.976  15.035  2.0497 -1.3697  0.5176
 1660TIP3    H226472   3.040   3.094  15.088 -0.9158  0.7913  0.1846
 1661TIP3   OH226473   4.972   5.808   2.129  0.3514 -0.3867  0.2700
 1661TIP3    H126474   4.981   5.782   2.038 -0.3940 -2.1199  0.6833
 1661TIP3    H226475   5.015   5.894   2.134 -1.2575  0.5959 -2.1028
 1662TIP3   OH226476   4.127   6.669  13.733  0.1679  0.3616  0.5870
 1662TIP3    H126477   4.176   6.741  13.693  1.1529 -0.1184  0.9293
 1662TIP3    H226478   4.191   6.621  13.785 -1.2470  1.4132  3.4149
 1663TIP3   OH226479   1.784   2.064   2.417 -0.5758  0.4298 -0.3613
 1663TIP3    H126480   1.755   2.017   2.496 -0.7839  1.6117  0.2698
 1663TIP3    H226481   1.767   2.156   2.436  0.5866  0.8448 -1.2811
 1664TIP3   OH226482   4.435   2.784   3.240 -0.3902  0.1322  0.5071
 1664TIP3    H126483   4.361   2.749   3.191 -1.6837  0.5981  2.0856
 1664TIP3    H226484   4.395   2.838   3.309  1.4191  0.5938  1.2264
 1665TIP3   OH226485   0.657   4.028  16.656 -0.4326 -0.2104  0.1661
 1665TIP3    H126486   0.593   4.078  16.605 -1.6104 -1.7686  0.0656
 1665TIP3    H226487   0.730   4.015  16.596 -1.1874 -0.7635 -0.6519
 1666TIP3   OH226488   6.736   5.961  14.231  0.3462 -0.1021 -0.1202
 1666TIP3    H126489   6.769   5.873  14.209 -0.4062 -0.6449  0.8946
 1666TIP3    H226490   6.770   5.979  14.318 -0.5137  0.1079  0.1751
 1667TIP3   OH226491   6.509   6.356  12.744  0.1871  0.4551 -0.5109
 1667TIP3    H126492   6.432   6.356  12.800  0.3800 -1.6510 -0.2096
 1667TIP3    H226493   6.583   6.362  12.804  0.3907 -1.6885 -0.5208
 1668TIP3   OH226494   5.860   4.262   4.756 -0.1345 -0.6862  0.0772
 1668TIP3    H126495   5.798   4.223   4.694  0.7167 -0.1640 -1.1208
 1668TIP3    H226496   5.846   4.357   4.747 -1.0821 -0.6325  1.8221
 1669TIP3   OH226497   2.165   2.381   1.827  0.3077  0.0324 -0.5542
 1669TIP3    H126498   2.134   2.377   1.736  2.0867  2.2953 -1.2811
 1669TIP3    H226499   2.252   2.421   1.822  0.3323  0.4327  2.1796
 1670TIP3   OH226500   2.051   3.587  17.282  0.0914  0.6675 -0.1872
 1670TIP3    H126501   1.960   3.605  17.306 -0.1474  0.7986 -1.1781
 1670TIP3    H226502   2.048   3.503  17.235  0.5128  0.5674 -0.0405
 1671TIP3   OH226503   6.316   0.387   1.395  0.2695  0.4088  0.2908
 1671TIP3    H126504   6.272   0.463   1.434 -0.4664 -0.2048  0.6553
 1671TIP3    H226505   6.380   0.359   1.461 -1.1176 -0.7557  1.1482
 1672TIP3   OH226506   2.991   1.130   3.757  0.4568 -0.3050  0.3001
 1672TIP3    H126507   2.998   1.099   3.667 -0.0910 -1.5637  0.6885
 1672TIP3    H226508   3.021   1.221   3.753 -0.9445  0.0983 -1.4177
 1673TIP3   OH226509   1.446   6.400  12.364 -0.0142 -0.1357 -0.0280
 1673TIP3    H126510   1.449   6.308  12.390  0.1852 -0.3731 -0.8928
 1673TIP3    H226511   1.353   6.418  12.349 -0.1423  0.0221  0.8896
 1674TIP3   OH226512   4.593   6.598   0.837 -0.7484 -0.0827  0.6856
 1674TIP3    H126513   4.564   6.652   0.911 -2.3623 -0.9958  0.7475
 1674TIP3    H226514   4.530   6.619   0.767 -1.2869 -1.7328  0.6589
 1675TIP3   OH226515   2.138   5.844  14.102  0.3479  0.4937  0.1775
 1675TIP3    H126516   2.090   5.918  14.066  1.1358  0.2905 -1.3232
 1675TIP3    H226517   2.182   5.804  14.026  2.2147  0.1957  1.3737
 1676TIP3   OH226518   3.332   5.342   0.450 -0.1654 -0.4718  0.0910
 1676TIP3    H126519   3.359   5.264   0.401 -0.4718 -0.5319  0.0137
 1676TIP3    H226520   3.252   5.371   0.406  0.4378  0.4159 -0.4407
 1677TIP3   OH226521   4.679   4.980   2.981 -0.1951 -0.0322 -0.3814
 1677TIP3    H126522   4.682   4.946   2.892 -2.5553  0.3869 -0.6571
 1677TIP3    H226523   4.603   4.937   3.021 -1.5517  2.7046  0.1357
 1678TIP3   OH226524   5.850   3.024  13.479 -0.4935  0.3310 -0.0872
 1678TIP3    H126525   5.918   2.957  13.484 -1.5828 -0.7028  1.3499
 1678TIP3    H226526   5.803   3.006  13.398 -1.8895 -1.7787  1.1400
 1679TIP3   OH226527   6.621   2.954   2.256  0.1568  0.2015 -0.0239
 1679TIP3    H126528   6.564   2.903   2.198  0.3335  1.0806 -1.0003
 1679TIP3    H226529   6.671   3.010   2.196  0.6606  0.8126  0.9559
 1680TIP3   OH226530   3.162   6.702   2.327  0.0814  0.0010 -0.1017
 1680TIP3    H126531   3.228   6.648   2.282 -0.7833 -1.3526  0.2304
 1680TIP3    H226532   3.140   6.653   2.406 -0.3533  1.0948  0.4724
 1681TIP3   OH226533   5.907   1.361  14.551  0.0781 -0.2870  0.4966
 1681TIP3    H126534   5.945   1.355  14.464 -0.0388 -0.5460  0.4638
 1681TIP3    H226535   5.817   1.330  14.541  0.4121 -1.4060  0.9337
 1682TIP3   OH226536   2.164   6.537   3.987 -0.4481 -0.2210 -0.2808
 1682TIP3    H126537   2.219   6.476   4.036  0.9564  0.6651 -0.7220
 1682TIP3    H226538   2.216   6.559   3.909 -1.7342  0.0755 -1.0751
 1683TIP3   OH226539   5.568   0.923   5.661 -0.9300 -0.0190  0.3065
 1683TIP3    H126540   5.524   0.937   5.577 -2.1711  0.9993  1.1126
 1683TIP3    H226541   5.657   0.957   5.647 -0.5679 -1.4928 -1.1316
 1684TIP3   OH226542   2.647   0.820  11.503  1.2008 -0.5745 -0.3651
 1684TIP3    H126543   2.630   0.913  11.514  1.5469 -0.6198  0.6145
 1684TIP3    H226544   2.597   0.795  11.425 -0.8615 -0.0828  0.7665
 1685TIP3   OH226545   2.851   3.457   2.492  0.1854  0.2080  0.2448
 1685TIP3    H126546   2.885   3.538   2.531 -1.0296  0.5505  0.6122
 1685TIP3    H226547   2.777   3.486   2.439 -0.8511 -0.7805  1.1322
 1686TIP3   OH226548   2.722   4.286  15.649 -0.0887  0.0578 -0.2299
 1686TIP3    H126549   2.720   4.310  15.742 -0.6541 -2.3865  0.4155
 1686TIP3    H226550   2.693   4.366  15.604  3.7709  2.5312  1.3759
 1687TIP3   OH226551   3.618   2.334   5.744  0.3680 -0.4076  0.4596
 1687TIP3    H126552   3.638   2.255   5.794  1.8406 -0.6620 -0.5067
 1687TIP3    H226553   3.692   2.344   5.683 -2.7774 -1.8441 -3.8442
 1688TIP3   OH226554   6.702   6.225   1.686 -0.1604  0.5031  0.0027
 1688TIP3    H126555   6.747   6.184   1.612 -1.3220  0.0187 -0.4527
 1688TIP3    H226556   6.758   6.206   1.761 -0.0755 -0.9314 -0.3929
 1689TIP3   OH226557   6.391   1.075   1.946  0.4878  0.1123 -0.1686
 1689TIP3    H126558   6.358   1.045   1.861  0.8216 -3.5121  0.9006
 1689TIP3    H226559   6.313   1.080   2.002  0.3358  2.0416 -0.5130
 1690TIP3   OH226560   3.626   1.861   4.432  0.2682 -0.0817  0.3661
 1690TIP3    H126561   3.642   1.819   4.516  3.5026 -0.8704 -0.5963
 1690TIP3    H226562   3.673   1.807   4.369 -0.8450  1.3678 -1.7571
 1691TIP3   OH226563   3.125   4.165  14.246  0.3422  0.0016  0.0705
 1691TIP3    H126564   3.095   4.246  14.205 -0.7941 -0.1925  0.5159
 1691TIP3    H226565   3.130   4.102  14.173 -1.1104 -0.1836  0.1275
 1692TIP3   OH226566   1.720   3.072   2.187  0.8259 -0.2173  0.0693
 1692TIP3    H126567   1.696   3.147   2.240  2.7265  1.4093 -1.2909
 1692TIP3    H226568   1.792   3.030   2.235 -0.1197 -1.0972  0.7424
 1693TIP3   OH226569   2.083   6.193  15.911  0.0325  0.6785 -0.0916
 1693TIP3    H126570   2.036   6.119  15.871  1.5680 -1.1000  1.2680
 1693TIP3    H226571   2.018   6.263  15.917 -1.3284 -0.3929 -1.8840
 1694TIP3   OH226572   6.786   1.567  12.062 -0.1832  0.5158 -0.4433
 1694TIP3    H126573   6.799   1.569  12.157  0.2831 -0.1599 -0.4949
 1694TIP3    H226574   6.867   1.602  12.025 -0.3591  0.7670 -0.5940
 1695TIP3   OH226575   0.769   1.519   2.947  0.1288 -0.1951  0.3553
 1695TIP3    H126576   0.857   1.487   2.925  0.2160  1.4187 -1.8663
 1695TIP3    H226577   0.782   1.611   2.971 -0.8356 -0.1966  0.9131
 1696TIP3   OH226578   1.601   0.019  12.535  0.1849 -0.1689 -0.2389
 1696TIP3    H126579   1.552   0.040  12.614 -0.4551 -0.6114 -0.5158
 1696TIP3    H226580   1.546  -0.043  12.488 -0.1419  1.2419 -1.7644
 1697TIP3   OH226581   2.867   5.010  13.672  0.4332  0.0092 -0.6792
 1697TIP3    H126582   2.919   5.010  13.752  0.5509 -0.4153 -0.7581
 1697TIP3    H226583   2.776   5.014  13.703  0.5025  0.5270 -0.5406
 1698TIP3   OH226584   0.334   0.444  14.520 -0.6258  0.4358  0.3052
 1698TIP3    H126585   0.324   0.375  14.585 -0.8222  0.8175  0.6806
 1698TIP3    H226586   0.341   0.525  14.571 -3.3500  1.0382 -0.2311
 1699TIP3   OH226587   4.107   0.785  16.660  0.0496  0.5483 -0.7304
 1699TIP3    H126588   4.165   0.821  16.728 -1.0303 -0.4576  0.7498
 1699TIP3    H226589   4.032   0.845  16.658 -0.1523  0.2955 -0.6925
 1700TIP3   OH226590   0.905   1.177  17.287  0.0396  0.2123 -0.8405
 1700TIP3    H126591   0.822   1.225  17.282  1.4965  2.7551 -1.4609
 1700TIP3    H226592   0.881   1.091  17.322 -2.7255  1.2309 -0.1078
 1701TIP3   OH226593   5.177   6.288   1.040 -0.1587 -0.0866  0.4288
 1701TIP3    H126594   5.183   6.384   1.036 -0.8141 -0.0365  0.6358
 1701TIP3    H226595   5.094   6.268   0.997 -0.9047 -0.4481  2.0138
 1702TIP3   OH226596   5.975   3.594  15.322  0.3588 -0.9848  0.2764
 1702TIP3    H126597   5.936   3.631  15.402  0.8888 -1.1804  0.6236
 1702TIP3    H226598   5.912   3.528  15.293  0.1353 -0.8710  0.4994
 1703TIP3   OH226599   0.874   5.172  17.093  0.3891 -0.1032  0.0476
 1703TIP3    H126600   0.889   5.121  17.013  0.7313  1.0579 -0.6357
 1703TIP3    H226601   0.955   5.221  17.106  0.0542  0.2890  0.6918
 1704TIP3   OH226602   4.811   3.255  15.984 -0.0490 -0.2718 -0.2068
 1704TIP3    H126603   4.867   3.308  15.928 -0.1711  0.5136  0.4029
 1704TIP3    H226604   4.728   3.303  15.988 -1.0749 -1.8182 -1.7507
 1705TIP3   OH226605   0.774   3.791   0.871 -0.1166  0.0887  0.0097
 1705TIP3    H126606   0.779   3.787   0.776 -0.1173  1.2700 -0.0579
 1705TIP3    H226607   0.736   3.708   0.898 -2.3600  0.6833 -1.1949
 1706TIP3   OH226608   6.015   5.545   4.319 -0.1489  0.7798  0.0090
 1706TIP3    H126609   5.998   5.519   4.409  1.2990  0.9878  0.3640
 1706TIP3    H226610   6.014   5.641   4.321  2.6157  0.8422  0.3982
 1707TIP3   OH226611   2.723   3.850   2.166 -0.3010 -0.6254  0.2862
 1707TIP3    H126612   2.730   3.794   2.243 -0.7194 -1.1468 -0.0536
 1707TIP3    H226613   2.630   3.846   2.142 -0.1425 -0.5918 -0.3331
 1708TIP3   OH226614   5.945   5.994  14.390  0.6255 -0.1215  0.3807
 1708TIP3    H126615   6.036   6.004  14.419  0.1781  2.1428  1.0911
 1708TIP3    H226616   5.952   5.983  14.295  1.5968  1.1651  0.2787
 1709TIP3   OH226617   5.530   0.628   2.928 -0.0474 -0.2501 -0.1782
 1709TIP3    H126618   5.437   0.648   2.925 -0.3507 -1.6457 -0.5022
 1709TIP3    H226619   5.543   0.563   2.859  0.9662 -0.8330  0.5376
 1710TIP3   OH226620   4.480   4.823  13.431  0.0764 -0.0995 -0.5409
 1710TIP3    H126621   4.496   4.917  13.433 -1.7195  0.2087 -0.2418
 1710TIP3    H226622   4.450   4.801  13.519  0.2847 -0.9213 -0.6655
 1711TIP3   OH226623   2.752   4.589  13.611 -0.3145  0.2958  0.0409
 1711TIP3    H126624   2.795   4.613  13.693 -0.8359 -1.0030  0.7294
 1711TIP3    H226625   2.822   4.584  13.547  0.0281  1.8262  0.2998
 1712TIP3   OH226626   2.075   1.240  14.456 -0.5103 -0.1102  0.4560
 1712TIP3    H126627   2.127   1.190  14.519 -1.1774 -1.4905 -0.0664
 1712TIP3    H226628   2.003   1.276  14.508 -1.0373 -1.2142  0.5196
 1713TIP3   OH226629   3.195   3.327   6.343 -0.0818  0.0375 -0.7977
 1713TIP3    H126630   3.229   3.344   6.431  1.5471 -0.5230 -1.3055
 1713TIP3    H226631   3.272   3.302   6.292 -1.0929 -0.1257 -2.2628
 1714TIP3   OH226632   5.358   0.034  17.015  0.1590 -0.4721  0.6365
 1714TIP3    H126633   5.267   0.060  17.031 -0.5723 -2.3735 -0.3328
 1714TIP3    H226634   5.361   0.011  16.923  2.0996  1.3132  0.2095
 1715TIP3   OH226635   2.695   3.534  14.333 -0.2854  0.4087  0.0012
 1715TIP3    H126636   2.722   3.452  14.375 -2.7150 -0.2797  0.2624
 1715TIP3    H226637   2.713   3.601  14.399  1.7191  0.1127 -0.2115
 1716TIP3   OH226638   5.512   2.517  12.952 -0.3824 -0.7627  0.4224
 1716TIP3    H126639   5.570   2.583  12.913 -1.9257  0.0136 -0.5931
 1716TIP3    H226640   5.566   2.438  12.959  0.4145 -0.4312 -1.7236
 1717TIP3   OH226641   3.008   0.687  10.638 -0.4918 -0.1056 -0.5657
 1717TIP3    H126642   3.026   0.781  10.634  0.7276 -0.3006  0.2601
 1717TIP3    H226643   2.945   0.677  10.709 -0.4575  0.0606 -0.5134
 1718TIP3   OH226644   4.948   4.887  15.044 -0.3917 -0.0718 -0.0789
 1718TIP3    H126645   4.946   4.795  15.020  0.7298  0.1290 -0.9913
 1718TIP3    H226646   5.029   4.920  15.006  0.2497  0.8140  2.0178
 1719TIP3   OH226647   4.961   1.284  16.641  0.2459  0.8290 -0.2512
 1719TIP3    H126648   4.951   1.199  16.599 -2.3621  0.7000  0.5043
 1719TIP3    H226649   4.908   1.344  16.588 -2.0905  0.9014  2.0735
 1720TIP3   OH226650   2.379   2.061  13.955 -0.2226 -0.5788 -0.0074
 1720TIP3    H126651   2.318   2.078  13.883  0.0584  1.1514  0.1409
 1720TIP3    H226652   2.330   2.005  14.014 -1.0381 -0.6910 -0.7710
 1721TIP3   OH226653   6.440   3.730  10.950  0.3436  0.1707  0.5186
 1721TIP3    H126654   6.458   3.725  10.857  2.4326 -1.7654  0.9896
 1721TIP3    H226655   6.370   3.666  10.965  0.8963 -0.4359  0.4939
 1722TIP3   OH226656   4.190   3.596   0.009  0.0636 -0.0547 -0.6009
 1722TIP3    H126657   4.125   3.558  -0.050 -0.3699  0.0286 -0.1819
 1722TIP3    H226658   4.215   3.679  -0.033 -0.9006  0.4338 -0.2255
 1723TIP3   OH226659   1.159   6.541   6.508 -0.2685 -0.3152  0.5529
 1723TIP3    H126660   1.121   6.585   6.432 -0.2290 -1.2869 -0.0487
 1723TIP3    H226661   1.131   6.593   6.583  0.3831  1.1377 -0.1883
 1724TIP3   OH226662   3.621   5.414  12.027 -0.1753  0.2021 -0.4211
 1724TIP3    H126663   3.541   5.451  11.990 -0.5308 -0.3182 -0.1827
 1724TIP3    H226664   3.678   5.490  12.043 -1.7005  0.8833  1.9895
 1725TIP3   OH226665   2.195   6.700  17.025  0.1573 -0.4517 -0.1071
 1725TIP3    H126666   2.260   6.701  16.955  0.2455 -1.4585 -0.0372
 1725TIP3    H226667   2.111   6.705  16.980  0.2253 -0.7528 -0.2663
 1726TIP3   OH226668   2.586   3.280  16.176 -0.4674  0.3213 -0.5689
 1726TIP3    H126669   2.562   3.275  16.269 -0.4702 -2.3017 -0.6991
 1726TIP3    H226670   2.682   3.284  16.177 -0.3185 -2.7400 -0.5453
 1727TIP3   OH226671   4.121   5.289  13.177  0.3377 -0.3732  0.4291
 1727TIP3    H126672   4.106   5.195  13.184  0.0183 -0.5018 -1.7553
 1727TIP3    H226673   4.036   5.325  13.152  0.7186  0.3790  0.1907
 1728TIP3   OH226674   3.826   1.400  11.083  0.0655 -0.7304 -0.1726
 1728TIP3    H126675   3.820   1.475  11.024 -0.4273  0.1119  0.9427
 1728TIP3    H226676   3.865   1.330  11.029 -0.8114 -0.1162 -1.6252
 1729TIP3   OH226677   5.552   5.212  12.342 -0.0348  0.2164 -0.4569
 1729TIP3    H126678   5.587   5.237  12.257 -1.4539  0.9369 -0.8324
 1729TIP3    H226679   5.577   5.120  12.352  2.6140  0.8985 -0.3684
 1730TIP3   OH226680   6.764   4.444   5.032 -0.1778  0.2573  0.2354
 1730TIP3    H126681   6.729   4.464   4.945 -1.9443  2.0963  1.3223
 1730TIP3    H226682   6.858   4.462   5.025  0.0047 -1.3177 -1.7574
 1731TIP3   OH226683   5.784   1.395  16.860  0.6165  0.4383  0.1317
 1731TIP3    H126684   5.855   1.439  16.906 -0.0656 -0.9090  2.5492
 1731TIP3    H226685   5.713   1.459  16.858  0.8603  0.7161  0.3928
 1732TIP3   OH226686   5.630   6.609   2.509  0.3207 -0.8214 -0.1975
 1732TIP3    H126687   5.680   6.647   2.581 -0.1778  0.1997 -0.3921
 1732TIP3    H226688   5.640   6.671   2.437 -3.0458  0.5511  0.4198
 1733TIP3   OH226689   4.264   5.691  16.560  0.2395 -0.3249  0.2516
 1733TIP3    H126690   4.271   5.621  16.495 -0.0369 -0.0123 -0.1212
 1733TIP3    H226691   4.335   5.752  16.537 -1.0065  0.7310 -0.9317
 1734TIP3   OH226692   1.523   3.995   3.122 -0.6281  0.0554  0.0742
 1734TIP3    H126693   1.444   4.033   3.161  0.9957  0.7661  2.8456
 1734TIP3    H226694   1.554   4.062   3.061 -2.0327 -0.1366 -0.8616
 1735TIP3   OH226695   4.880   5.207   1.965 -0.0272  0.1058 -0.5349
 1735TIP3    H126696   4.848   5.135   1.911  1.1235 -1.3799  0.7382
 1735TIP3    H226697   4.969   5.223   1.933  0.4531 -0.4084  0.5214
 1736TIP3   OH226698   3.512   0.984   2.280 -0.3715 -0.0935 -0.1387
 1736TIP3    H126699   3.592   0.987   2.227 -0.2447  0.9431  0.1036
 1736TIP3    H226700   3.443   1.014   2.221 -0.1538  1.5220  0.4097
 1737TIP3   OH226701   5.347   2.164  16.233  0.2279  0.0629 -0.0918
 1737TIP3    H126702   5.362   2.094  16.296  1.8820  0.3594 -0.1526
 1737TIP3    H226703   5.309   2.236  16.284  1.3344  0.2134  0.5137
 1738TIP3   OH226704   3.934   4.947  11.337 -0.3822 -0.2289 -0.2446
 1738TIP3    H126705   3.919   4.957  11.243  0.8537 -0.9886 -0.5395
 1738TIP3    H226706   3.855   4.982  11.379 -2.3200 -2.7553 -1.6597
 1739TIP3   OH226707   1.565   0.991   3.622 -0.5789  0.7764 -0.1893
 1739TIP3    H126708   1.486   0.938   3.613 -0.0151 -0.3870  1.4771
 1739TIP3    H226709   1.538   1.079   3.597 -1.8181 -0.0514 -1.8942
 1740TIP3   OH226710   5.654   0.648  15.482 -0.7988 -0.1035  0.2126
 1740TIP3    H126711   5.617   0.716  15.426  0.6689  1.2014  0.7956
 1740TIP3    H226712   5.611   0.662  15.567 -1.4064 -0.6849  0.0004
 1741TIP3   OH226713   6.646   3.992  14.920  0.5527  0.1910  1.0227
 1741TIP3    H126714   6.578   3.968  14.983  0.5527 -1.4673  0.4118
 1741TIP3    H226715   6.649   3.919  14.859  1.9790  0.8528  0.2763
 1742TIP3   OH226716   3.883   3.875  13.191  0.1546 -0.1072  0.6828
 1742TIP3    H126717   3.858   3.815  13.121  1.7023  2.3727 -2.1128
 1742TIP3    H226718   3.959   3.835  13.232  0.9949 -0.2102 -0.9719
 1743TIP3   OH226719   3.515   0.544   1.257  0.2310  0.0166  0.7116
 1743TIP3    H126720   3.518   0.632   1.296 -2.7677 -0.0533  1.2719
 1743TIP3    H226721   3.442   0.548   1.195  1.2594 -1.5707 -0.6532
 1744TIP3   OH226722   1.692   0.296   0.746 -0.5022 -0.2713 -0.1046
 1744TIP3    H126723   1.687   0.384   0.708  2.2733 -0.7657 -1.7846
 1744TIP3    H226724   1.784   0.271   0.735 -1.0269 -2.9763  1.3027
 1745TIP3   OH226725   3.901   1.189   2.063 -0.3857 -0.0286 -0.2374
 1745TIP3    H126726   3.901   1.180   2.159 -1.4891  1.4148 -0.0865
 1745TIP3    H226727   3.830   1.132   2.034 -0.9812  0.6271 -0.0772
 1746TIP3   OH226728   4.356   3.155   2.254 -0.6633 -0.2590 -0.0063
 1746TIP3    H126729   4.353   3.163   2.349  0.5067 -2.9608  0.3163
 1746TIP3    H226730   4.449   3.152   2.233 -0.8707  1.9038 -1.4355
 1747TIP3   OH226731   6.622   4.791  11.214  0.4017  0.3985  0.1719
 1747TIP3    H126732   6.697   4.754  11.168  0.2517  1.6111 -1.0646
 1747TIP3    H226733   6.556   4.807  11.146 -0.6653  0.1199  1.1192
 1748TIP3   OH226734   1.290   1.633   6.121  0.5790  0.0680 -0.3105
 1748TIP3    H126735   1.383   1.614   6.134  0.8325 -0.4240 -2.6354
 1748TIP3    H226736   1.249   1.547   6.116  0.1190  0.2776 -0.0935
 1749TIP3   OH226737   0.134   4.714   0.839  0.5609 -0.0710 -0.0109
 1749TIP3    H126738   0.080   4.706   0.918 -0.2253 -1.4387 -0.6740
 1749TIP3    H226739   0.108   4.798   0.801 -0.0811 -0.0658  0.4316
 1750TIP3   OH226740   4.765   1.749   3.834  0.4378 -0.3805 -0.9814
 1750TIP3    H126741   4.755   1.797   3.916  0.5120 -2.5450  0.3117
 1750TIP3    H226742   4.680   1.708   3.820  1.2714 -2.2958 -0.5229
 1751TIP3   OH226743   2.179   0.560  14.446 -0.6377  0.5636  0.1548
 1751TIP3    H126744   2.087   0.561  14.418 -0.2099 -0.6987 -1.3592
 1751TIP3    H226745   2.216   0.639  14.409 -1.1635  1.1977  0.9650
 1752TIP3   OH226746   5.857   0.874  13.414  0.2065  0.3753  0.8555
 1752TIP3    H126747   5.794   0.935  13.452 -0.4019  1.5622 -1.9500
 1752TIP3    H226748   5.899   0.924  13.344  1.6548 -1.5742  0.3088
 1753TIP3   OH226749   0.140   1.226   3.812  0.0735  0.2183 -0.3665
 1753TIP3    H126750   0.061   1.176   3.790  0.0707 -0.3636  0.9150
 1753TIP3    H226751   0.109   1.298   3.866  0.5008 -0.4844  0.8398
 1754TIP3   OH226752   5.439   2.602   2.410  0.3531  0.0871 -0.1259
 1754TIP3    H126753   5.464   2.553   2.489  1.2443  0.8744  0.0907
 1754TIP3    H226754   5.409   2.687   2.443 -3.5512 -1.1170 -0.2948
 1755TIP3   OH226755   5.957   2.110  16.851  0.0567 -0.6793 -0.1534
 1755TIP3    H126756   5.943   2.020  16.822  0.3771 -1.1827  1.1987
 1755TIP3    H226757   6.034   2.139  16.803 -1.4415 -0.2968 -2.3771
 1756TIP3   OH226758   3.195   4.913   3.441  0.2410  0.2913 -0.0371
 1756TIP3    H126759   3.214   5.004   3.465  1.5042  0.2356 -0.7741
 1756TIP3    H226760   3.181   4.868   3.524  0.7280  0.9261  0.3920
 1757TIP3   OH226761   4.110   6.485  11.395 -0.1082  0.3314 -0.1291
 1757TIP3    H126762   4.160   6.461  11.473 -1.5245 -0.8607  0.4512
 1757TIP3    H226763   4.019   6.462  11.418 -0.4338 -0.7436 -2.4132
 1758TIP3   OH226764   3.015   4.691   1.737  1.0537  0.0559  0.4997
 1758TIP3    H126765   3.058   4.764   1.783 -0.9626  1.7172 -0.1644
 1758TIP3    H226766   2.985   4.633   1.807  2.6651 -0.1332  1.0389
 1759TIP3   OH226767   0.785   0.374   1.555 -0.2461  0.5703 -0.0324
 1759TIP3    H126768   0.692   0.361   1.533 -0.4749  1.6836  0.2652
 1759TIP3    H226769   0.831   0.312   1.499 -1.1814 -0.0552 -0.1252
 1760TIP3   OH226770   1.504   4.030  13.695 -0.4704 -0.2011  0.1484
 1760TIP3    H126771   1.561   3.962  13.730  1.2414  1.2866  0.3741
 1760TIP3    H226772   1.550   4.062  13.617 -1.2089  0.7435  0.0853
 1761TIP3   OH226773   4.302   2.000   2.015  0.0516 -0.7295  0.0626
 1761TIP3    H126774   4.380   2.001   2.070  0.9067 -2.6055 -1.0642
 1761TIP3    H226775   4.231   1.977   2.075  0.1105  2.2846  1.3481
 1762TIP3   OH226776   1.065   2.588   0.642 -0.3888 -0.2339  0.8482
 1762TIP3    H126777   1.148   2.559   0.605 -0.3722 -0.9007  1.3873
 1762TIP3    H226778   1.066   2.555   0.732 -1.0878  0.0446  0.9631
 1763TIP3   OH226779   3.350   2.359   6.110 -0.1519  0.2780  0.1550
 1763TIP3    H126780   3.266   2.320   6.083 -0.8056 -0.2528  2.7548
 1763TIP3    H226781   3.325   2.430   6.169  1.2253  0.5287  0.4483
 1764TIP3   OH226782   2.374   0.262  17.114  0.3237 -0.5204 -0.7033
 1764TIP3    H126783   2.329   0.342  17.088  1.5224  0.2956 -0.3107
 1764TIP3    H226784   2.461   0.270  17.075  0.9077 -1.0068  0.4948
 1765TIP3   OH226785   5.704   5.585   3.951  0.4685  0.4081  0.6260
 1765TIP3    H126786   5.715   5.495   3.923 -0.4947  1.4332 -3.3558
 1765TIP3    H226787   5.619   5.586   3.996 -0.1990 -0.4148 -0.5781
 1766TIP3   OH226788   1.482   0.847   5.222 -0.0130  0.4726 -0.4699
 1766TIP3    H126789   1.448   0.934   5.201  0.8252  0.6742 -1.0236
 1766TIP3    H226790   1.568   0.864   5.261  0.5522 -0.1284 -1.4112
 1767TIP3   OH226791   4.560   6.143  16.534  0.3703  0.2766  0.1187
 1767TIP3    H126792   4.632   6.094  16.493 -0.7223  0.0580 -1.5726
 1767TIP3    H226793   4.603   6.197  16.601  2.0338 -0.2554 -0.4915
 1768TIP3   OH226794   4.596   4.735  12.557  0.5392  0.0441  0.3438
 1768TIP3    H126795   4.586   4.830  12.557 -1.9308 -0.1837  1.0959
 1768TIP3    H226796   4.578   4.709  12.466  2.0173  0.3702 -0.0394
 1769TIP3   OH226797   5.732   4.032  16.702  0.4249 -0.3223  0.4547
 1769TIP3    H126798   5.789   4.009  16.776  1.1431  0.6491  0.2094
 1769TIP3    H226799   5.789   4.025  16.625  0.0333 -0.0073  0.1389
 1770TIP3   OH226800   1.431   2.594  13.171  0.3130 -0.0345 -0.7452
 1770TIP3    H126801   1.515   2.563  13.205  0.4106  0.3312 -0.6524
 1770TIP3    H226802   1.390   2.516  13.135 -0.0367 -0.5484  0.7099
 1771TIP3   OH226803   6.498   4.229   6.050 -0.3407 -0.2054  0.2076
 1771TIP3    H126804   6.509   4.289   6.124  2.3923 -3.5264  2.6325
 1771TIP3    H226805   6.422   4.176   6.074 -0.1183 -0.5643  0.1178
 1772TIP3   OH226806   0.269   2.896   3.955  0.4900 -0.2113  0.3477
 1772TIP3    H126807   0.331   2.875   4.025  0.4318 -2.4003 -0.2113
 1772TIP3    H226808   0.203   2.951   3.996  1.6570  0.3475  1.4753
 1773TIP3   OH226809   0.530   6.707   0.781  0.1508 -0.0429 -0.3005
 1773TIP3    H126810   0.581   6.770   0.731  0.4639 -0.9841 -1.1990
 1773TIP3    H226811   0.548   6.729   0.873  0.2996  1.1159 -0.6013
 1774TIP3   OH226812   5.118   1.661  16.574  0.3041 -0.1362  0.6010
 1774TIP3    H126813   5.174   1.710  16.635  1.5071 -2.0080  1.0223
 1774TIP3    H226814   5.104   1.577  16.617 -0.5904 -0.6943 -0.7632
 1775TIP3   OH226815   3.396   3.682  12.882 -0.3528  0.0210  0.2453
 1775TIP3    H126816   3.302   3.665  12.895  0.2335 -3.3256  0.5007
 1775TIP3    H226817   3.439   3.638  12.954  1.5667 -0.1435 -0.9646
 1776TIP3   OH226818   0.519   4.414  15.846  0.7021  0.2516 -0.1852
 1776TIP3    H126819   0.502   4.507  15.829 -3.4678 -0.3310  0.2358
 1776TIP3    H226820   0.432   4.376  15.855  2.3637 -3.6645 -0.0164
 1777TIP3   OH226821   4.248   0.054  10.397 -0.7514  0.8502  0.4233
 1777TIP3    H126822   4.153   0.065  10.399 -0.6927  1.7088 -0.6467
 1777TIP3    H226823   4.281   0.125  10.452 -0.7546  0.1768  1.2926
 1778TIP3   OH226824   3.473   5.271   3.551  0.3442 -0.7219  0.2295
 1778TIP3    H126825   3.505   5.360   3.540 -1.7113 -0.1618 -1.4266
 1778TIP3    H226826   3.545   5.215   3.523  0.1589  0.4981 -2.7517
 1779TIP3   OH226827   4.655   1.937   0.424 -0.0451  0.4036 -0.0118
 1779TIP3    H126828   4.571   1.971   0.455  0.1774 -0.5822  1.6880
 1779TIP3    H226829   4.632   1.874   0.356 -0.7381 -0.7456  1.2813
 1780TIP3   OH226830   2.176   5.602   3.272 -0.4134 -0.0202  0.3116
 1780TIP3    H126831   2.100   5.564   3.227  0.0684  0.0191 -0.5592
 1780TIP3    H226832   2.245   5.536   3.262 -0.3768 -0.1243  1.2348
 1781TIP3   OH226833   4.315   3.715   2.313 -0.5476  0.0700  0.2224
 1781TIP3    H126834   4.366   3.718   2.232 -2.9071 -1.0792 -1.3528
 1781TIP3    H226835   4.306   3.806   2.339  1.6618  0.3454  0.1473
 1782TIP3   OH226836   5.627   2.360  14.796  0.0718  0.4226 -0.1355
 1782TIP3    H126837   5.689   2.301  14.840  0.2238  0.7266  0.0611
 1782TIP3    H226838   5.572   2.393  14.867 -1.5277 -1.2803 -0.5416
 1783TIP3   OH226839   1.292   0.614   4.989 -0.6786 -0.0415 -0.1466
 1783TIP3    H126840   1.311   0.705   5.012  1.6570  0.0106 -2.0790
 1783TIP3    H226841   1.198   0.605   5.003 -0.6704  2.1598  1.7274
 1784TIP3   OH226842   3.008   1.385   3.948 -0.2414  0.2490  0.4022
 1784TIP3    H126843   3.071   1.446   3.988 -0.5147  1.1175 -0.4526
 1784TIP3    H226844   2.969   1.338   4.022  0.9852  0.1231  0.9792
 1785TIP3   OH226845   6.745   5.690  12.822 -0.3635  0.8802 -0.1119
 1785TIP3    H126846   6.702   5.653  12.745 -0.6733  2.3414 -0.6676
 1785TIP3    H226847   6.790   5.616  12.862  0.6601  0.2965 -2.2678
 1786TIP3   OH226848   6.171   1.987  15.906  0.4042  0.5232 -0.5522
 1786TIP3    H126849   6.173   1.906  15.956 -1.6042 -0.4514 -1.9815
 1786TIP3    H226850   6.255   1.990  15.861  1.1288  0.0602  0.7580
 1787TIP3   OH226851   1.051   3.868  14.828  0.0198  0.2570  0.4696
 1787TIP3    H126852   0.978   3.895  14.885 -0.9291 -1.3593  0.0443
 1787TIP3    H226853   1.088   3.950  14.797 -2.2176  1.1133 -0.0442
 1788TIP3   OH226854   1.335   3.539  14.500 -0.1333 -0.0255 -0.4802
 1788TIP3    H126855   1.320   3.447  14.521 -0.9564  0.1300 -0.3621
 1788TIP3    H226856   1.248   3.575  14.487 -0.0072  1.3409  2.0420
 1789TIP3   OH226857   5.973   1.623   4.641  0.0583  0.3320 -0.0109
 1789TIP3    H126858   5.913   1.552   4.664  1.3592 -1.0437 -0.7585
 1789TIP3    H226859   6.017   1.646   4.723  0.7759 -0.8407 -0.0513
 1790TIP3   OH226860   2.430   5.458  12.756 -0.6724 -0.5767 -0.3874
 1790TIP3    H126861   2.495   5.523  12.783 -1.9119  0.3450  0.4087
 1790TIP3    H226862   2.394   5.493  12.674 -2.0940  0.2907  0.5921
 1791TIP3   OH226863   6.804   0.305   0.810 -0.5051  0.2812  0.5459
 1791TIP3    H126864   6.863   0.231   0.799  1.6286  2.0403 -0.1649
 1791TIP3    H226865   6.815   0.357   0.730 -1.9758  1.3777  1.0234
 1792TIP3   OH226866   5.143   0.509   2.114  0.3939  0.0455  0.9008
 1792TIP3    H126867   5.084   0.434   2.109  1.2520 -0.5622 -0.5444
 1792TIP3    H226868   5.088   0.581   2.146 -1.3845 -0.2785 -1.2869
 1793TIP3   OH226869   3.531   3.413  14.282 -0.2834  0.0404 -0.2681
 1793TIP3    H126870   3.514   3.458  14.200  0.1994 -1.4153 -1.1850
 1793TIP3    H226871   3.625   3.395  14.281 -0.4736 -0.9844  0.0908
 1794TIP3   OH226872   6.531   3.463   4.953  0.1555 -0.4360 -0.2273
 1794TIP3    H126873   6.538   3.464   4.858 -0.8976  1.0187 -0.3034
 1794TIP3    H226874   6.446   3.503   4.972  0.1957 -1.0299  1.3124
 1795TIP3   OH226875   1.609   1.236  15.698 -0.3811 -0.3069 -0.0997
 1795TIP3    H126876   1.629   1.296  15.626  0.9627 -0.2316  0.3260
 1795TIP3    H226877   1.521   1.260  15.726  0.9718  2.9593  1.5249
 1796TIP3   OH226878   1.748   1.930   5.046  0.2179  0.1561 -0.1318
 1796TIP3    H126879   1.826   1.876   5.044 -0.4552 -0.7782 -1.6425
 1796TIP3    H226880   1.733   1.948   5.139  0.3855 -2.3308  0.3933
 1797TIP3   OH226881   5.517   5.153   3.265 -0.3510  0.2060  0.2788
 1797TIP3    H126882   5.518   5.071   3.315  1.5798  0.9145  1.4529
 1797TIP3    H226883   5.593   5.201   3.297 -0.5467  1.7791 -1.5523
 1798TIP3   OH226884   1.722   2.958  14.566 -0.3818  0.4701  0.8580
 1798TIP3    H126885   1.794   3.022  14.569 -1.1445  1.3230  1.0982
 1798TIP3    H226886   1.685   2.960  14.654  0.2904 -1.1268  1.2001
 1799TIP3   OH226887   4.191   1.158   1.325 -0.3080 -0.5008 -0.3247
 1799TIP3    H126888   4.193   1.222   1.254  0.7295 -0.8925 -0.6516
 1799TIP3    H226889   4.188   1.211   1.405 -1.8489 -0.0580 -0.6493
 1800TIP3   OH226890   3.131   3.681   1.623 -0.2594 -0.0389 -0.0231
 1800TIP3    H126891   3.085   3.598   1.612  1.9867 -1.3538  0.1470
 1800TIP3    H226892   3.148   3.687   1.717 -1.2582  1.1223  0.1050
 1801TIP3   OH226893   0.765   0.429   2.718 -0.1301  0.0024 -0.0261
 1801TIP3    H126894   0.814   0.397   2.794 -0.9000 -0.9914  0.0660
 1801TIP3    H226895   0.722   0.508   2.750  2.3193  1.5490 -0.4521
 1802TIP3   OH226896   1.083   4.042  15.307  0.2645 -0.2392 -0.2193
 1802TIP3    H126897   1.085   3.965  15.250 -1.4344 -0.2360 -0.3163
 1802TIP3    H226898   1.049   4.010  15.390 -0.1476  0.3468 -0.1591
 1803TIP3   OH226899   2.220   1.656   2.182 -0.0118  0.1696 -0.6602
 1803TIP3    H126900   2.260   1.704   2.255  0.0307  0.3552 -0.8025
 1803TIP3    H226901   2.127   1.650   2.204 -0.1388  0.9227 -0.9625
 1804TIP3   OH226902   2.672   6.438  12.554 -0.1757 -0.2942 -0.0189
 1804TIP3    H126903   2.768   6.441  12.559 -0.0814 -2.1008 -0.5042
 1804TIP3    H226904   2.646   6.530  12.549  1.5743  0.1917 -0.5597
 1805TIP3   OH226905   3.429   0.690  13.690  0.4468  0.1293  0.0616
 1805TIP3    H126906   3.473   0.634  13.754  1.4129  0.8949  0.0820
 1805TIP3    H226907   3.336   0.682  13.712  0.8403  1.3873  2.4294
 1806TIP3   OH226908   0.021   1.304   0.153 -0.1872  0.2388  0.3851
 1806TIP3    H126909   0.112   1.331   0.161 -0.4390  1.1703  0.1871
 1806TIP3    H226910   0.021   1.211   0.174  0.8073  0.2389  0.3891
 1807TIP3   OH226911   4.186   4.973  13.564  0.5955  0.0702 -0.3020
 1807TIP3    H126912   4.168   4.883  13.539  0.4830  0.3842 -1.3802
 1807TIP3    H226913   4.100   5.011  13.580  0.5223  0.4640 -1.5622
 1808TIP3   OH226914   5.826   4.622  10.361  0.2248  0.1278 -0.1589
 1808TIP3    H126915   5.768   4.651  10.291  0.8481 -1.8576 -1.5672
 1808TIP3    H226916   5.849   4.532  10.337  0.0604 -0.7669  2.8883
 1809TIP3   OH226917   2.089   3.713   1.077 -0.9494  0.5024 -0.0147
 1809TIP3    H126918   2.058   3.632   1.036  0.4663  0.2587 -0.6594
 1809TIP3    H226919   2.095   3.775   1.005  0.4951  0.3976  0.0010
 1810TIP3   OH226920   4.471   6.620  13.620 -0.0763 -0.0169 -0.4732
 1810TIP3    H126921   4.422   6.546  13.655 -0.8392 -0.2492 -2.0334
 1810TIP3    H226922   4.513   6.587  13.541 -1.3682  1.5168 -1.8259
 1811TIP3   OH226923   6.789   2.080   3.826  0.6592 -0.0128  0.2855
 1811TIP3    H126924   6.828   2.139   3.762  1.1401 -0.1519  0.4407
 1811TIP3    H226925   6.706   2.054   3.788  0.9307 -0.0773 -0.2722
 1812TIP3   OH226926   1.713   0.486   5.694  0.4304 -0.2074  0.2765
 1812TIP3    H126927   1.647   0.517   5.632 -0.0884 -1.2510  0.2899
 1812TIP3    H226928   1.679   0.511   5.780 -0.8187 -2.2273  0.4148
 1813TIP3   OH226929   2.210   6.066   5.476  0.1941  0.0590  0.2001
 1813TIP3    H126930   2.265   6.132   5.435 -0.7263  0.6651 -0.0690
 1813TIP3    H226931   2.234   5.984   5.432  1.9488  0.0475  1.1406
 1814TIP3   OH226932   0.973   6.785   5.362  0.0401 -0.0511 -0.2953
 1814TIP3    H126933   0.881   6.760   5.362  0.3857 -1.4108  0.5999
 1814TIP3    H226934   1.013   6.729   5.428  1.5719  0.2953 -0.8978
 1815TIP3   OH226935   2.722   4.245  17.009 -0.3329 -0.3919 -0.0690
 1815TIP3    H126936   2.727   4.340  17.024 -0.0850 -0.4215  0.0379
 1815TIP3    H226937   2.733   4.236  16.914 -1.7393 -0.2171 -0.2526
 1816TIP3   OH226938   5.590   2.173  15.152 -0.1510  0.6714  0.1398
 1816TIP3    H126939   5.602   2.102  15.089 -1.2883  1.0170 -0.4861
 1816TIP3    H226940   5.556   2.246  15.100 -1.4159  0.8620  1.1979
 1817TIP3   OH226941   2.866   0.400   5.018 -0.0963 -0.5449 -0.3855
 1817TIP3    H126942   2.845   0.452   5.095 -3.1023 -0.2620 -1.3343
 1817TIP3    H226943   2.912   0.460   4.960 -2.6942  0.8794 -1.0707
 1818TIP3   OH226944   2.439   0.761   5.338  0.5608 -0.2252 -0.0837
 1818TIP3    H126945   2.453   0.784   5.430 -2.0508  0.2893  0.2346
 1818TIP3    H226946   2.446   0.666   5.335 -1.7342 -0.4588  1.1367
 1819TIP3   OH226947   5.061   2.368   5.277  0.3259  0.4186 -0.2121
 1819TIP3    H126948   5.081   2.461   5.288  1.2977  0.0852  0.9140
 1819TIP3    H226949   5.085   2.328   5.360  2.0091 -1.1994 -1.4240
 1820TIP3   OH226950   1.456   3.137  16.366 -0.4811 -0.0889 -0.1346
 1820TIP3    H126951   1.508   3.105  16.292  2.0225 -0.2356  1.6277
 1820TIP3    H226952   1.496   3.221  16.388 -0.5077 -0.5323  1.7040
 1821TIP3   OH226953   0.809   1.206   3.284  0.1976  0.0800  0.0612
 1821TIP3    H126954   0.811   1.123   3.330  1.5155  0.2123  0.2629
 1821TIP3    H226955   0.748   1.193   3.211  1.0317 -1.3211 -0.3978
 1822TIP3   OH226956   5.386   3.816  15.603 -0.0718  0.6755 -0.2872
 1822TIP3    H126957   5.446   3.845  15.672 -0.8860 -0.2229  0.8105
 1822TIP3    H226958   5.325   3.889  15.592 -0.6052  0.3989  0.7283
 1823TIP3   OH226959   1.010   2.646   5.805 -0.0598 -0.3547 -0.1901
 1823TIP3    H126960   0.932   2.599   5.776  0.4923 -1.5115  0.1681
 1823TIP3    H226961   0.989   2.676   5.894 -0.4947  0.2663 -0.5034
 1824TIP3   OH226962   6.120   4.572  11.785 -0.1604 -0.0903 -0.6840
 1824TIP3    H126963   6.095   4.487  11.821  1.9743 -0.9196 -1.0466
 1824TIP3    H226964   6.181   4.608  11.849 -2.1313  1.8481  0.1630
 1825TIP3   OH226965   6.215   4.564  10.905 -0.4445 -0.2899  0.6628
 1825TIP3    H126966   6.298   4.516  10.902  0.1182  0.7259 -2.5727
 1825TIP3    H226967   6.158   4.518  10.843 -0.4278  2.1568 -1.2707
 1826TIP3   OH226968   6.099   2.512  11.732 -0.5098 -0.1205  0.4628
 1826TIP3    H126969   6.011   2.512  11.695 -1.0333 -1.6844  1.6883
 1826TIP3    H226970   6.153   2.474  11.663 -0.0525  4.3398 -1.8527
 1827TIP3   OH226971   6.666   2.238  17.054  0.3271  0.0072  0.0638
 1827TIP3    H126972   6.651   2.235  16.959  0.5357  0.0690  0.0264
 1827TIP3    H226973   6.610   2.308  17.085 -0.5446 -0.7073  0.1405
 1828TIP3   OH226974   0.034   1.494  15.419  0.1534  0.1166 -0.2651
 1828TIP3    H126975  -0.009   1.429  15.363 -2.0133  1.0707  0.2162
 1828TIP3    H226976   0.093   1.541  15.361  1.1645 -1.7520 -0.7829
 1829TIP3   OH226977   4.450   1.623   5.454 -0.2336  0.4749 -0.7313
 1829TIP3    H126978   4.358   1.646   5.461 -0.3101  0.8958 -2.8557
 1829TIP3    H226979   4.497   1.704   5.476 -0.3888  0.7236 -1.3283
 1830TIP3   OH226980   5.497   6.438  10.824  0.0080  0.3596  0.1132
 1830TIP3    H126981   5.522   6.348  10.803  1.9076  1.2219 -1.3993
 1830TIP3    H226982   5.402   6.440  10.811  0.0726 -1.2225 -0.6323
 1831TIP3   OH226983   0.489   1.582  10.831  0.5263 -0.2183 -0.1465
 1831TIP3    H126984   0.457   1.513  10.773  0.3606 -0.9808  0.8316
 1831TIP3    H226985   0.470   1.549  10.919  0.5895  1.0100  0.3308
 1832TIP3   OH226986   4.610   1.044   6.312  0.7032  0.0523 -0.3615
 1832TIP3    H126987   4.649   0.972   6.361  0.6875 -0.3333 -0.9109
 1832TIP3    H226988   4.629   1.122   6.364 -0.0412 -0.4576  0.6812
 1833TIP3   OH226989   1.674   4.401   4.762  0.0307 -0.4141  0.4881
 1833TIP3    H126990   1.684   4.494   4.779  1.6276 -0.5373  0.3042
 1833TIP3    H226991   1.685   4.392   4.668 -0.0878 -0.7908  0.5094
 1834TIP3   OH226992   5.024   0.638   6.089  0.3315  0.0461  0.2773
 1834TIP3    H126993   5.100   0.594   6.051  1.1728  0.7861  1.0853
 1834TIP3    H226994   4.958   0.636   6.019  1.3102 -0.0360 -0.6578
 1835TIP3   OH226995   1.338   4.013  12.348  0.3437  0.3441  0.1760
 1835TIP3    H126996   1.338   3.931  12.299 -0.0303  0.4757 -0.0490
 1835TIP3    H226997   1.392   4.072  12.295  0.4528  0.2998  0.2386
 1836TIP3   OH226998   0.595   0.121  14.239  0.0890  0.7671  0.4799
 1836TIP3    H126999   0.653   0.099  14.312  0.1074 -0.3183  0.1606
 1836TIP3    H227000   0.650   0.169  14.178  0.9720 -1.1539 -0.3040
 1837TIP3   OH227001   4.533   3.593  14.669  0.5271 -0.1018 -0.5821
 1837TIP3    H127002   4.606   3.550  14.624  0.3826  0.9134 -1.8432
 1837TIP3    H227003   4.482   3.633  14.598  1.3631  3.2051  0.5667
 1838TIP3   OH227004   2.930   5.420   1.442  0.0159  0.3237  0.0397
 1838TIP3    H127005   3.025   5.413   1.430 -0.0631  2.2178 -2.0760
 1838TIP3    H227006   2.915   5.511   1.466 -1.2492 -0.0495  0.7389
 1839TIP3   OH227007   3.528   6.292  15.958  0.1069 -0.0093  0.7563
 1839TIP3    H127008   3.598   6.309  15.894 -0.4396 -1.1748 -0.1723
 1839TIP3    H227009   3.497   6.379  15.982 -1.1057  0.4361 -2.1796
 1840TIP3   OH227010   4.770   5.618  13.073 -0.1282 -0.1819 -0.1144
 1840TIP3    H127011   4.836   5.612  13.142  0.9936 -2.3227 -1.3171
 1840TIP3    H227012   4.687   5.602  13.118  0.6067 -1.7777  0.7415
 1841TIP3   OH227013   6.403   6.744   3.849  0.0580 -0.1452  0.2387
 1841TIP3    H127014   6.384   6.748   3.755 -3.9844  0.7019  1.0044
 1841TIP3    H227015   6.379   6.655   3.875  0.1614 -0.0530  0.6611
 1842TIP3   OH227016   3.541   0.470   4.779  0.5525  0.0953 -0.1267
 1842TIP3    H127017   3.504   0.478   4.692  2.1173  1.1643 -0.7111
 1842TIP3    H227018   3.635   0.482   4.767  0.8288 -0.0887  1.6524
 1843TIP3   OH227019   2.500   2.357  12.896  0.2126  0.3295 -0.0592
 1843TIP3    H127020   2.464   2.320  12.815  1.6580 -0.2661 -0.4547
 1843TIP3    H227021   2.426   2.359  12.956 -0.5117 -0.7724 -0.8759
 1844TIP3   OH227022   3.880   4.933  15.810 -0.6842  0.1843  0.3995
 1844TIP3    H127023   3.875   5.010  15.867 -0.4548  0.1926  0.4091
 1844TIP3    H227024   3.796   4.889  15.821 -0.1829 -0.4717  1.6737
 1845TIP3   OH227025   0.323   4.825   1.304  0.8051 -0.2283  0.4105
 1845TIP3    H127026   0.321   4.763   1.377  1.4428 -0.3197  0.3538
 1845TIP3    H227027   0.307   4.772   1.226 -1.7106  0.1281  0.6272
 1846TIP3   OH227028   6.281   1.313   4.899 -0.7292  0.2374 -1.0143
 1846TIP3    H127029   6.222   1.328   4.825 -2.5569  0.4754  0.4574
 1846TIP3    H227030   6.278   1.395   4.948 -0.1032 -0.1850 -0.2611
 1847TIP3   OH227031   1.107   3.745   5.343 -0.0974  0.0611  0.0252
 1847TIP3    H127032   1.132   3.828   5.302 -1.4879  1.4730  1.9335
 1847TIP3    H227033   1.183   3.721   5.396 -0.0247  0.5568  0.1482
 1848TIP3   OH227034   3.972   1.316  13.374  0.7916  0.0978 -0.3762
 1848TIP3    H127035   3.944   1.269  13.452  1.7236 -0.1457 -0.1771
 1848TIP3    H227036   3.894   1.320  13.319  0.0498  0.5435  0.6928
 1849TIP3   OH227037   4.346   3.980  13.213 -0.4797 -0.2223  0.6427
 1849TIP3    H127038   4.351   4.035  13.134 -0.9480  1.8947  2.0627
 1849TIP3    H227039   4.437   3.973  13.242 -0.2620 -1.2954 -0.2639
 1850TIP3   OH227040   6.405   2.035  14.111 -0.1137 -0.8909  0.5463
 1850TIP3    H127041   6.489   1.993  14.094  0.4465 -0.1749  1.5541
 1850TIP3    H227042   6.344   1.989  14.053  1.0218 -1.1756 -0.4486
 1851TIP3   OH227043   3.536   6.590  14.248  0.7653  0.4352  0.4888
 1851TIP3    H127044   3.455   6.623  14.287 -1.3120 -3.0877 -0.6072
 1851TIP3    H227045   3.597   6.583  14.320 -0.4586  1.5173  1.6583
 1852TIP3   OH227046   5.399   2.788  11.393 -0.4637 -0.4682 -0.0542
 1852TIP3    H127047   5.466   2.838  11.347  0.7915  0.1116  2.2847
 1852TIP3    H227048   5.316   2.826  11.363  0.3536  0.6622 -0.9457
 1853TIP3   OH227049   6.508   6.449   0.411  0.0760  0.0732 -0.0269
 1853TIP3    H127050   6.424   6.456   0.366 -0.0233  1.6488  0.3826
 1853TIP3    H227051   6.512   6.357   0.439 -0.6515 -0.5003 -1.6710
 1854TIP3   OH227052   0.286   1.688   5.582 -0.2264  0.6270  0.0822
 1854TIP3    H127053   0.271   1.705   5.490  0.3040  0.2963 -0.0687
 1854TIP3    H227054   0.357   1.624   5.583 -0.9197 -0.1542  0.6849
 1855TIP3   OH227055   4.680   1.992  11.476  0.1017  0.1536  0.2057
 1855TIP3    H127056   4.677   2.053  11.550 -0.8863 -0.6575  0.8522
 1855TIP3    H227057   4.589   1.985  11.447  0.3015 -0.5315 -0.2670
 1856TIP3   OH227058   4.746   3.275  14.805  0.1833  0.2613  0.1619
 1856TIP3    H127059   4.809   3.315  14.745 -0.7760 -1.2663 -1.9117
 1856TIP3    H227060   4.771   3.182  14.807 -0.2631  0.1675  1.5443
 1857TIP3   OH227061   1.501   1.213   3.930 -0.8261  0.0876  0.5921
 1857TIP3    H127062   1.462   1.261   4.004  0.6666  0.7867  0.9415
 1857TIP3    H227063   1.430   1.207   3.866 -2.0598 -0.2547  1.9507
 1858TIP3   OH227064   4.802   0.602  12.962  0.5894  0.0152  0.6161
 1858TIP3    H127065   4.884   0.631  13.002  0.2341  0.5720  0.9485
 1858TIP3    H227066   4.825   0.522  12.915  1.6305  0.9772 -0.5457
 1859TIP3   OH227067   5.383   6.211   1.245  0.0497  0.4555  0.3258
 1859TIP3    H127068   5.324   6.267   1.195 -0.7982 -1.0835 -0.4190
 1859TIP3    H227069   5.453   6.189   1.183 -1.1864 -1.7427 -0.3255
 1860TIP3   OH227070   3.711   2.679  12.579  0.1113 -0.3190  0.1556
 1860TIP3    H127071   3.693   2.613  12.646 -2.3144 -0.5901 -0.6720
 1860TIP3    H227072   3.789   2.647  12.534 -0.6657 -2.3471  0.1757
 1861TIP3   OH227073   5.001   2.730  13.690 -0.2000  0.0364 -0.0786
 1861TIP3    H127074   5.012   2.636  13.701  0.4095 -0.1311 -2.0420
 1861TIP3    H227075   4.968   2.760  13.775  1.4239 -1.6413  1.1939
 1862TIP3   OH227076   0.885   0.420  12.555  0.6293  0.5005 -0.2947
 1862TIP3    H127077   0.831   0.403  12.632 -0.2986  1.3067 -0.7504
 1862TIP3    H227078   0.904   0.514  12.560 -0.0665  0.7070 -1.4518
 1863TIP3   OH227079   5.124   4.625  16.829 -0.0828  0.0404  0.3684
 1863TIP3    H127080   5.143   4.558  16.894  3.7318 -0.8886 -1.5557
 1863TIP3    H227081   5.155   4.706  16.868  1.4457 -0.3911  0.1015
 1864TIP3   OH227082   6.162   0.944  14.292 -0.0031 -0.0852 -0.2980
 1864TIP3    H127083   6.116   0.864  14.318  0.0162  0.3392  1.0829
 1864TIP3    H227084   6.163   0.998  14.371  1.0015  0.7991 -0.8979
 1865TIP3   OH227085   1.093   3.938  11.375  0.0180 -0.5985  0.0848
 1865TIP3    H127086   1.062   3.968  11.461 -0.0006 -0.3523 -0.0073
 1865TIP3    H227087   1.024   3.964  11.314  0.0287 -0.7787 -0.0047
 1866TIP3   OH227088   5.184   5.557   2.432  0.4751  0.0582 -0.0594
 1866TIP3    H127089   5.227   5.543   2.348  0.6187  0.3403 -0.0336
 1866TIP3    H227090   5.237   5.623   2.476  1.0875 -0.9519  0.7506
 1867TIP3   OH227091   3.731   3.900   4.189 -0.5823  0.4380 -0.0168
 1867TIP3    H127092   3.755   3.826   4.134  0.3504 -0.2683  1.3158
 1867TIP3    H227093   3.644   3.878   4.223 -1.0049  0.7143 -0.8921
 1868TIP3   OH227094   1.134   5.134  10.924 -0.5036 -0.3374 -0.5485
 1868TIP3    H127095   1.103   5.203  10.983 -0.4129 -0.3847 -0.4450
 1868TIP3    H227096   1.226   5.155  10.909 -0.9169  0.5246 -1.8839
 1869TIP3   OH227097   0.733   4.554   5.998  0.0733 -0.6658  0.2656
 1869TIP3    H127098   0.814   4.603   5.999  1.3682 -2.7328 -0.5141
 1869TIP3    H227099   0.750   4.479   6.055 -1.1265 -1.3567 -0.2706
 1870TIP3   OH227100   4.597   5.158  14.806 -0.1542  0.3679 -0.1981
 1870TIP3    H127101   4.558   5.131  14.722 -2.3538 -1.3208  1.3100
 1870TIP3    H227102   4.542   5.230  14.836  0.0369  0.3183  0.2717
 1871TIP3   OH227103   5.821   6.674   2.019  0.0687 -0.3726 -0.2613
 1871TIP3    H127104   5.768   6.714   1.950  1.7050  0.9806 -0.7662
 1871TIP3    H227105   5.858   6.595   1.979 -0.7966 -0.8227 -0.1931
 1872TIP3   OH227106   2.026   1.612  12.219 -0.0207  0.3103 -0.5529
 1872TIP3    H127107   2.090   1.554  12.261 -1.8261 -0.9323  0.5486
 1872TIP3    H227108   1.993   1.561  12.145 -1.5021 -0.0389  0.3274
 1873TIP3   OH227109   4.637   0.536  10.697  0.1986 -0.2441  0.6685
 1873TIP3    H127110   4.552   0.559  10.734 -0.7620 -1.4186 -0.7231
 1873TIP3    H227111   4.632   0.441  10.685  1.8787 -0.3735  0.9857
 1874TIP3   OH227112   4.450   5.861  13.150 -0.1089  0.3357  0.2900
 1874TIP3    H127113   4.460   5.810  13.231  2.0003  0.9873  0.4762
 1874TIP3    H227114   4.446   5.952  13.178  1.8548  0.6667 -0.3630
 1875TIP3   OH227115   1.126   5.393  16.851 -0.2163  0.5009 -0.4055
 1875TIP3    H127116   1.208   5.443  16.854 -0.6485  1.3580 -2.4017
 1875TIP3    H227117   1.153   5.302  16.839  0.4373  0.7408 -0.7372
 1876TIP3   OH227118   1.393   2.229  12.770  0.7115  0.4673 -0.2297
 1876TIP3    H127119   1.441   2.252  12.690 -1.0359 -1.6901 -1.9793
 1876TIP3    H227120   1.445   2.158  12.809  0.0603 -0.4477 -1.0105
 1877TIP3   OH227121   5.090   0.034  13.186  0.7644  0.3055  0.3848
 1877TIP3    H127122   5.001   0.065  13.172  1.1763  1.3308  0.0104
 1877TIP3    H227123   5.131   0.039  13.099  1.8208  1.8736  0.9602
 1878TIP3   OH227124   4.570   1.006   0.013  0.0357  0.3503 -0.2822
 1878TIP3    H127125   4.584   0.917  -0.019 -1.6949  0.3901 -1.1713
 1878TIP3    H227126   4.631   1.014   0.087  1.2727 -1.0462 -1.1237
 1879TIP3   OH227127   6.813   0.764  14.712  0.3028 -0.1979  0.5175
 1879TIP3    H127128   6.794   0.763  14.619  0.3434  3.1051  0.3950
 1879TIP3    H227129   6.906   0.786  14.717 -0.1061  1.4424  1.3227
 1880TIP3   OH227130   2.786   4.085   4.760  0.2400  0.1866 -0.1926
 1880TIP3    H127131   2.769   4.028   4.836 -0.9367  0.0666 -0.5315
 1880TIP3    H227132   2.743   4.167   4.783 -0.1324  0.1420 -0.7427
 1881TIP3   OH227133   2.155   5.873  15.326 -0.1225 -0.5138 -0.1134
 1881TIP3    H127134   2.068   5.867  15.364  0.3175  0.0981  1.0384
 1881TIP3    H227135   2.172   5.967  15.319  0.4367 -0.6253 -0.3122
 1882TIP3   OH227136   6.789   4.081   4.628 -0.3513 -0.1232  0.2994
 1882TIP3    H127137   6.881   4.069   4.603  0.3621 -0.5423  2.9968
 1882TIP3    H227138   6.776   4.176   4.627 -0.1363 -0.0948 -0.8461
 1883TIP3   OH227139   0.755   1.895   4.554 -0.3869  1.0081 -0.3899
 1883TIP3    H127140   0.745   1.980   4.511 -0.9397  0.4919 -1.2886
 1883TIP3    H227141   0.772   1.834   4.482 -0.3081  0.3016  0.2246
 1884TIP3   OH227142   5.225   4.255  11.552 -0.1842  0.2127 -0.3819
 1884TIP3    H127143   5.234   4.321  11.620 -1.5655 -0.1596  0.1800
 1884TIP3    H227144   5.133   4.259  11.527  0.2311  0.0874 -1.9684
 1885TIP3   OH227145   1.148   0.127   0.272 -0.0246 -0.0758  0.5466
 1885TIP3    H127146   1.181   0.044   0.237 -1.1611 -0.1039 -0.5027
 1885TIP3    H227147   1.226   0.173   0.301  0.9936 -0.0394 -2.1016
 1886TIP3   OH227148   1.309   3.847  12.004 -0.3023 -0.0378 -0.1347
 1886TIP3    H127149   1.388   3.901  12.006  0.1374 -0.5432 -2.8062
 1886TIP3    H227150   1.328   3.775  12.065  1.5844 -0.4864 -1.2011
 1887TIP3   OH227151   1.308   0.324  16.588  0.2040 -0.6000 -0.1174
 1887TIP3    H127152   1.332   0.399  16.643  0.6992 -0.3275 -0.7116
 1887TIP3    H227153   1.343   0.345  16.502  1.1902 -1.9625 -0.0586
 1888TIP3   OH227154   2.066   3.937   5.300  0.3590  0.0166  0.0927
 1888TIP3    H127155   2.013   3.898   5.369  0.4726 -1.1990 -0.4837
 1888TIP3    H227156   2.015   4.013   5.270 -0.3803 -0.3124  0.5046
 1889TIP3   OH227157   1.304   0.857  12.315 -0.0317 -0.5738  0.0410
 1889TIP3    H127158   1.374   0.875  12.253 -1.2883  0.0198 -1.2149
 1889TIP3    H227159   1.283   0.942  12.353 -1.2879 -0.4742 -0.8810
 1890TIP3   OH227160   0.770   3.058  10.976 -0.0836  0.0880 -0.2141
 1890TIP3    H127161   0.754   2.966  10.953 -1.6074  0.4851 -0.8037
 1890TIP3    H227162   0.785   3.056  11.070 -0.6061 -0.6996 -0.1411
 1891TIP3   OH227163   4.797   0.748   0.970 -0.9098 -0.2554  0.1585
 1891TIP3    H127164   4.884   0.718   0.995 -0.5048  0.3530 -0.4879
 1891TIP3    H227165   4.809   0.840   0.947 -1.4123 -0.5878 -1.4919
 1892TIP3   OH227166   3.201   6.051   1.422 -0.4499  0.2098  0.1772
 1892TIP3    H127167   3.162   6.112   1.360 -1.5316 -2.7969 -2.1860
 1892TIP3    H227168   3.159   6.072   1.506 -0.2978  3.1154 -0.4429
 1893TIP3   OH227169   1.321   1.820   4.252  0.1541  0.0735 -0.4773
 1893TIP3    H127170   1.412   1.800   4.274  0.2070 -0.2079 -0.9471
 1893TIP3    H227171   1.281   1.846   4.336  0.5323 -0.2995 -0.1780
 1894TIP3   OH227172   0.879   0.015  14.644  0.4444  0.1345  0.7817
 1894TIP3    H127173   0.938   0.045  14.575  0.1511  1.3895  1.0638
 1894TIP3    H227174   0.933  -0.042  14.699  1.1431  0.5346  0.5181
 1895TIP3   OH227175   3.798   0.685  17.245  0.1373 -0.1373  0.2534
 1895TIP3    H127176   3.843   0.609  17.208 -0.4029  0.1272 -0.9644
 1895TIP3    H227177   3.711   0.654  17.268 -1.5306  1.0160 -4.0121
 1896TIP3   OH227178   0.901   6.289   2.142  0.3233 -0.1964 -0.3144
 1896TIP3    H127179   0.923   6.315   2.052  0.8323  0.7758  0.0914
 1896TIP3    H227180   0.966   6.221   2.163  0.6427  0.0738 -0.4276
 1897TIP3   OH227181   0.674   2.395   1.643  0.7688  0.3341  0.1222
 1897TIP3    H127182   0.682   2.462   1.711  1.5010  0.8427 -0.4486
 1897TIP3    H227183   0.704   2.438   1.564 -0.6026 -0.0959 -0.6377
 1898TIP3   OH227184   1.111   0.486   2.920 -0.2409  0.0062  0.2414
 1898TIP3    H127185   1.143   0.396   2.916  1.7032  0.7277 -0.8163
 1898TIP3    H227186   1.184   0.536   2.956 -0.0104  1.7073 -2.4678
 1899TIP3   OH227187   3.473   1.358   6.978 -0.1276  0.4215 -0.8438
 1899TIP3    H127188   3.482   1.398   7.065  0.4376 -1.0471 -0.2086
 1899TIP3    H227189   3.407   1.290   6.990  0.5433 -0.3253 -1.3805
 1900TIP3   OH227190   3.557   6.670   4.507  0.6400  0.6295  0.4623
 1900TIP3    H127191   3.579   6.603   4.571  0.7972  0.6218  0.4013
 1900TIP3    H227192   3.641   6.694   4.467  0.2736 -0.9698 -1.3015
 1901TIP3   OH227193   4.248   0.921   1.959  0.7822  0.0705  0.1621
 1901TIP3    H127194   4.165   0.879   1.937 -0.1581  2.4087 -0.9890
 1901TIP3    H227195   4.315   0.865   1.919 -0.4337 -0.2378 -1.5044
 1902TIP3   OH227196   1.009   4.813  16.633  0.1433 -0.3340  0.6089
 1902TIP3    H127197   1.079   4.772  16.683 -0.0451  0.8446  1.8549
 1902TIP3    H227198   1.052   4.887  16.589  0.2547 -1.2081 -0.8227
 1903TIP3   OH227199   2.076   5.763  16.494  0.0276  0.6552 -0.2908
 1903TIP3    H127200   2.151   5.704  16.490 -0.8800 -0.4737 -1.1121
 1903TIP3    H227201   2.054   5.768  16.587  1.5494  1.5886  0.0456
 1904TIP3   OH227202   0.189   5.460   5.042 -0.2811 -0.9667 -0.2486
 1904TIP3    H127203   0.110   5.512   5.032 -0.3577 -1.2465 -1.1411
 1904TIP3    H227204   0.214   5.471   5.134 -0.8896 -0.2180 -0.1706
 1905TIP3   OH227205   6.166   0.699  14.093  0.2071 -0.4783  0.1616
 1905TIP3    H127206   6.217   0.666  14.019  0.1559  0.3244 -0.2407
 1905TIP3    H227207   6.141   0.621  14.142  1.5883 -0.9089  0.2091
 1906TIP3   OH227208   1.608   3.425  16.909  0.1093  0.3159  0.0712
 1906TIP3    H127209   1.660   3.478  16.848 -0.0346 -0.9287 -1.1505
 1906TIP3    H227210   1.639   3.451  16.996  2.2590  0.0930 -0.6194
 1907TIP3   OH227211   3.868   4.129  13.554  0.1657 -0.2009  0.0707
 1907TIP3    H127212   3.828   4.202  13.600  0.7778  0.6461 -0.7369
 1907TIP3    H227213   3.900   4.072  13.624  3.4104  2.3430  0.7529
 1908TIP3   OH227214   1.764   0.304  16.765 -0.1244  0.0471  0.1371
 1908TIP3    H127215   1.717   0.296  16.682  1.4648 -0.7505 -0.7180
 1908TIP3    H227216   1.781   0.397  16.775  0.1446  0.0819 -0.6845
 1909TIP3   OH227217   3.618   1.830   2.822  0.2941 -0.3463  0.2319
 1909TIP3    H127218   3.665   1.883   2.757  0.4216  0.7956  1.2446
 1909TIP3    H227219   3.557   1.890   2.863 -0.4310 -1.2865  0.5479
 1910TIP3   OH227220   6.753   6.353  11.554 -0.1107 -0.1524 -0.0788
 1910TIP3    H127221   6.682   6.392  11.502 -0.0177  0.0744 -0.0360
 1910TIP3    H227222   6.816   6.424  11.565  0.1072 -0.3442 -0.0879
 1911TIP3   OH227223   5.210   2.736  16.873  0.0703  0.0226  0.3404
 1911TIP3    H127224   5.283   2.688  16.912 -0.5188 -0.9907  0.2100
 1911TIP3    H227225   5.250   2.787  16.803  0.3862 -1.9460 -0.9459
 1912TIP3   OH227226   6.285   3.492   2.972  0.3587 -0.3282  0.0604
 1912TIP3    H127227   6.348   3.543   2.921 -1.3258 -0.7396 -2.5349
 1912TIP3    H227228   6.214   3.553   2.992 -0.8541 -1.1529 -1.5748
 1913TIP3   OH227229   1.533   1.351  12.928  0.4158  0.0425  0.0731
 1913TIP3    H127230   1.480   1.302  12.990 -0.5014  0.3838 -0.4294
 1913TIP3    H227231   1.597   1.397  12.982  0.4820 -0.7199  0.6468
 1914TIP3   OH227232   2.057   3.193  16.777  0.3694  0.1782 -0.5283
 1914TIP3    H127233   2.100   3.266  16.822 -0.3639  0.1701  0.2060
 1914TIP3    H227234   2.084   3.116  16.827  0.4034  0.0499 -0.7462
 1915TIP3   OH227235   5.426   3.350  13.332  0.4296 -0.0238  0.6054
 1915TIP3    H127236   5.356   3.298  13.372  1.7861 -0.6294  2.2286
 1915TIP3    H227237   5.492   3.285  13.305  0.9340  0.6457  0.2107
 1916TIP3   OH227238   6.280   3.569   5.640 -0.1295 -0.1737 -0.2980
 1916TIP3    H127239   6.304   3.499   5.701  1.9220  1.0534  0.3624
 1916TIP3    H227240   6.185   3.579   5.651  0.0707 -0.6066  2.0052
 1917TIP3   OH227241   5.947   1.431   2.758 -0.3266 -0.5282 -0.6803
 1917TIP3    H127242   6.006   1.505   2.744 -0.5492 -0.2659 -0.2612
 1917TIP3    H227243   5.955   1.377   2.679  0.0200 -0.1826 -0.8789
 1918TIP3   OH227244   6.274   2.981  15.536 -0.9713 -0.1504  0.5389
 1918TIP3    H127245   6.349   3.011  15.485 -0.0340 -2.5663  0.4585
 1918TIP3    H227246   6.305   2.976  15.626 -1.8721  1.5419  0.9748
 1919TIP3   OH227247   0.791   4.551  15.219 -0.3861  0.2320 -0.5539
 1919TIP3    H127248   0.802   4.549  15.124  1.2887  0.6363 -0.3942
 1919TIP3    H227249   0.701   4.523  15.234 -0.3723 -0.7346 -2.2080
 1920TIP3   OH227250   1.106   3.266  15.098  0.1486 -0.1753 -0.2948
 1920TIP3    H127251   1.168   3.304  15.036  0.5442 -0.3401 -0.0017
 1920TIP3    H227252   1.045   3.216  15.043 -0.4229  0.9415 -0.6831
 1921TIP3   OH227253   3.517   6.378  17.143  0.0778  0.3612 -0.3619
 1921TIP3    H127254   3.453   6.320  17.100  2.2595 -2.3926 -0.0089
 1921TIP3    H227255   3.491   6.466  17.115 -4.5879 -0.5042  0.6916
 1922TIP3   OH227256   3.628   5.868  12.845 -0.4435  0.0440 -0.3432
 1922TIP3    H127257   3.700   5.843  12.788  0.1653 -0.3529  0.5851
 1922TIP3    H227258   3.621   5.796  12.909 -0.5395  0.8865  0.6092
 1923TIP3   OH227259   2.839   5.748   3.932  0.4035  0.2307 -0.2803
 1923TIP3    H127260   2.753   5.708   3.913  1.3687 -1.8603 -0.3655
 1923TIP3    H227261   2.893   5.675   3.963  1.5672  1.9170  1.7419
 1924TIP3   OH227262   3.104   0.550  11.663 -0.5124  0.6838 -0.3184
 1924TIP3    H127263   3.166   0.478  11.654 -1.3872  0.0418 -1.2871
 1924TIP3    H227264   3.154   0.628  11.640  0.3622  0.3505  0.4635
 1925TIP3   OH227265   3.146   1.293   0.430  0.4348 -0.2882 -0.3298
 1925TIP3    H127266   3.064   1.307   0.477  0.6604  1.7595 -0.4734
 1925TIP3    H227267   3.149   1.199   0.413 -1.5880 -0.4697  0.1988
 1926TIP3   OH227268   4.007   0.407   4.078  0.1182 -0.1544 -0.2174
 1926TIP3    H127269   4.040   0.464   4.148  0.8376  0.9657 -1.4513
 1926TIP3    H227270   4.041   0.320   4.101 -0.7672 -0.0739  1.5322
 1927TIP3   OH227271   2.906   3.138   5.896  0.6244  0.1686 -0.1950
 1927TIP3    H127272   2.846   3.064   5.904 -0.6806  1.3759  1.4268
 1927TIP3    H227273   2.977   3.119   5.957  0.4421  0.1029 -0.0046
 1928TIP3   OH227274   0.660   0.177   5.023  0.3265 -0.2732  0.5540
 1928TIP3    H127275   0.688   0.265   5.048 -4.1482  1.3143  0.4751
 1928TIP3    H227276   0.655   0.129   5.106 -0.2508  0.4941  0.9634
 1929TIP3   OH227277   4.723   4.499  16.713 -0.4641  0.3119  0.7657
 1929TIP3    H127278   4.806   4.530  16.679 -0.4573 -0.2416  0.2738
 1929TIP3    H227279   4.658   4.556  16.673 -0.6310 -1.5272 -1.7468
 1930TIP3   OH227280   3.548   1.304  14.631 -0.1543  0.1532  0.2005
 1930TIP3    H127281   3.476   1.245  14.655  1.1260 -1.1920  0.8070
 1930TIP3    H227282   3.542   1.311  14.536 -1.0785  0.0455  0.2452
 1931TIP3   OH227283   4.373   0.524   2.105  0.2105  0.6431  0.2098
 1931TIP3    H127284   4.416   0.610   2.112  0.4604  0.6872 -1.6700
 1931TIP3    H227285   4.387   0.498   2.014 -1.8709 -0.3539  0.1617
 1932TIP3   OH227286   2.825   3.708  17.192  0.2500  0.3711 -0.3418
 1932TIP3    H127287   2.909   3.747  17.168 -0.0841  0.2906 -1.6794
 1932TIP3    H227288   2.848   3.621  17.226  0.6598  0.0578 -1.3896
 1933TIP3   OH227289   2.929   2.260   4.140 -0.1595 -0.1740 -0.2062
 1933TIP3    H127290   3.021   2.243   4.121 -0.3224 -0.8748 -0.3651
 1933TIP3    H227291   2.909   2.340   4.091 -0.0771 -0.9304 -1.5110
 1934TIP3   OH227292   3.370   6.653  16.495  0.4840  0.4598  0.4983
 1934TIP3    H127293   3.347   6.598  16.420 -0.6618  0.4433  0.8418
 1934TIP3    H227294   3.437   6.603  16.542 -0.8485 -0.8687  1.0307
 1935TIP3   OH227295   4.332   6.661  15.762 -0.1945  0.5273  0.0055
 1935TIP3    H127296   4.257   6.656  15.821 -0.2840  0.2798 -0.1307
 1935TIP3    H227297   4.405   6.624  15.813 -0.5624 -0.9432 -0.5169
 1936TIP3   OH227298   4.215   4.046  15.204  0.1831  0.3974 -0.1938
 1936TIP3    H127299   4.143   3.983  15.206  0.3539  0.2462  2.6003
 1936TIP3    H227300   4.173   4.131  15.213  0.0986  0.5925 -2.1845
 1937TIP3   OH227301   6.260   5.861  14.396  0.0994  0.0111  0.1770
 1937TIP3    H127302   6.239   5.798  14.465 -1.5090  0.5796  0.2141
 1937TIP3    H227303   6.352   5.843  14.375 -0.1716 -1.9639  0.5865
 1938TIP3   OH227304   0.482   5.139  17.183  0.1194  0.1122 -1.1994
 1938TIP3    H127305   0.507   5.106  17.096  0.1778  0.8516 -1.4604
 1938TIP3    H227306   0.511   5.070  17.243  0.6303 -0.1255 -1.7098
 1939TIP3   OH227307   6.571   1.434   1.666 -0.8644 -0.3204 -0.1843
 1939TIP3    H127308   6.571   1.379   1.744 -0.0006 -0.0297  0.0254
 1939TIP3    H227309   6.497   1.403   1.614 -1.6302 -0.3074  0.8917
 1940TIP3   OH227310   0.753   1.268   5.962  0.3512  0.2382 -0.1221
 1940TIP3    H127311   0.713   1.213   5.895 -0.5337  0.0762  0.5322
 1940TIP3    H227312   0.772   1.207   6.034 -1.6324  0.9605  1.0498
 1941TIP3   OH227313   2.302   6.569  13.790 -0.1888 -0.3615  0.6324
 1941TIP3    H127314   2.233   6.563  13.855 -0.0518  0.6769  0.8788
 1941TIP3    H227315   2.383   6.572  13.841 -0.1003  0.8271  0.4449
 1942TIP3   OH227316   0.963   0.343  14.691  0.5504 -0.1070 -0.0162
 1942TIP3    H127317   0.982   0.420  14.745  0.8890  0.0647 -0.3841
 1942TIP3    H227318   0.918   0.283  14.751  0.3061  0.3642  0.2788
 1943TIP3   OH227319   0.175   5.179   0.668 -0.3577 -0.1259  0.5149
 1943TIP3    H127320   0.220   5.174   0.752 -0.6529  0.1055  0.6877
 1943TIP3    H227321   0.192   5.268   0.636 -1.3330  0.2180  0.9441
 1944TIP3   OH227322   1.269   6.639   3.214  0.4929 -0.1193 -0.8587
 1944TIP3    H127323   1.200   6.595   3.264  0.7999  0.9246  0.4902
 1944TIP3    H227324   1.310   6.569   3.163  0.2418 -1.1944  0.4114
 1945TIP3   OH227325   3.885   0.878  15.763  0.3201 -0.5919 -0.4664
 1945TIP3    H127326   3.804   0.831  15.781  1.2685 -2.4388 -0.8635
 1945TIP3    H227327   3.903   0.926  15.843 -1.1035 -0.2615 -0.3377
 1946TIP3   OH227328   5.685   3.658   5.321  0.1998  0.2793  0.0667
 1946TIP3    H127329   5.694   3.679   5.229 -1.3657  0.8779  0.0369
 1946TIP3    H227330   5.760   3.700   5.363  0.5193  0.6178 -0.8312
 1947TIP3   OH227331   0.056   2.391   3.753 -0.3202 -0.2237 -0.1452
 1947TIP3    H127332   0.099   2.455   3.696 -0.0088  0.6320  1.0283
 1947TIP3    H227333  -0.010   2.442   3.801 -0.2178 -0.8139  0.6387
 1948TIP3   OH227334   0.495   1.807  11.365 -0.4432  0.2147  0.4629
 1948TIP3    H127335   0.462   1.735  11.419 -0.3978  0.0866  0.3204
 1948TIP3    H227336   0.589   1.810  11.384  0.1856 -2.0127 -2.1247
 1949TIP3   OH227337   1.159   2.197  10.724 -0.8741  0.4958 -0.2196
 1949TIP3    H127338   1.146   2.252  10.646 -0.7311  1.0551  0.1497
 1949TIP3    H227339   1.071   2.168  10.747 -0.9264  0.3820 -0.5515
 1950TIP3   OH227340   1.106   2.124  15.107 -0.4582  0.3391 -0.4225
 1950TIP3    H127341   1.112   2.037  15.147  3.7348 -0.2890 -2.1603
 1950TIP3    H227342   1.059   2.109  15.025 -1.1981  0.0017  0.0578
 1951TIP3   OH227343   4.501   0.934  12.275  0.2458 -0.1518  0.3090
 1951TIP3    H127344   4.483   0.923  12.182  0.3523 -1.2620  0.4028
 1951TIP3    H227345   4.565   0.866  12.295  0.5995  0.3976  1.0879
 1952TIP3   OH227346   0.039   1.236  14.039  0.1256  0.4623  0.3037
 1952TIP3    H127347  -0.022   1.309  14.052  1.9768  2.0752  0.0630
 1952TIP3    H227348   0.106   1.248  14.107  1.1845 -0.2276 -0.6060
 1953TIP3   OH227349   5.984   0.789   5.549 -0.5235  0.7962 -0.0936
 1953TIP3    H127350   5.937   0.835   5.479 -2.0240 -2.4730 -1.4000
 1953TIP3    H227351   6.076   0.797   5.525 -0.9900  0.0134 -2.3387
 1954TIP3   OH227352   4.692   2.428   1.987 -0.4416  0.1812  0.2499
 1954TIP3    H127353   4.602   2.422   2.021 -1.0032 -3.0385 -1.5448
 1954TIP3    H227354   4.685   2.484   1.911 -0.7922  0.5829  0.5742
 1955TIP3   OH227355   1.647   1.091  11.960 -0.4938 -0.2456  0.1601
 1955TIP3    H127356   1.721   1.151  11.948 -0.3861 -0.5261 -0.5923
 1955TIP3    H227357   1.593   1.134  12.025  1.5081 -1.1587  2.4978
 1956TIP3   OH227358   2.502   0.464   1.568 -0.9534  0.4674 -0.2468
 1956TIP3    H127359   2.577   0.503   1.523 -0.8360 -0.4157 -0.8216
 1956TIP3    H227360   2.458   0.411   1.501 -1.9711  0.8011  0.1395
 1957TIP3   OH227361   2.061   2.062  10.896 -0.4704  0.0549  0.0693
 1957TIP3    H127362   2.005   2.082  10.821  1.4196  0.8341 -1.1831
 1957TIP3    H227363   2.076   2.146  10.939  0.4908  0.0258 -0.1786
 1958TIP3   OH227364   1.825   0.142   0.204 -0.3949  0.5489  0.7779
 1958TIP3    H127365   1.873   0.137   0.287 -0.7484  0.6743  0.9929
 1958TIP3    H227366   1.733   0.146   0.230 -0.4809  1.1011  0.3962
 1959TIP3   OH227367   4.042   6.146  14.483 -0.0075  0.2080  0.0988
 1959TIP3    H127368   4.112   6.166  14.545  0.0191  0.7986 -0.1254
 1959TIP3    H227369   3.962   6.150  14.536  0.1273 -0.5023  0.3626
 1960TIP3   OH227370   2.852   2.719  14.285 -0.7055 -0.0564 -0.1565
 1960TIP3    H127371   2.876   2.638  14.329  0.9317  0.5927  0.1565
 1960TIP3    H227372   2.861   2.787  14.352 -0.9062  0.5547 -0.7404
 1961TIP3   OH227373   6.453   5.743  10.566  0.5080  0.1791  0.0062
 1961TIP3    H127374   6.544   5.754  10.595  0.9528 -0.0827 -1.2541
 1961TIP3    H227375   6.426   5.659  10.603  0.3379  0.8547  1.4636
 1962TIP3   OH227376   1.740   3.306  11.905 -0.0688  0.2682 -0.6541
 1962TIP3    H127377   1.776   3.347  11.983  0.2622 -0.0854 -0.6168
 1962TIP3    H227378   1.711   3.219  11.935  3.0442 -1.1869 -1.5696
 1963TIP3   OH227379   0.688   2.280   1.364 -0.3190  0.1556 -0.1341
 1963TIP3    H127380   0.752   2.336   1.406 -0.8435  1.0250 -0.4832
 1963TIP3    H227381   0.604   2.322   1.380 -1.0280 -1.9004  1.8283
 1964TIP3   OH227382   5.944   1.608   1.493  0.5917 -0.2095  0.2242
 1964TIP3    H127383   5.909   1.608   1.582 -0.8724  0.9351 -0.3445
 1964TIP3    H227384   5.997   1.529   1.488 -2.2861 -2.2340  0.9430
 1965TIP3   OH227385   1.129   2.379  16.545 -0.3008  0.3241  0.1100
 1965TIP3    H127386   1.048   2.429  16.557 -0.6537 -0.4215  0.8569
 1965TIP3    H227387   1.133   2.322  16.621  0.8813  0.2845  0.0175
 1966TIP3   OH227388   6.780   5.351  13.422  0.0889 -0.2095 -0.3269
 1966TIP3    H127389   6.727   5.283  13.465  1.0631 -1.7035 -1.4336
 1966TIP3    H227390   6.723   5.428  13.421 -1.5404 -1.3688 -0.1947
 1967TIP3   OH227391   6.188   5.286  10.322 -0.0800 -0.1332 -0.1114
 1967TIP3    H127392   6.198   5.353  10.255  2.4250  0.7822  1.1250
 1967TIP3    H227393   6.178   5.334  10.403 -0.3152 -1.2391  0.5283
 1968TIP3   OH227394   5.336   3.890  11.453  0.0782 -0.2525 -0.0302
 1968TIP3    H127395   5.248   3.893  11.416 -0.0275  1.2701  0.3464
 1968TIP3    H227396   5.390   3.941  11.393  0.6765 -1.0148 -0.1541
 1969TIP3   OH227397   5.648   5.259   0.857  0.0728  0.2198 -0.1646
 1969TIP3    H127398   5.598   5.179   0.846  1.0101 -0.3976 -0.0057
 1969TIP3    H227399   5.735   5.230   0.883  0.0631  1.3477  1.1731
 1970TIP3   OH227400   6.248   1.638   5.668 -0.0134  0.4749  0.3478
 1970TIP3    H127401   6.242   1.556   5.619 -0.3656  1.1220 -0.7124
 1970TIP3    H227402   6.210   1.703   5.609  2.6113  1.8442  0.1181
 1971TIP3   OH227403   1.920   6.700   5.378  0.5997 -0.0678  0.2857
 1971TIP3    H127404   1.832   6.737   5.389  0.0071 -1.7904  1.4914
 1971TIP3    H227405   1.923   6.672   5.287 -0.4906 -0.9320  0.5009
 1972TIP3   OH227406   5.537   4.495  10.106  0.5078 -0.0116 -0.3019
 1972TIP3    H127407   5.526   4.418  10.050  2.9084 -1.3606  0.9618
 1972TIP3    H227408   5.493   4.472  10.188  3.6074 -1.2913  1.1036
 1973TIP3   OH227409   3.215   6.198   2.781  0.1573  0.3820 -0.0251
 1973TIP3    H127410   3.282   6.256   2.815  0.1853  0.3762 -0.0694
 1973TIP3    H227411   3.202   6.226   2.690  1.7174 -1.0796 -0.7171
 1974TIP3   OH227412   4.544   3.646  12.160  0.0717 -0.3924 -0.1209
 1974TIP3    H127413   4.561   3.726  12.111 -1.5699 -0.3373 -0.6404
 1974TIP3    H227414   4.539   3.675  12.251  1.3152 -0.2048 -0.1067
 1975TIP3   OH227415   1.796   2.337  17.057  0.0754  0.2553 -0.2250
 1975TIP3    H127416   1.856   2.266  17.078 -1.3738 -0.9174  0.0281
 1975TIP3    H227417   1.776   2.377  17.141  0.0017  0.2441 -0.2384
 1976TIP3   OH227418   1.988   1.884  10.453 -0.0711  0.1586  0.5215
 1976TIP3    H127419   1.982   1.799  10.410 -0.0518  0.3125  0.2187
 1976TIP3    H227420   2.076   1.885  10.492 -0.4545 -0.3872  1.4221
 1977TIP3   OH227421   6.362   5.147  13.568 -0.0549 -0.5123  0.2255
 1977TIP3    H127422   6.316   5.109  13.643 -0.7667  1.8139  0.9880
 1977TIP3    H227423   6.294   5.188  13.515  0.7294 -0.0639 -0.4595
 1978TIP3   OH227424   6.568   3.068   1.206 -0.2879  0.6247 -0.7060
 1978TIP3    H127425   6.473   3.078   1.210 -0.2276  0.6961  1.1075
 1978TIP3    H227426   6.599   3.153   1.174 -0.7894  0.8358 -0.6414
 1979TIP3   OH227427   0.652   1.383  12.634  0.6879 -0.5000  0.0666
 1979TIP3    H127428   0.673   1.292  12.617  3.3426  0.0020  0.3865
 1979TIP3    H227429   0.637   1.388  12.729  0.0579 -0.6966 -0.0232
 1980TIP3   OH227430   5.856   6.425   2.836  0.0331 -0.1802  0.1665
 1980TIP3    H127431   5.838   6.518   2.846  0.2993 -0.2568  1.3664
 1980TIP3    H227432   5.929   6.408   2.894  1.0613 -0.8103 -1.2922
 1981TIP3   OH227433   3.355   4.615  14.660 -0.4424 -0.1268  0.3163
 1981TIP3    H127434   3.325   4.696  14.703 -0.3580  0.1537 -0.1526
 1981TIP3    H227435   3.274   4.574  14.630 -0.5951 -0.8654  1.6887
 1982TIP3   OH227436   1.888   4.002   4.991  0.3298  0.4475 -0.1141
 1982TIP3    H127437   1.873   4.089   4.953 -0.6048 -0.4471 -1.8594
 1982TIP3    H227438   1.835   3.943   4.937  2.0718 -1.4068  0.1374
 1983TIP3   OH227439   6.614   0.743  12.403 -0.4446 -0.2136 -0.4402
 1983TIP3    H127440   6.628   0.830  12.441  2.4444 -0.2150 -1.3150
 1983TIP3    H227441   6.556   0.698  12.465  1.2764  0.9808  2.1524
 1984TIP3   OH227442   5.765   2.142   0.807  0.2360  0.1148 -0.3506
 1984TIP3    H127443   5.738   2.232   0.823 -1.3284 -0.3718 -0.1574
 1984TIP3    H227444   5.687   2.090   0.826  0.4689 -1.0964 -2.5672
 1985TIP3   OH227445   1.333   1.001   3.053 -0.1375  0.6635 -0.2787
 1985TIP3    H127446   1.280   1.037   3.124  0.5377  0.1699  0.4790
 1985TIP3    H227447   1.424   1.020   3.079  0.2607 -2.0221  0.3877
 1986TIP3   OH227448   3.028   4.642  14.905 -0.4439  0.4461 -0.1725
 1986TIP3    H127449   3.104   4.623  14.850  0.3067  2.5775  0.1235
 1986TIP3    H227450   3.030   4.575  14.973 -0.5916 -1.3785 -1.9081
 1987TIP3   OH227451   4.116   1.783  12.212  0.0249 -0.4104 -0.1172
 1987TIP3    H127452   4.022   1.788  12.225  0.1313  1.5311  0.1434
 1987TIP3    H227453   4.153   1.789  12.300  0.3794 -2.1724 -0.1319
 1988TIP3   OH227454   3.806   4.123   4.403 -0.0060 -0.0349 -0.0084
 1988TIP3    H127455   3.783   4.040   4.361  0.3359  0.8976 -2.1113
 1988TIP3    H227456   3.837   4.179   4.331 -0.0744  1.8632  1.3853
 1989TIP3   OH227457   0.280   4.643   0.596  0.1857 -0.3494 -0.0634
 1989TIP3    H127458   0.356   4.592   0.626  1.0105  0.1083 -1.3359
 1989TIP3    H227459   0.234   4.666   0.677  1.7444 -0.1054  0.7792
 1990TIP3   OH227460   3.728   0.419   4.315 -0.1567  0.2713  0.1638
 1990TIP3    H127461   3.635   0.409   4.337 -0.9174  2.2274 -2.0511
 1990TIP3    H227462   3.763   0.330   4.321 -2.0244 -0.4003  1.6255
 1991TIP3   OH227463   0.887   5.235  13.102 -0.4245 -0.1559  0.6749
 1991TIP3    H127464   0.902   5.329  13.093 -1.2892 -0.1011 -0.2575
 1991TIP3    H227465   0.794   5.227  13.123 -0.0356 -0.7306  2.2670
 1992TIP3   OH227466   2.092   4.735   4.714  0.1338  0.3517  0.0698
 1992TIP3    H127467   2.146   4.815   4.712  1.0255 -0.1032  3.2188
 1992TIP3    H227468   2.155   4.664   4.728 -0.8704 -0.7176 -0.7128
 1993TIP3   OH227469   6.769   1.884  12.615 -0.1448  0.1607  0.1772
 1993TIP3    H127470   6.753   1.946  12.544 -2.9671 -1.2615 -0.5392
 1993TIP3    H227471   6.743   1.930  12.694 -2.0955 -0.0039 -0.3377
 1994TIP3   OH227472   0.766   6.603   3.301 -0.4836  0.6940 -0.4566
 1994TIP3    H127473   0.811   6.534   3.252 -1.7560  0.5270 -1.3930
 1994TIP3    H227474   0.823   6.619   3.376 -0.1932 -1.4106 -0.1905
 1995TIP3   OH227475   6.326   1.442  16.014  0.3198  0.2082  0.1392
 1995TIP3    H127476   6.379   1.363  16.026 -0.2889 -0.6146 -2.3462
 1995TIP3    H227477   6.242   1.421  16.057  0.4461 -0.1658  0.2019
 1996TIP3   OH227478   2.974   3.934   3.740 -0.1664  0.3810 -0.0484
 1996TIP3    H127479   2.884   3.959   3.762 -1.0292 -1.4292 -1.4258
 1996TIP3    H227480   2.971   3.915   3.646  1.7906  0.8439 -0.2273
 1997TIP3   OH227481   5.241   4.504  16.054  0.1499 -0.5341 -0.4534
 1997TIP3    H127482   5.173   4.563  16.020  1.0906 -0.0540 -1.5345
 1997TIP3    H227483   5.322   4.554  16.046  0.9010 -1.8109 -0.9983
 1998TIP3   OH227484   5.187   5.278   4.192 -0.6743 -0.1096  0.5492
 1998TIP3    H127485   5.248   5.293   4.120 -2.1096 -1.7979 -1.0639
 1998TIP3    H227486   5.211   5.191   4.225  0.4114  0.9144  2.6050
 1999TIP3   OH227487   0.047   6.574   4.811 -0.6203  0.5304 -0.0430
 1999TIP3    H127488   0.027   6.482   4.827 -1.5276  0.8151  0.4939
 1999TIP3    H227489   0.034   6.586   4.716 -1.4731  0.3314  0.0415
 2000TIP3   OH227490   3.979   3.128   2.584  0.2566  0.2228 -0.0540
 2000TIP3    H127491   3.985   3.170   2.670  1.5426  0.0884 -0.0794
 2000TIP3    H227492   3.967   3.201   2.523 -0.7241  0.3136  0.2318
 2001TIP3   OH227493   4.412   5.926   2.135  0.5082  0.1599  0.1395
 2001TIP3    H127494   4.356   5.853   2.161 -0.6335  0.9483 -0.0352
 2001TIP3    H227495   4.407   5.927   2.039 -0.7349  1.4182  0.2086
 2002TIP3   OH227496   5.845   2.925   5.656 -0.1778 -0.4771 -0.3282
 2002TIP3    H127497   5.794   2.866   5.601 -0.8022  0.4026 -0.7162
 2002TIP3    H227498   5.870   2.872   5.732  0.3606 -1.5877 -1.2613
 2003TIP3   OH227499   2.069   1.151   5.549 -0.4753 -0.0811  0.3594
 2003TIP3    H127500   2.107   1.070   5.581 -0.6776 -1.0442 -1.7359
 2003TIP3    H227501   2.134   1.218   5.570  0.6578 -1.1130  0.1971
 2004TIP3   OH227502   1.730   0.703  12.517 -0.3252  0.2270  0.8993
 2004TIP3    H127503   1.642   0.681  12.487  0.4693 -0.6062 -0.8865
 2004TIP3    H227504   1.788   0.674  12.446  1.3674  1.0217  1.9172
 2005TIP3   OH227505   1.444   5.664  12.679 -0.3242  0.7613  0.0465
 2005TIP3    H127506   1.485   5.654  12.765  1.3511 -0.1422 -0.8405
 2005TIP3    H227507   1.482   5.594  12.625  0.2727  2.6555 -2.0521
 2006TIP3   OH227508   5.349   5.024   4.122 -0.0867 -0.7982 -0.1986
 2006TIP3    H127509   5.265   5.005   4.079 -0.6821 -0.1893  0.6668
 2006TIP3    H227510   5.359   4.954   4.187  0.4845 -1.3440 -0.8795
 2007TIP3   OH227511   0.214   6.692   0.490  0.2568  0.0617 -0.0406
 2007TIP3    H127512   0.137   6.748   0.501  0.1145 -0.4132  1.4765
 2007TIP3    H227513   0.281   6.751   0.454 -0.1334  1.0395  0.7900
 2008TIP3   OH227514   1.437   3.951  16.217 -0.0131  0.6916  0.0498
 2008TIP3    H127515   1.451   3.911  16.131 -1.4482  2.4558 -1.0450
 2008TIP3    H227516   1.344   3.973  16.218 -0.3375 -0.6623  2.6769
 2009TIP3   OH227517   1.227   3.661  13.522  0.1090 -0.5995  0.3185
 2009TIP3    H127518   1.306   3.709  13.496 -0.6474  0.1793 -0.5646
 2009TIP3    H227519   1.259   3.573  13.543  1.3187 -0.0912  0.6884
 2010TIP3   OH227520   2.873   1.138   2.252  0.0017 -0.0186  0.6192
 2010TIP3    H127521   2.845   1.202   2.187 -0.2705 -0.2982  0.4585
 2010TIP3    H227522   2.795   1.123   2.306 -0.0024 -0.3955  0.5073
 2011TIP3   OH227523   4.306   2.829  15.993  0.6208 -0.6345  0.1356
 2011TIP3    H127524   4.224   2.825  16.043  1.8736  0.0186  2.2907
 2011TIP3    H227525   4.367   2.774  16.043  1.9493  0.1744 -0.5775
 2012TIP3   OH227526   2.658   5.996   4.402  0.3473 -0.3016 -0.7949
 2012TIP3    H127527   2.635   5.938   4.329 -0.4234 -0.5245 -0.3804
 2012TIP3    H227528   2.699   5.938   4.466  0.3289 -0.2396 -0.7276
 2013TIP3   OH227529   5.258   0.592  13.245  0.1388 -0.6011  0.1845
 2013TIP3    H127530   5.297   0.581  13.332  0.9183  0.1850 -0.0679
 2013TIP3    H227531   5.331   0.612  13.187 -0.3463 -1.4012 -0.7134
 2014TIP3   OH227532   0.433   0.548   4.177  0.5959  0.2257  0.6693
 2014TIP3    H127533   0.508   0.607   4.175 -0.0463  1.0647  1.3095
 2014TIP3    H227534   0.410   0.536   4.084  0.6311  1.1106  0.5404
 2015TIP3   OH227535   1.991   1.996   1.269  0.1297  0.3744 -0.2374
 2015TIP3    H127536   2.054   2.017   1.200 -1.4543 -0.1255 -1.8747
 2015TIP3    H227537   1.937   2.075   1.278 -1.3473 -0.4554 -1.4677
 2016TIP3   OH227538   6.687   1.229   4.926  0.2033 -0.6193 -0.1921
 2016TIP3    H127539   6.678   1.286   5.003  0.2356 -0.1196 -0.5550
 2016TIP3    H227540   6.600   1.191   4.915 -0.4648  1.1194 -1.2936
 2017TIP3   OH227541   5.110   4.139   3.794 -0.8914  0.0677 -0.2006
 2017TIP3    H127542   5.058   4.065   3.761 -0.0965 -1.7043  2.3554
 2017TIP3    H227543   5.181   4.148   3.731 -0.5277 -1.9287 -0.1225
 2018TIP3   OH227544   2.374   1.723   2.981 -0.6358 -0.1052 -0.3519
 2018TIP3    H127545   2.439   1.656   3.004  1.7507  1.6226 -1.8105
 2018TIP3    H227546   2.358   1.769   3.064 -0.3511 -0.8415  0.1251
 2019TIP3   OH227547   5.692   2.369   0.281  0.2402 -0.6345 -0.0039
 2019TIP3    H127548   5.679   2.355   0.375  1.1682  0.0542  0.2325
 2019TIP3    H227549   5.787   2.365   0.269  0.1419 -0.4718 -0.8755
 2020TIP3   OH227550   4.847   2.824  13.909  0.2779 -0.1435 -0.0201
 2020TIP3    H127551   4.767   2.771  13.904  1.0027 -1.2620 -0.0409
 2020TIP3    H227552   4.837   2.875  13.989  0.3078 -1.5807  0.9306
 2021TIP3   OH227553   0.699   6.184   2.341  0.3920 -0.5282 -0.6761
 2021TIP3    H127554   0.614   6.193   2.385  0.1980 -1.4794 -0.8335
 2021TIP3    H227555   0.694   6.243   2.267  1.0909  1.8469  1.1204
 2022TIP3   OH227556   3.353   0.941   4.702  0.0960  0.1933 -0.5084
 2022TIP3    H127557   3.371   1.035   4.712 -0.3317 -0.1015  4.0070
 2022TIP3    H227558   3.438   0.899   4.713 -0.2576 -0.1004  1.3530
 2023TIP3   OH227559   1.559   5.294  16.782 -0.1342  0.3945 -0.1614
 2023TIP3    H127560   1.598   5.232  16.843  0.3003  0.0140 -0.8197
 2023TIP3    H227561   1.539   5.242  16.704 -1.4083  0.7017 -0.0619
 2024TIP3   OH227562   5.653   5.421  11.226  0.2505 -0.3760  0.7426
 2024TIP3    H127563   5.697   5.337  11.242  2.2607  0.7182  1.0954
 2024TIP3    H227564   5.652   5.464  11.312  0.2438  0.4255  0.3460
 2025TIP3   OH227565   3.714   5.674  11.415  0.0514 -0.4398  0.1255
 2025TIP3    H127566   3.654   5.674  11.341  1.9783 -0.4666 -1.5074
 2025TIP3    H227567   3.748   5.584  11.418 -0.4863 -0.5983  1.4318
 2026TIP3   OH227568   5.748   1.080   3.985  0.4052 -0.6215  0.9615
 2026TIP3    H127569   5.688   1.092   3.911  1.4142  1.3680  0.4071
 2026TIP3    H227570   5.775   0.989   3.980  0.5262 -0.5061 -1.2220
 2027TIP3   OH227571   1.488   3.838   1.504  0.0225 -0.7191  0.0143
 2027TIP3    H127572   1.394   3.826   1.517  0.0389  0.6648  1.6581
 2027TIP3    H227573   1.496   3.929   1.474  0.8901 -0.5225  0.8169
 2028TIP3   OH227574   4.707   3.566   1.256 -0.0283 -0.1780 -0.4596
 2028TIP3    H127575   4.685   3.547   1.347 -0.5007 -0.3542 -0.6082
 2028TIP3    H227576   4.655   3.504   1.205  0.2748 -0.1168 -0.8484
 2029TIP3   OH227577   3.068   1.660   1.224 -0.4443  0.1032  0.1669
 2029TIP3    H127578   3.098   1.658   1.315 -1.1000 -0.3128  0.3760
 2029TIP3    H227579   3.137   1.706   1.177  1.5250 -2.6287  0.2762
 2030TIP3   OH227580   6.593   3.455  14.042 -0.3725  0.2527 -0.1065
 2030TIP3    H127581   6.639   3.378  14.077 -0.7507 -0.2010 -0.5823
 2030TIP3    H227582   6.549   3.422  13.963  0.0818  1.1450 -0.7396
 2031TIP3   OH227583   2.023   2.134  13.953  0.2151  0.3148  0.4358
 2031TIP3    H127584   1.949   2.135  14.014  0.6508  0.5600  0.9682
 2031TIP3    H227585   1.983   2.125  13.866 -0.6747  4.2802  0.3683
 2032TIP3   OH227586   5.617   5.577   2.013  0.0019 -0.5020 -0.2488
 2032TIP3    H127587   5.575   5.663   2.007  0.6144 -0.2329 -0.7044
 2032TIP3    H227588   5.594   5.545   2.101 -0.5940 -0.0691 -0.2472
 2033TIP3   OH227589   0.822   6.510   0.118  0.4049 -0.0554  0.1610
 2033TIP3    H127590   0.750   6.447   0.126 -0.5081  0.6827 -2.0930
 2033TIP3    H227591   0.780   6.596   0.122  1.5421  0.4395  2.1516
 2034TIP3   OH227592   2.430   0.123   4.021 -0.3644  0.5502  0.5447
 2034TIP3    H127593   2.451   0.170   4.102 -0.9737 -0.8611  1.5573
 2034TIP3    H227594   2.352   0.071   4.043 -0.4852  0.0840 -0.9227
 2035TIP3   OH227595   4.320   5.228  15.590  0.4184 -0.0708  0.3180
 2035TIP3    H127596   4.303   5.321  15.608 -0.4508 -0.1713  0.0474
 2035TIP3    H227597   4.409   5.214  15.621  1.3068  1.3547 -1.4836
 2036TIP3   OH227598   6.535   2.492  11.979  0.3751  0.1371 -0.4016
 2036TIP3    H127599   6.515   2.465  12.069 -0.2962 -1.6209 -1.0511
 2036TIP3    H227600   6.577   2.578  11.988  0.9409 -0.3294  1.6342
 2037TIP3   OH227601   3.217   5.721  11.619 -0.3683 -0.1135 -0.1321
 2037TIP3    H127602   3.174   5.754  11.698  1.8623 -1.1425  1.5605
 2037TIP3    H227603   3.146   5.685  11.566 -1.9864  1.2072  1.0852
 2038TIP3   OH227604   3.091   4.569   3.174  0.2321 -0.2523 -0.2434
 2038TIP3    H127605   3.115   4.479   3.198 -1.6167 -0.2415  1.7084
 2038TIP3    H227606   3.047   4.560   3.089 -2.8648 -1.6349  1.4373
 2039TIP3   OH227607   0.104   6.719   3.991 -0.5631  0.5589  0.6698
 2039TIP3    H127608   0.138   6.787   3.934 -1.2700 -0.0736 -0.5297
 2039TIP3    H227609   0.009   6.730   3.988 -0.6175  0.3195  1.4711
 2040TIP3   OH227610   5.674   1.197   1.974 -0.0751  0.1727  0.6204
 2040TIP3    H127611   5.593   1.245   1.958  0.0068 -0.0387 -0.4833
 2040TIP3    H227612   5.693   1.153   1.891  0.8230 -0.3029  1.0641
 2041TIP3   OH227613   0.440   0.336   5.300 -0.0077  0.2678 -0.2654
 2041TIP3    H127614   0.435   0.383   5.383  1.0148  0.3578 -0.2547
 2041TIP3    H227615   0.401   0.250   5.318  0.5785  0.1412  0.4084
 2042TIP3   OH227616   1.864   5.094   1.835  0.0173  0.5577 -0.0986
 2042TIP3    H127617   1.873   5.123   1.744 -0.3716 -1.3685 -0.7671
 2042TIP3    H227618   1.824   5.007   1.829  0.0878  0.3631  1.9106
 2043TIP3   OH227619   3.723   1.140   1.636 -0.2876 -0.4068 -0.1257
 2043TIP3    H127620   3.780   1.070   1.666  0.5080  0.0703 -0.5146
 2043TIP3    H227621   3.664   1.099   1.574  0.6365 -0.5895 -0.8913
 2044TIP3   OH227622   2.934   2.282   0.755  0.2939 -0.4928  0.2108
 2044TIP3    H127623   2.964   2.306   0.668  2.2706 -1.4264  0.5916
 2044TIP3    H227624   2.880   2.204   0.741  0.1401 -0.3068 -0.2323
 2045TIP3   OH227625   0.703   6.289   4.030 -0.7998 -0.6028 -0.2236
 2045TIP3    H127626   0.702   6.235   3.950 -1.7845  0.4230 -0.9168
 2045TIP3    H227627   0.733   6.375   4.000  2.0841 -1.1040  1.1152
 2046TIP3   OH227628   6.295   4.781  13.583  0.6383  0.0627 -0.4118
 2046TIP3    H127629   6.215   4.731  13.596  0.0075  1.5816  1.8112
 2046TIP3    H227630   6.265   4.872  13.576  2.1895  0.6964  0.8789
 2047TIP3   OH227631   2.704   2.462   4.024  0.0030  0.2591  0.1103
 2047TIP3    H127632   2.726   2.404   3.951 -1.4174 -0.3603  0.1572
 2047TIP3    H227633   2.649   2.408   4.082  1.1621  0.7181  1.6811
 2048TIP3   OH227634   2.164   3.429   2.774  0.3284 -0.1185 -0.3951
 2048TIP3    H127635   2.239   3.403   2.720  0.4271  0.2494 -0.4334
 2048TIP3    H227636   2.095   3.367   2.750  1.0688 -1.4009  0.7290
 2049TIP3   OH227637   1.114   3.399  13.416  0.0153 -0.5881  0.3734
 2049TIP3    H127638   1.082   3.372  13.330 -1.2282  1.1527  0.2540
 2049TIP3    H227639   1.039   3.390  13.474  0.5208 -0.6324  1.0317
 2050TIP3   OH227640   1.327   0.047   0.673  0.1897  0.4377  0.1368
 2050TIP3    H127641   1.236   0.018   0.666  0.4941 -0.3790 -0.4862
 2050TIP3    H227642   1.379  -0.030   0.650  1.0197  1.2755 -0.8390
 2051TIP3   OH227643   2.723   1.017  15.561 -0.0262 -0.3746  0.5480
 2051TIP3    H127644   2.783   1.045  15.630  0.5480 -0.8566  0.2531
 2051TIP3    H227645   2.638   1.052  15.587  0.6164  1.4237  0.3171
 2052TIP3   OH227646   0.346   6.083   5.115 -0.1481 -0.4544  0.4493
 2052TIP3    H127647   0.314   6.140   5.185  1.8526  0.4929  0.6019
 2052TIP3    H227648   0.281   6.092   5.045  0.0105  1.8378  0.5631
 2053TIP3   OH227649   4.072   1.770   3.869 -0.0896  0.1314 -0.0996
 2053TIP3    H127650   4.106   1.682   3.885  1.8733  0.5501 -1.8010
 2053TIP3    H227651   4.109   1.823   3.940  2.0752  0.3797 -1.3721
 2054TIP3   OH227652   0.469   3.544  11.043  0.2488 -0.2927  0.1467
 2054TIP3    H127653   0.535   3.529  10.976 -1.7273  0.2347 -2.0077
 2054TIP3    H227654   0.486   3.632  11.075 -0.4402  0.5296 -1.6668
 2055TIP3   OH227655   4.546   4.287  16.265  0.7889 -0.4697  0.1865
 2055TIP3    H127656   4.495   4.287  16.345  0.8318 -3.1525  0.2687
 2055TIP3    H227657   4.541   4.377  16.233 -1.3963  0.0276  1.8092
 2056TIP3   OH227658   3.084   2.907   6.830  0.1494 -0.0864  0.0907
 2056TIP3    H127659   3.076   2.988   6.881  0.1252 -0.9887  1.5471
 2056TIP3    H227660   3.178   2.891   6.824  0.2045  0.6507 -1.1878
 2057TIP3   OH227661   5.297   2.731   0.705  0.3966  0.3638  0.4374
 2057TIP3    H127662   5.348   2.746   0.625  0.6347 -0.6770  0.3781
 2057TIP3    H227663   5.358   2.685   0.763 -0.6956 -1.5645  0.0897
 2058TIP3   OH227664   2.623   5.480   2.946 -0.2716 -0.1926 -0.8075
 2058TIP3    H127665   2.528   5.473   2.938 -0.3070 -1.3362  0.3664
 2058TIP3    H227666   2.656   5.400   2.906  0.1449 -0.1792 -0.4992
 2059TIP3   OH227667   4.462   5.515  15.279 -0.5947 -0.3963  0.4616
 2059TIP3    H127668   4.517   5.589  15.252  1.0210 -1.6895  0.1152
 2059TIP3    H227669   4.479   5.505  15.373  0.6476 -1.4607  0.1549
 2060TIP3   OH227670   6.077   0.541   5.161 -0.2258 -0.3251  0.1354
 2060TIP3    H127671   6.048   0.536   5.070 -0.6096 -1.1244  0.2918
 2060TIP3    H227672   6.005   0.585   5.207 -0.2437 -0.3504  0.1322
 2061TIP3   OH227673   2.258   5.747  15.118 -0.3311  0.2902  0.4258
 2061TIP3    H127674   2.353   5.750  15.125 -0.3077 -0.7068  0.5533
 2061TIP3    H227675   2.227   5.818  15.175  0.2454 -0.8610  2.1939
 2062TIP3   OH227676   5.113   4.653   4.999  0.3037  0.2273 -0.0782
 2062TIP3    H127677   5.110   4.613   5.086  0.6973 -0.4450 -0.3666
 2062TIP3    H227678   5.132   4.746   5.015  0.8762  0.0069  0.5279
 2063TIP3   OH227679   1.691   5.540  16.870  0.0710  0.0393 -0.1741
 2063TIP3    H127680   1.783   5.567  16.866  0.2978 -0.5385  0.9484
 2063TIP3    H227681   1.692   5.448  16.846 -0.1201 -0.1501  0.5319
 2064TIP3   OH227682   5.793   2.231  11.108 -0.3443 -0.1374 -0.0918
 2064TIP3    H127683   5.699   2.237  11.122 -0.1983  2.0202  0.1287
 2064TIP3    H227684   5.803   2.161  11.044 -1.9156 -1.8840  1.4996
 2065TIP3   OH227685   2.780   1.152  14.110  0.4800  0.6374 -0.0903
 2065TIP3    H127686   2.717   1.223  14.109 -0.0129  0.2108  0.1106
 2065TIP3    H227687   2.753   1.094  14.039  1.8071  1.4332 -1.2606
 2066TIP3   OH227688   1.499   5.570  13.688  0.0457  0.1557 -0.0322
 2066TIP3    H127689   1.561   5.500  13.706 -1.8206 -2.1542 -2.1782
 2066TIP3    H227690   1.513   5.592  13.596 -1.3810  0.5740 -0.1667
 2067TIP3   OH227691   0.651   4.677  12.920  0.5350 -0.2118 -0.5350
 2067TIP3    H127692   0.692   4.718  12.843 -1.2773  0.2820 -1.2437
 2067TIP3    H227693   0.631   4.749  12.978 -1.3517 -0.2235 -1.1598
 2068TIP3   OH227694   4.739   5.093   2.232  0.4646  0.4555  0.7061
 2068TIP3    H127695   4.806   5.161   2.243  1.3721  0.0558 -1.9598
 2068TIP3    H227696   4.692   5.118   2.153  1.4200 -2.4951 -0.8409
 2069TIP3   OH227697   5.035   4.067  16.873 -0.3797 -0.5146 -0.0380
 2069TIP3    H127698   5.049   4.116  16.954 -1.5151  0.2036 -0.2590
 2069TIP3    H227699   5.036   4.133  16.804  0.3489 -1.0985 -0.5943
 2070TIP3   OH227700   6.429   3.580  13.425  0.2948 -0.2089  0.2258
 2070TIP3    H127701   6.523   3.587  13.411 -0.0291  0.4698 -1.7060
 2070TIP3    H227702   6.415   3.619  13.512  1.7294  0.0834  0.3361
 2071TIP3   OH227703   6.409   0.455   6.000  0.0641 -0.0546 -0.1571
 2071TIP3    H127704   6.503   0.468   5.994 -0.2196  1.4476 -1.9685
 2071TIP3    H227705   6.372   0.537   5.967 -1.8676 -0.9665 -0.3270
 2072TIP3   OH227706   6.597   1.826   4.876  0.4576 -0.0021  0.1746
 2072TIP3    H127707   6.578   1.783   4.960 -1.7996  0.2136 -0.1812
 2072TIP3    H227708   6.624   1.755   4.818  2.2857 -0.1165  1.1449
 2073TIP3   OH227709   6.170   5.457  10.548  0.3184  0.1726  0.8109
 2073TIP3    H127710   6.253   5.467  10.593 -0.2647 -0.5821  2.0880
 2073TIP3    H227711   6.107   5.506  10.601 -0.3267 -0.5294  0.7189
 2074TIP3   OH227712   6.055   4.486   0.692 -0.1056  0.2916 -0.0456
 2074TIP3    H127713   6.083   4.396   0.671 -0.0612 -0.3925  2.7852
 2074TIP3    H227714   6.127   4.541   0.664  0.3005 -0.6527 -0.8733
 2075TIP3   OH227715   6.098   6.340  13.465 -0.2366 -0.1603  0.5469
 2075TIP3    H127716   6.147   6.355  13.546 -0.8116  1.5491  0.6161
 2075TIP3    H227717   6.103   6.424  13.419 -1.2170 -0.6519 -0.4637
 2076TIP3   OH227718   2.845   5.817  11.330  0.6832  0.0622 -0.1527
 2076TIP3    H127719   2.919   5.875  11.314 -0.0939  1.6906  1.8361
 2076TIP3    H227720   2.779   5.844  11.266  0.1778  1.7058  1.0257
 2077TIP3   OH227721   4.467   1.489   4.142 -0.4230  0.3184 -0.2518
 2077TIP3    H127722   4.434   1.528   4.061 -0.7941 -0.8954 -0.6929
 2077TIP3    H227723   4.447   1.396   4.133  0.9216 -0.0474  0.5640
 2078TIP3   OH227724   3.608   4.148   1.554 -0.2575  0.1474 -0.2922
 2078TIP3    H127725   3.690   4.182   1.590 -0.1421  0.4139 -0.8031
 2078TIP3    H227726   3.541   4.174   1.618 -0.1238  1.0534 -0.5025
 2079TIP3   OH227727   6.127   3.450  12.402 -0.0109 -0.2971  0.2513
 2079TIP3    H127728   6.209   3.451  12.451 -0.8044  2.3760  1.6455
 2079TIP3    H227729   6.134   3.524  12.341 -1.1274 -0.4354 -0.0689
 2080TIP3   OH227730   4.146   3.548  16.765  0.0286 -0.0244 -0.5910
 2080TIP3    H127731   4.121   3.562  16.857 -0.2493 -1.5379 -0.4249
 2080TIP3    H227732   4.080   3.596  16.715  0.8289  1.7546  0.0060
 2081TIP3   OH227733   5.696   2.662  13.234  0.5329  0.2551 -0.1539
 2081TIP3    H127734   5.602   2.666  13.219  0.6542  2.4809 -0.4728
 2081TIP3    H227735   5.731   2.623  13.154 -0.1368 -0.9888  0.1410
 2082TIP3   OH227736   5.766   0.401   0.877 -0.0321  0.1964 -0.8366
 2082TIP3    H127737   5.717   0.320   0.865 -3.2194  2.0689 -1.0139
 2082TIP3    H227738   5.797   0.424   0.790  1.6392 -1.2613 -0.6446
 2083TIP3   OH227739   3.560   0.683  14.829  0.4167 -0.3692  0.4866
 2083TIP3    H127740   3.543   0.590  14.821  0.4966 -0.2994 -0.5122
 2083TIP3    H227741   3.505   0.724  14.762  1.4250  0.1870 -0.0105
 2084TIP3   OH227742   6.116   5.263   2.963  0.1414  0.0497 -0.8906
 2084TIP3    H127743   6.110   5.190   2.902 -0.9991 -2.4104  2.0358
 2084TIP3    H227744   6.173   5.232   3.033 -0.0308  2.1175  0.2187
 2085TIP3   OH227745   6.261   5.539   6.077  0.3870 -0.1668 -0.0949
 2085TIP3    H127746   6.302   5.613   6.032 -0.1399  0.4768  0.4728
 2085TIP3    H227747   6.228   5.576   6.159  1.7610 -1.4265  1.0583
 2086TIP3   OH227748   0.762   2.020  14.766  0.1196  0.5987  0.0884
 2086TIP3    H127749   0.776   1.934  14.727 -0.1939  0.4298  0.3427
 2086TIP3    H227750   0.690   2.007  14.828 -0.5031  1.2280 -0.4835
 2087TIP3   OH227751   6.260   4.135   5.707 -0.0614  0.0116 -0.3775
 2087TIP3    H127752   6.335   4.075   5.707 -0.3389 -0.3410  0.3049
 2087TIP3    H227753   6.202   4.101   5.639  0.3296  0.1950 -0.8025
 2088TIP3   OH227754   0.603   2.387  11.193 -0.1215 -0.2319 -0.5278
 2088TIP3    H127755   0.671   2.408  11.257 -1.2989 -0.9362  0.9934
 2088TIP3    H227756   0.643   2.323  11.135  0.1650 -1.5257  1.0599
 2089TIP3   OH227757   1.880   2.981   1.633  0.1617 -0.2933 -0.2626
 2089TIP3    H127758   1.835   2.982   1.717  0.1483  1.0521 -0.2726
 2089TIP3    H227759   1.810   2.983   1.567  0.2055  0.7740 -0.2847
 2090TIP3   OH227760   2.941   6.692   2.166 -0.6531  0.2275  0.1405
 2090TIP3    H127761   3.017   6.720   2.218 -1.1056  2.6234 -0.4399
 2090TIP3    H227762   2.872   6.754   2.190 -1.7489 -0.5150 -1.0550
 2091TIP3   OH227763   0.117   4.469   1.283  0.0856  0.9537 -0.1403
 2091TIP3    H127764   0.109   4.424   1.367 -1.8534  0.7168 -0.4274
 2091TIP3    H227765   0.207   4.454   1.256  0.2168 -0.4772  1.0467
 2092TIP3   OH227766   3.101   0.929   4.588 -0.3698  0.0200  0.2407
 2092TIP3    H127767   3.074   1.004   4.536 -2.2282 -0.9541 -0.2141
 2092TIP3    H227768   3.195   0.943   4.603 -0.6674  2.3419  0.0425
 2093TIP3   OH227769   1.154   1.041   3.294  0.1376 -0.5648 -0.3208
 2093TIP3    H127770   1.099   1.119   3.292 -1.2247 -1.5170 -0.7654
 2093TIP3    H227771   1.236   1.070   3.334 -0.6763  0.8806  0.3260
 2094TIP3   OH227772   6.058   5.985  16.903  0.6799  0.0114  0.5842
 2094TIP3    H127773   6.020   5.911  16.854 -2.4315  1.6020  0.4558
 2094TIP3    H227774   5.991   6.008  16.967  1.2690  3.2323  0.1045
 2095TIP3   OH227775   0.711   1.126  16.658  0.3927 -0.8353  0.2861
 2095TIP3    H127776   0.776   1.091  16.597  2.4822  1.0527  1.3646
 2095TIP3    H227777   0.703   1.219  16.634  0.7066 -0.2354  2.3940
 2096TIP3   OH227778   2.093   2.665   3.559  0.5349 -0.5764 -0.1932
 2096TIP3    H127779   2.168   2.610   3.580  0.0806 -0.9095  0.5557
 2096TIP3    H227780   2.023   2.604   3.536  0.6304 -0.2554 -1.3831
 2097TIP3   OH227781   0.775   6.123   3.789 -0.4872 -0.4148  0.0949
 2097TIP3    H127782   0.866   6.122   3.759  0.8443  1.7585  3.7576
 2097TIP3    H227783   0.759   6.034   3.821  0.3194 -0.8249 -0.6417
 2098TIP3   OH227784   2.403   2.957   5.577  0.1736  0.4147  0.3815
 2098TIP3    H127785   2.334   2.954   5.511  0.7229 -1.0641 -0.1305
 2098TIP3    H227786   2.356   2.970   5.660 -0.6689  0.0937 -0.0413
 2099TIP3   OH227787   0.194   5.288   5.830 -0.0354 -0.2415 -0.3695
 2099TIP3    H127788   0.198   5.376   5.792  0.1943  0.1694  0.6038
 2099TIP3    H227789   0.151   5.236   5.762 -1.5221  0.9352 -0.3731
 2100TIP3   OH227790   5.373   2.899   3.126 -0.1657  0.5375  0.1793
 2100TIP3    H127791   5.374   2.915   3.221 -1.1269  0.7086  0.1672
 2100TIP3    H227792   5.435   2.826   3.114  0.3556  0.8568  0.8690
 2101TIP3   OH227793   2.343   1.485  14.987 -0.1843  0.4118  0.1311
 2101TIP3    H127794   2.270   1.423  14.995  0.7509 -0.5756  1.1569
 2101TIP3    H227795   2.384   1.485  15.073  0.4445  1.7086 -0.1606
 2102TIP3   OH227796   3.075   4.065   5.465 -0.0159  0.0477 -0.4251
 2102TIP3    H127797   3.038   3.993   5.515 -0.5921 -0.4972 -1.6087
 2102TIP3    H227798   3.019   4.071   5.387  0.9209  0.8107 -1.0499
 2103TIP3   OH227799   0.890   4.049   3.946 -0.0747  0.2069 -0.3206
 2103TIP3    H127800   0.882   4.009   3.859 -1.1538 -0.2510 -0.0297
 2103TIP3    H227801   0.970   4.012   3.983  0.3778  0.3951 -1.1230
 2104TIP3   OH227802   5.269   4.673   4.612  0.3734  0.2735 -0.3966
 2104TIP3    H127803   5.231   4.587   4.594  1.2351 -0.2385  0.1812
 2104TIP3    H227804   5.204   4.716   4.668 -0.0596 -0.0065 -0.6807
 2105TIP3   OH227805   2.422   5.031   0.475 -0.1234  0.0418  0.0456
 2105TIP3    H127806   2.500   5.006   0.523 -1.3844 -0.4274  1.9138
 2105TIP3    H227807   2.443   5.116   0.435  1.9653 -0.9713 -1.0494
 2106TIP3   OH227808   0.662   4.380  11.032 -0.2901 -0.1414 -0.2510
 2106TIP3    H127809   0.726   4.438  10.990 -0.2537 -0.2222 -0.3082
 2106TIP3    H227810   0.598   4.439  11.071  1.0409 -0.0081  1.7702
 2107TIP3   OH227811   4.009   1.542   5.716  0.2084 -0.0885 -0.3323
 2107TIP3    H127812   3.932   1.520   5.664  1.3422 -0.8193 -1.7228
 2107TIP3    H227813   4.043   1.458   5.745 -0.3551  0.3016  1.5496
 2108TIP3   OH227814   6.607   6.317   3.883 -0.9284 -0.3839  0.4114
 2108TIP3    H127815   6.623   6.351   3.971  0.0630 -1.0589  0.4996
 2108TIP3    H227816   6.677   6.254   3.869  1.4612  2.7584 -2.5211
 2109TIP3   OH227817   6.621   6.608  12.290  0.2321  0.0538  0.2317
 2109TIP3    H127818   6.713   6.586  12.298  0.0615 -0.8682 -0.2243
 2109TIP3    H227819   6.620   6.690  12.240  0.7425 -0.9809 -1.5450
 2110TIP3   OH227820   6.497   1.414  12.047  0.3831  0.0708 -0.2976
 2110TIP3    H127821   6.506   1.441  12.138  0.9406 -1.5327  0.1283
 2110TIP3    H227822   6.573   1.358  12.030 -0.9836 -1.6052 -1.0327
 2111TIP3   OH227823   0.466   0.698  12.203  0.4406  0.3655  0.3942
 2111TIP3    H127824   0.536   0.689  12.269  1.1527  0.8320 -0.2915
 2111TIP3    H227825   0.512   0.725  12.123 -0.6694  1.8699  0.2458
 2112TIP3   OH227826   2.518   6.300   2.408  0.2294  0.1061  0.3988
 2112TIP3    H127827   2.574   6.330   2.479  0.4563  0.1251  0.2140
 2112TIP3    H227828   2.574   6.303   2.330 -0.2632  0.9344  0.0651
 2113TIP3   OH227829   3.878   2.209   3.850  0.3911 -0.0320 -0.2224
 2113TIP3    H127830   3.855   2.116   3.850 -0.0179  0.0591 -1.3817
 2113TIP3    H227831   3.818   2.248   3.786  1.3030  0.8457 -0.5484
 2114TIP3   OH227832   4.284   2.713   6.831  0.5413  0.4484  0.4041
 2114TIP3    H127833   4.309   2.777   6.763 -0.1245 -0.3831 -0.6385
 2114TIP3    H227834   4.217   2.659   6.789  1.1703 -1.0064  1.2490
 2115TIP3   OH227835   4.536   6.400   1.809 -0.2351  0.1825  0.0320
 2115TIP3    H127836   4.593   6.467   1.769  0.8569 -1.1417 -0.6982
 2115TIP3    H227837   4.448   6.437   1.805  0.4760  1.9615  0.4855
 2116TIP3   OH227838   4.015   5.483  12.569  0.4238 -0.2780 -0.2852
 2116TIP3    H127839   4.066   5.419  12.619  0.8906 -0.4842 -1.0176
 2116TIP3    H227840   4.044   5.568  12.603 -0.1706 -0.4437  0.6620
 2117TIP3   OH227841   0.691   4.396   2.537  0.6140  0.1868 -0.4620
 2117TIP3    H127842   0.685   4.312   2.492 -3.0930 -0.5285  1.1159
 2117TIP3    H227843   0.669   4.376   2.628  3.3362  2.3158  0.7345
 2118TIP3   OH227844   3.021   1.189  10.890 -0.8308 -0.2655 -0.1765
 2118TIP3    H127845   3.008   1.278  10.923  0.1020 -0.3454  0.4202
 2118TIP3    H227846   3.054   1.202  10.801  1.6822  0.0456  0.7584
 2119TIP3   OH227847   0.072   4.468   0.741 -0.3470 -0.3954 -0.5766
 2119TIP3    H127848   0.135   4.519   0.791 -1.7441  0.0722  0.7621
 2119TIP3    H227849   0.068   4.511   0.656 -2.0025  2.1950  0.7488
 2120TIP3   OH227850   0.196   0.948  14.245  0.2585  0.3816 -0.2272
 2120TIP3    H127851   0.154   0.947  14.159  0.2487  1.7043 -0.2432
 2120TIP3    H227852   0.134   0.995  14.301  0.3175 -0.3797  0.4743
 2121TIP3   OH227853   0.125   0.960  12.447 -0.1864  0.1225 -0.2050
 2121TIP3    H127854   0.142   0.878  12.494 -1.6045 -0.4290 -0.6324
 2121TIP3    H227855   0.158   0.944  12.359 -1.2506 -0.3193 -0.5371
 2122TIP3   OH227856   5.196   5.434  11.256  0.4411  0.2863  0.1495
 2122TIP3    H127857   5.173   5.348  11.223 -1.6334  1.0751 -0.5651
 2122TIP3    H227858   5.234   5.418  11.342 -1.6652 -1.2062  0.8263
 2123TIP3   OH227859   1.877   4.938   4.632  0.1756  0.0629 -0.2859
 2123TIP3    H127860   1.911   4.852   4.657  1.9736  0.0759 -2.4834
 2123TIP3    H227861   1.814   4.920   4.562  1.0907  0.5724 -1.2511
 2124TIP3   OH227862   5.131   5.168  15.661 -0.1134  0.5378  0.5810
 2124TIP3    H127863   5.154   5.152  15.753 -0.1576  1.4374  0.7575
 2124TIP3    H227864   5.162   5.091  15.615 -0.4276 -0.0894  1.4072
 2125TIP3   OH227865   1.586   3.060  12.743  0.3434  0.1174  0.4398
 2125TIP3    H127866   1.644   2.986  12.758  1.0935  1.0797  2.5514
 2125TIP3    H227867   1.636   3.136  12.772 -1.4226  1.1302  0.9134
 2126TIP3   OH227868   0.343   2.925   1.415  0.6928  0.2921 -0.3715
 2126TIP3    H127869   0.350   3.002   1.471  1.1295 -0.1331  0.1737
 2126TIP3    H227870   0.332   2.960   1.327  1.3996  0.9835 -0.1980
 2127TIP3   OH227871   3.278   3.958  16.656 -0.0647 -0.2815 -0.3302
 2127TIP3    H127872   3.265   3.877  16.606  0.4809 -0.5357 -0.0747
 2127TIP3    H227873   3.285   4.026  16.589 -3.2861 -0.0123 -0.4545
 2128TIP3   OH227874   3.119   6.494   2.890 -0.2572  0.1386 -0.2912
 2128TIP3    H127875   3.064   6.526   2.962  0.3288  0.3374  0.0727
 2128TIP3    H227876   3.059   6.446   2.834 -0.8376  0.4958  0.0163
 2129TIP3   OH227877   0.427   5.267   1.388  0.0624 -0.2541 -0.3096
 2129TIP3    H127878   0.350   5.212   1.376 -0.6511  0.6007  0.3126
 2129TIP3    H227879   0.399   5.335   1.449  1.7372 -0.8008  1.1217
 2130TIP3   OH227880   5.373   4.932   0.481 -0.6902  0.6882  0.0463
 2130TIP3    H127881   5.436   4.873   0.524 -0.2856  0.1436 -1.2602
 2130TIP3    H227882   5.328   4.975   0.553  0.0396 -0.1378  1.0218
 2131TIP3   OH227883   2.290   5.222  14.401  0.3684  0.2712  0.0506
 2131TIP3    H127884   2.310   5.275  14.478 -1.4281 -0.4841  1.0638
 2131TIP3    H227885   2.195   5.212  14.403  0.4916 -1.3080 -1.2408
 2132TIP3   OH227886   3.465   1.597  13.181  0.6798  0.5283  0.6062
 2132TIP3    H127887   3.555   1.587  13.150 -0.1254 -0.0827 -1.6755
 2132TIP3    H227888   3.473   1.614  13.274  3.1751  0.7742  0.3773
 2133TIP3   OH227889   5.512   0.304  10.892  0.4400 -0.0022  0.3734
 2133TIP3    H127890   5.474   0.391  10.881 -2.0023 -1.0571  0.1781
 2133TIP3    H227891   5.496   0.260  10.809 -0.0637 -1.2826  1.1284
 2134TIP3   OH227892   5.227   5.734  13.648  0.0091  0.5560 -0.0601
 2134TIP3    H127893   5.288   5.719  13.721 -1.6511  0.2914  1.3083
 2134TIP3    H227894   5.279   5.779  13.582  2.3031 -1.7207  0.1433
 2135TIP3   OH227895   3.599   6.240  16.800  0.0029  0.3183  0.5810
 2135TIP3    H127896   3.675   6.224  16.856 -0.7174 -0.9009  1.2067
 2135TIP3    H227897   3.579   6.333  16.813  0.8666  0.4480  1.0450
 2136TIP3   OH227898   5.930   4.091  12.831 -0.0807  0.1689  0.3884
 2136TIP3    H127899   5.995   4.148  12.872  0.1599 -0.2109  0.5300
 2136TIP3    H227900   5.961   4.002  12.847  1.6778  0.0294 -3.2670
 2137TIP3   OH227901   4.988   4.913   0.560  0.0712  1.0352  0.2706
 2137TIP3    H127902   4.996   4.982   0.625  1.3785  1.6441 -0.5304
 2137TIP3    H227903   5.047   4.938   0.490 -1.2113  0.3170 -1.1042
 2138TIP3   OH227904   5.718   5.639   4.579 -0.1376 -0.4666 -0.1858
 2138TIP3    H127905   5.803   5.596   4.569 -0.4167 -0.9722 -0.3898
 2138TIP3    H227906   5.731   5.699   4.653  1.3295  1.8304 -2.2482
 2139TIP3   OH227907   1.574   3.995   5.916 -0.3803  0.2014 -0.2276
 2139TIP3    H127908   1.510   4.066   5.925 -0.8102  0.4582 -4.3070
 2139TIP3    H227909   1.656   4.039   5.893 -0.4949 -0.5082 -2.1213
 2140TIP3   OH227910   6.164   2.035   4.817 -0.2639  0.3143 -0.3189
 2140TIP3    H127911   6.101   1.985   4.870 -0.6048 -0.9650 -1.9188
 2140TIP3    H227912   6.250   2.009   4.851 -0.5307  1.0099  0.9321
 2141TIP3   OH227913   4.498   4.854   3.493  0.6846  0.2403  0.4989
 2141TIP3    H127914   4.477   4.793   3.563 -1.7967 -1.4628 -1.6540
 2141TIP3    H227915   4.560   4.807   3.438 -0.9823 -0.2431 -0.9912
 2142TIP3   OH227916   1.102   1.834   1.528 -0.2497 -0.5456 -0.0979
 2142TIP3    H127917   1.076   1.911   1.580  1.2176  0.3035 -0.5810
 2142TIP3    H227918   1.167   1.790   1.582  0.7742 -0.0434 -0.9092
 2143TIP3   OH227919   3.276   5.595  12.947  0.0201 -0.2349  0.2971
 2143TIP3    H127920   3.366   5.615  12.974  0.0822 -0.7900  0.5088
 2143TIP3    H227921   3.242   5.678  12.913  1.4705 -0.6374 -2.1938
 2144TIP3   OH227922   3.154   2.441   1.176 -0.7829 -0.0627 -0.2373
 2144TIP3    H127923   3.100   2.370   1.143 -1.3124  1.0108 -1.7102
 2144TIP3    H227924   3.207   2.400   1.245 -1.3703 -1.7769 -0.7727
 2145TIP3   OH227925   4.802   4.934  12.698 -0.0051  0.3437  0.2650
 2145TIP3    H127926   4.720   4.927  12.649  0.5666  3.6289 -1.3065
 2145TIP3    H227927   4.870   4.917  12.633  0.6355  0.9212  0.7840
 2146TIP3   OH227928   5.155   1.691  14.643  0.0793 -0.6318 -0.0329
 2146TIP3    H127929   5.153   1.775  14.598 -1.0611 -0.3660  0.4940
 2146TIP3    H227930   5.210   1.706  14.720 -0.8924 -0.1163  0.5559
 2147TIP3   OH227931   0.443   3.666  13.648  0.2657 -0.5704  0.4755
 2147TIP3    H127932   0.517   3.608  13.635 -0.2818 -1.0706 -0.4118
 2147TIP3    H227933   0.410   3.643  13.735  1.1731 -0.3040  0.9030
 2148TIP3   OH227934   0.890   3.966   3.649 -0.1917  0.9225  0.1366
 2148TIP3    H127935   0.896   3.919   3.566  0.7169 -0.5008  0.9719
 2148TIP3    H227936   0.852   4.051   3.627  3.1273  1.8805 -2.2776
 2149TIP3   OH227937   6.666   3.446   5.746  0.3091 -0.0774 -0.5596
 2149TIP3    H127938   6.694   3.373   5.692 -0.8745 -0.6599 -0.3799
 2149TIP3    H227939   6.611   3.407   5.814  0.5639  0.8367  0.1885
 2150TIP3   OH227940   4.541   5.712   4.067  0.2735 -0.6242  0.0246
 2150TIP3    H127941   4.466   5.768   4.083 -0.0895 -0.3141 -2.5645
 2150TIP3    H227942   4.617   5.770   4.077  0.1920 -0.8054  2.0388
 2151TIP3   OH227943   1.025   5.144   2.263  0.1142  0.1801 -0.3108
 2151TIP3    H127944   1.063   5.183   2.342  0.5264  2.5405 -1.6217
 2151TIP3    H227945   0.987   5.062   2.292  0.7093  0.7809  2.2460
 2152TIP3   OH227946   5.239   1.922  16.415 -0.0308  0.1943  0.3662
 2152TIP3    H127947   5.225   1.993  16.478  0.2706 -0.7870  1.5553
 2152TIP3    H227948   5.156   1.915  16.368 -1.3242 -1.1229  2.7734
 2153TIP3   OH227949   4.005   2.616  12.475 -0.7451 -0.1015  0.6233
 2153TIP3    H127950   4.039   2.700  12.446  0.5872 -1.0611 -0.6843
 2153TIP3    H227951   3.932   2.597  12.416 -0.7257 -0.0875  0.5952
 2154TIP3   OH227952   5.928   0.408   1.430 -0.2923  0.4907  0.0833
 2154TIP3    H127953   5.924   0.313   1.426  1.6885  0.4146 -1.6833
 2154TIP3    H227954   5.852   0.438   1.380  1.2309 -0.2599 -2.8040
 2155TIP3   OH227955   5.420   0.833   3.439  0.1812  0.0735 -0.3704
 2155TIP3    H127956   5.365   0.793   3.371 -1.2363 -1.1232  1.4406
 2155TIP3    H227957   5.437   0.922   3.407  0.3100 -0.7662 -2.7159
 2156TIP3   OH227958   3.908   1.369  11.338 -0.0175  0.1124 -0.3547
 2156TIP3    H127959   3.907   1.279  11.372 -1.3945  0.1676 -0.1991
 2156TIP3    H227960   3.864   1.363  11.253  0.6130  0.5075 -0.7144
 2157TIP3   OH227961   2.137   4.912   5.509 -0.3018 -0.0160  0.4416
 2157TIP3    H127962   2.105   4.822   5.517 -0.0718 -0.6049 -3.8382
 2157TIP3    H227963   2.230   4.903   5.489 -0.4596  1.1181 -0.8650
 2158TIP3   OH227964   0.494   4.264   5.276 -0.5352  0.1374 -0.4588
 2158TIP3    H127965   0.497   4.332   5.209  1.5086 -1.2115 -1.8071
 2158TIP3    H227966   0.580   4.221   5.270 -0.8296 -0.8938  2.0928
 2159TIP3   OH227967   5.879   2.551  17.098 -0.1922  0.1312 -0.6109
 2159TIP3    H127968   5.891   2.480  17.035  1.9653 -0.0321 -0.0378
 2159TIP3    H227969   5.888   2.509  17.183  0.7260  1.0200 -0.2628
 2160TIP3   OH227970   5.416   2.691   5.928  0.2336  1.0479  0.1610
 2160TIP3    H127971   5.332   2.653   5.953  0.0472  0.7391 -0.9109
 2160TIP3    H227972   5.393   2.769   5.879  0.5657  0.6224 -0.6739
 2161TIP3   OH227973   4.573   0.990   3.699 -0.3060 -0.3846 -0.0369
 2161TIP3    H127974   4.611   0.903   3.683  0.7236 -0.0696  0.6601
 2161TIP3    H227975   4.644   1.051   3.679 -0.9526  0.2873 -0.2910
 2162TIP3   OH227976   3.332   4.659   3.276  0.8196  0.0613 -0.2987
 2162TIP3    H127977   3.244   4.641   3.243  1.1516  1.0396 -1.7764
 2162TIP3    H227978   3.378   4.575   3.269  0.4804 -0.0672 -1.0903
 2163TIP3   OH227979   1.342   1.696   6.866 -0.1453 -0.0227 -0.3609
 2163TIP3    H127980   1.415   1.652   6.911  0.8900  0.1811 -1.7734
 2163TIP3    H227981   1.263   1.657   6.904  0.7121 -0.7543  0.7119
 2164TIP3   OH227982   3.929   2.577   1.598  0.1640 -0.3195 -0.0086
 2164TIP3    H127983   3.986   2.561   1.674  0.0498  1.2474  0.4139
 2164TIP3    H227984   3.853   2.623   1.635  0.0938  0.4239 -1.0772
 2165TIP3   OH227985   2.328   5.812  16.674 -0.3230  0.6571 -0.2559
 2165TIP3    H127986   2.394   5.876  16.645  0.6684  0.4051  1.3649
 2165TIP3    H227987   2.362   5.728  16.645 -0.8961  0.7178 -1.1074
 2166TIP3   OH227988   2.017   3.428  13.000  0.2205 -0.2165  0.2429
 2166TIP3    H127989   2.017   3.334  13.016  0.3454 -0.2744 -0.0834
 2166TIP3    H227990   1.934   3.459  13.036 -1.1064 -0.9036 -2.1187
 2167TIP3   OH227991   4.520   4.501   1.639 -0.2318  0.1499 -0.3345
 2167TIP3    H127992   4.600   4.532   1.596  0.6972  1.3992  2.1885
 2167TIP3    H227993   4.450   4.551   1.598  0.5898  0.9844 -0.7307
 2168TIP3   OH227994   1.357   5.487  11.894  0.0990  0.0292 -0.2240
 2168TIP3    H127995   1.424   5.546  11.859  1.4851 -1.9611 -1.0302
 2168TIP3    H227996   1.281   5.502  11.838  0.6894  0.5086 -0.9124
 2169TIP3   OH227997   4.037   2.900  16.823 -0.1346 -0.5736  0.4992
 2169TIP3    H127998   4.055   2.812  16.789 -0.6226 -0.3116 -0.4474
 2169TIP3    H227999   3.960   2.888  16.879 -1.3947 -0.4277 -1.1552
 2170TIP3   OH228000   5.320   2.516   3.370 -0.2171  0.0353 -0.4150
 2170TIP3    H128001   5.407   2.483   3.348 -1.0329 -2.3209 -0.2661
 2170TIP3    H228002   5.266   2.437   3.378 -1.8196  1.3107  1.8804
 2171TIP3   OH228003   3.047   1.056   6.092 -0.1604 -0.1805 -0.5082
 2171TIP3    H128004   3.077   0.973   6.131  0.8947  0.1059 -0.6965
 2171TIP3    H228005   3.001   1.100   6.163 -0.2229 -0.6779 -0.2372
 2172TIP3   OH228006   4.581   2.527  15.896  0.0019 -0.5249  0.0749
 2172TIP3    H128007   4.514   2.463  15.920 -0.1663 -0.9943 -1.6006
 2172TIP3    H228008   4.660   2.476  15.881  0.6262 -0.0184  1.5943
 2173TIP3   OH228009   0.337   1.816  16.911 -0.4454 -0.0644  0.2256
 2173TIP3    H128010   0.387   1.827  16.992 -2.1772 -0.1414  1.3324
 2173TIP3    H228011   0.246   1.818  16.939 -1.0534 -0.9906 -1.6190
 2174TIP3   OH228012   1.582   6.169   5.691  0.0928 -1.0290  0.5160
 2174TIP3    H128013   1.674   6.157   5.713  0.0997  1.3306  1.8972
 2174TIP3    H228014   1.580   6.246   5.635 -0.7634 -2.7571 -1.9456
 2175TIP3   OH228015   2.438   5.140   4.825 -0.0162 -0.2879  0.3560
 2175TIP3    H128016   2.389   5.219   4.848 -0.7517 -0.9178  0.9501
 2175TIP3    H228017   2.383   5.095   4.761  0.1086 -0.6448  0.4984
 2176TIP3   OH228018   6.402   0.931  14.142  0.3225  0.6769 -0.8245
 2176TIP3    H128019   6.420   0.847  14.184 -0.4117  1.6589  1.5408
 2176TIP3    H228020   6.326   0.965  14.189  1.3184  3.1685 -0.9759
 2177TIP3   OH228021   1.508   4.575   1.908 -0.2404  0.0547  0.1820
 2177TIP3    H128022   1.495   4.614   1.995  0.5463  2.0581 -0.5775
 2177TIP3    H228023   1.419   4.566   1.873 -0.4082  1.7427  0.1342
 2178TIP3   OH228024   6.296   5.493  11.296  0.2956 -0.1518  0.3255
 2178TIP3    H128025   6.211   5.464  11.261 -0.5456 -1.5134  3.3159
 2178TIP3    H228026   6.355   5.419  11.278  0.3984  0.0262 -0.0840
 2179TIP3   OH228027   0.901   5.052   0.504 -0.2199  0.4833  0.6828
 2179TIP3    H128028   0.819   5.073   0.458  0.0153  2.6164  1.1900
 2179TIP3    H228029   0.955   5.009   0.437 -1.6105 -0.6611  0.2553
 2180TIP3   OH228030   4.807   2.606   5.871  0.2302  0.0106  0.2225
 2180TIP3    H128031   4.876   2.559   5.825  0.6989  1.7326 -0.9146
 2180TIP3    H228032   4.760   2.539   5.921  0.5292 -1.7171 -1.7518
 2181TIP3   OH228033   6.003   3.323   3.051  0.1798 -0.4421  0.1420
 2181TIP3    H128034   6.080   3.363   3.092 -0.6129  0.1490  1.0604
 2181TIP3    H228035   5.964   3.393   2.999  0.7983 -1.0083 -1.1292
 2182TIP3   OH228036   0.835   6.594  12.243  0.2535 -0.1540 -0.0118
 2182TIP3    H128037   0.807   6.644  12.167 -0.3223 -0.4301  0.0151
 2182TIP3    H228038   0.763   6.532  12.259  0.2425  0.0990  0.9318
 2183TIP3   OH228039   4.788   1.362   1.394  0.1048  0.3892  0.2425
 2183TIP3    H128040   4.855   1.422   1.362 -0.3406 -0.0271 -1.5340
 2183TIP3    H228041   4.706   1.398   1.360 -0.1893 -1.0481 -0.6110
 2184TIP3   OH228042   1.704   1.165   3.344 -0.2925 -0.0259  0.5035
 2184TIP3    H128043   1.741   1.117   3.418  0.5889 -0.2138 -0.0512
 2184TIP3    H228044   1.780   1.205   3.301 -0.7201 -0.4963 -0.7118
 2185TIP3   OH228045   0.022   3.781   5.223  0.6417 -0.5660  0.9293
 2185TIP3    H128046   0.072   3.807   5.146 -0.1263 -1.3351  0.1583
 2185TIP3    H228047  -0.023   3.861   5.250 -0.4873 -0.6981 -0.5022
 2186TIP3   OH228048   3.929   5.545  11.981  0.4971 -0.1761 -0.3388
 2186TIP3    H128049   4.018   5.579  11.994  1.3949 -2.7983  0.9500
 2186TIP3    H228050   3.942   5.463  11.933 -1.4825  0.7502 -2.5497
 2187TIP3   OH228051   4.380   6.704   5.921  0.3415  0.7557 -0.1871
 2187TIP3    H128052   4.341   6.617   5.910  1.1930  0.3322  0.0066
 2187TIP3    H228053   4.373   6.721   6.015  1.1631  0.4046 -0.0553
 2188TIP3   OH228054   0.241   5.495  16.636 -0.1156 -0.4376 -0.7008
 2188TIP3    H128055   0.245   5.570  16.577 -0.9191 -0.6930 -1.0817
 2188TIP3    H228056   0.155   5.456  16.620  0.3175 -1.4771 -0.5519
 2189TIP3   OH228057   1.504   1.370  10.619 -0.0237  0.2210  0.4900
 2189TIP3    H128058   1.579   1.314  10.636 -0.5850 -0.5480  0.4296
 2189TIP3    H228059   1.486   1.412  10.704 -0.0202 -0.1930  0.6931
 2190TIP3   OH228060   4.216   5.172   5.431 -0.3898  0.1856 -0.0934
 2190TIP3    H128061   4.274   5.167   5.507 -0.9467 -0.0931  0.3130
 2190TIP3    H228062   4.182   5.261   5.433 -3.1277 -0.8439  2.0100
 2191TIP3   OH228063   4.284   5.212   0.449  0.0128 -0.0059 -0.3166
 2191TIP3    H128064   4.211   5.216   0.386 -1.4206 -1.1622  1.2364
 2191TIP3    H228065   4.339   5.140   0.417 -0.3813 -0.1911 -0.5843
 2192TIP3   OH228066   0.813   0.806   0.593 -0.3352  0.6369 -0.1624
 2192TIP3    H128067   0.859   0.841   0.517  0.3354  1.8923  0.8019
 2192TIP3    H228068   0.754   0.739   0.557  2.1524 -0.9585 -1.4474
 2193TIP3   OH228069   6.396   4.092  11.996  0.1959  0.4758 -0.2890
 2193TIP3    H128070   6.361   4.180  12.013  1.3338  0.4516  2.4442
 2193TIP3    H228071   6.486   4.108  11.967  1.8963  0.1461  4.4177
 2194TIP3   OH228072   1.357   1.395   4.107 -0.1891 -0.6950 -0.0137
 2194TIP3    H128073   1.306   1.342   4.168 -1.8991  2.7331  1.6059
 2194TIP3    H228074   1.293   1.425   4.042  0.2298  1.5152  0.5761
 2195TIP3   OH228075   3.178   6.334  11.637 -0.3972  0.6124 -0.0193
 2195TIP3    H128076   3.108   6.387  11.599 -0.5362 -0.4838 -1.3014
 2195TIP3    H228077   3.258   6.384  11.620 -0.4032 -0.1002 -2.1928
 2196TIP3   OH228078   2.524   4.343  15.191  0.4603  0.2071  0.2297
 2196TIP3    H128079   2.569   4.263  15.220 -0.6374 -0.9707 -1.2181
 2196TIP3    H228080   2.477   4.316  15.112 -0.8082  2.0307  0.3394
 2197TIP3   OH228081   1.685   4.694   4.807 -0.2625  0.6354  0.2643
 2197TIP3    H128082   1.722   4.720   4.722 -1.1509 -2.8965 -1.2850
 2197TIP3    H228083   1.631   4.769   4.833 -2.2505  0.7246 -3.7117
 2198TIP3   OH228084   2.583   3.596   6.137  0.2686  0.4053 -0.0257
 2198TIP3    H128085   2.496   3.560   6.152  0.1425  1.1762  1.1838
 2198TIP3    H228086   2.643   3.528   6.167  0.1597 -1.0705 -2.9855
 2199TIP3   OH228087   2.409   4.249  12.442  0.0541  0.1340 -0.1551
 2199TIP3    H128088   2.378   4.315  12.503  0.9309  0.9379 -0.5745
 2199TIP3    H228089   2.366   4.270  12.359  0.9961  0.7014 -0.5061
 2200TIP3   OH228090   3.405   2.900  15.493 -0.0213 -0.2509 -0.9375
 2200TIP3    H128091   3.422   2.850  15.573 -1.9497 -2.1904 -1.6844
 2200TIP3    H228092   3.479   2.881  15.437 -0.0519 -1.1444 -0.6793
 2201TIP3   OH228093   6.113   1.443   1.609  0.8752 -0.5408  0.1988
 2201TIP3    H128094   6.183   1.446   1.675  1.3324  0.0131 -0.2981
 2201TIP3    H228095   6.100   1.350   1.592  3.2158 -0.5997 -1.4914
 2202TIP3   OH228096   2.984   4.720  14.347  0.3297 -0.3842 -0.1870
 2202TIP3    H128097   2.938   4.692  14.426  0.7700  0.3604  0.3343
 2202TIP3    H228098   3.074   4.691  14.360  0.4812  0.0492 -0.2493
 2203TIP3   OH228099   6.115   2.721  14.661  0.0386  0.4846  0.2402
 2203TIP3    H128100   6.090   2.746  14.572 -0.6565 -2.2229 -0.3743
 2203TIP3    H228101   6.205   2.690  14.653 -0.1852 -0.2148  0.3693
 2204TIP3   OH228102   4.842   2.650   1.225 -0.4330 -0.4870  0.4590
 2204TIP3    H128103   4.906   2.581   1.238  1.2928  0.5910 -1.9968
 2204TIP3    H228104   4.892   2.731   1.231 -2.2019  0.5093  2.0168
 2205TIP3   OH228105   4.940   3.513   1.699  0.4288  0.0060  0.1167
 2205TIP3    H128106   4.874   3.487   1.634 -0.3080  0.6477  0.5981
 2205TIP3    H228107   5.021   3.521   1.649  0.0982 -0.5733 -0.5271
 2206TIP3   OH228108   0.516   1.737  15.644  0.1640  0.2963  0.2271
 2206TIP3    H128109   0.420   1.741  15.653  0.2004  0.3438  0.6336
 2206TIP3    H228110   0.533   1.762  15.554 -0.4389 -3.1621 -0.9056
 2207TIP3   OH228111   4.801   3.456  14.248  0.3408  0.5870 -0.0417
 2207TIP3    H128112   4.748   3.497  14.179 -0.0623  0.8003  0.3923
 2207TIP3    H228113   4.784   3.363  14.240 -0.0638  0.6522  0.0650
 2208TIP3   OH228114   5.094   3.933   4.114 -0.0861 -0.6831  0.0168
 2208TIP3    H128115   5.161   3.998   4.092  0.8966 -1.6797  0.0493
 2208TIP3    H228116   5.036   3.932   4.038  1.1644 -1.3827 -0.9500
 2209TIP3   OH228117   5.271   0.692   2.987 -0.2076 -0.3436  0.0963
 2209TIP3    H128118   5.200   0.709   3.048  0.4561  1.5172  0.3734
 2209TIP3    H228119   5.324   0.625   3.031 -0.3938  0.1072  1.0221
 2210TIP3   OH228120   1.396   6.696  11.695 -0.5211 -0.1220  0.0203
 2210TIP3    H128121   1.389   6.785  11.731 -0.9864  0.3058 -1.1068
 2210TIP3    H228122   1.405   6.640  11.772  0.3812  0.9532  0.7268
 2211TIP3   OH228123   0.034   1.910   6.565 -0.0688 -0.5844 -0.2109
 2211TIP3    H128124  -0.060   1.915   6.583  0.2324 -0.4694  1.4266
 2211TIP3    H228125   0.051   1.986   6.509 -0.8186 -0.1513  0.1311
 2212TIP3   OH228126   3.855   6.799  15.888 -0.5148  0.2983  0.7752
 2212TIP3    H128127   3.820   6.757  15.967 -0.4955  0.5596  0.9249
 2212TIP3    H228128   3.784   6.857  15.859 -1.0990 -0.8972 -0.2450
 2213TIP3   OH228129   3.835   4.485   2.765 -0.0558 -0.3970 -0.5408
 2213TIP3    H128130   3.878   4.403   2.789 -0.0849 -0.1389  0.4049
 2213TIP3    H228131   3.902   4.534   2.716 -0.6148 -1.7402 -2.7342
 2214TIP3   OH228132   5.004   2.524  13.869 -0.1793  0.1587 -0.0441
 2214TIP3    H128133   4.908   2.523  13.869 -0.2003  0.8582  1.0846
 2214TIP3    H228134   5.030   2.432  13.862 -0.9243  0.0144 -1.0075
 2215TIP3   OH228135   1.091   6.262   4.989 -0.5212 -0.2501  0.3437
 2215TIP3    H128136   1.128   6.286   5.075 -1.7997  1.2826  0.4875
 2215TIP3    H228137   1.158   6.207   4.949  1.8832  2.3292  0.6683
 2216TIP3   OH228138   2.480   3.833   1.102  0.4493  0.1413  0.1636
 2216TIP3    H128139   2.572   3.823   1.126  0.8801  1.2096 -0.9917
 2216TIP3    H228140   2.469   3.778   1.025  0.1599  0.1342  0.2093
 2217TIP3   OH228141   1.478   5.870  12.955 -0.0561  0.5543  0.0076
 2217TIP3    H128142   1.548   5.933  12.970 -0.1597  1.0337 -1.4188
 2217TIP3    H228143   1.520   5.785  12.967 -0.1188  0.8791  2.7853
 2218TIP3   OH228144   5.867   2.948   1.913 -0.4785  0.0924 -0.0274
 2218TIP3    H128145   5.885   2.944   1.819 -0.4830  1.9265 -0.1263
 2218TIP3    H228146   5.922   2.880   1.951  0.5688  0.2556 -1.2230
 2219TIP3   OH228147   2.595   3.946   3.885 -0.0903  0.3575 -0.0237
 2219TIP3    H128148   2.521   3.992   3.924  0.4808 -0.8013  2.5373
 2219TIP3    H228149   2.575   3.853   3.898  0.8469 -0.0028 -1.1329
 2220TIP3   OH228150   6.186   1.084  15.090  0.4877  0.0721  0.3873
 2220TIP3    H128151   6.119   1.023  15.123 -1.5591  0.8479 -2.1555
 2220TIP3    H228152   6.166   1.167  15.134 -0.6336  0.4499 -0.7923
 2221TIP3   OH228153   6.484   3.048   3.582  0.0708 -0.2338  0.7411
 2221TIP3    H128154   6.563   3.086   3.620 -0.1096  0.9913 -0.0685
 2221TIP3    H228155   6.503   2.954   3.575  1.6810  0.1366 -0.0133
 2222TIP3   OH228156   0.680   0.960   0.771  0.1532  0.1987 -0.0139
 2222TIP3    H128157   0.711   1.014   0.843  0.7028  1.2012 -1.0029
 2222TIP3    H228158   0.759   0.923   0.732 -0.1070  0.0697 -0.4259
 2223TIP3   OH228159   1.884   3.258  13.301 -0.0957 -0.4773  0.8896
 2223TIP3    H128160   1.836   3.326  13.348  0.5516 -0.8460  2.1171
 2223TIP3    H228161   1.844   3.255  13.214 -1.3762  0.1599  1.4490
 2224TIP3   OH228162   0.521   6.410   5.131  0.2464 -0.0824  0.4768
 2224TIP3    H128163   0.509   6.490   5.182 -0.5163 -0.5311  1.0165
 2224TIP3    H228164   0.585   6.360   5.181  1.0984  0.4032 -0.1204
 2225TIP3   OH228165   4.636   2.237  16.289  0.0600 -0.2171 -0.0469
 2225TIP3    H128166   4.652   2.176  16.361 -1.5118  0.4867  0.9062
 2225TIP3    H228167   4.623   2.322  16.332 -1.2104  0.1477 -1.1347
 2226TIP3   OH228168   6.150   6.806  10.483 -0.0872  0.2590 -0.3615
 2226TIP3    H128169   6.060   6.788  10.508  0.4347 -0.9816  0.6748
 2226TIP3    H228170   6.172   6.887  10.528 -0.8297  0.8234 -1.0031
 2227TIP3   OH228171   1.431   3.374   0.890  0.1553  0.6880  0.0003
 2227TIP3    H128172   1.429   3.438   0.961  0.7577  0.5887  0.1090
 2227TIP3    H228173   1.342   3.375   0.854  0.3748  2.2033 -0.5442
 2228TIP3   OH228174   1.461   0.966   2.073  0.5631  0.2718  0.0145
 2228TIP3    H128175   1.513   1.009   2.140  1.1571  1.0662 -0.9413
 2228TIP3    H228176   1.476   0.872   2.087  0.4016  0.4260  1.2000
 2229TIP3   OH228177   4.238   0.009   3.724 -0.0355  0.0057 -0.1391
 2229TIP3    H128178   4.151  -0.017   3.753  0.1380  0.3943  0.7143
 2229TIP3    H228179   4.264  -0.061   3.663 -0.7872 -0.2985 -0.1160
 2230TIP3   OH228180   4.006   4.586   4.233 -0.3913 -0.0044 -0.4434
 2230TIP3    H128181   3.988   4.600   4.140  0.4179 -0.4707 -0.6767
 2230TIP3    H228182   3.925   4.551   4.268 -1.5411  2.5517 -0.4363
 2231TIP3   OH228183   4.946   1.445   5.611 -0.3017 -0.5436 -0.2193
 2231TIP3    H128184   4.934   1.489   5.527 -0.1443 -1.2545 -0.6199
 2231TIP3    H228185   4.914   1.508   5.676  0.7138  0.5110 -0.7157
 2232TIP3   OH228186   0.002   4.214  13.678  0.7279 -0.2965 -0.2474
 2232TIP3    H128187   0.081   4.215  13.623  1.7657  0.6624  1.2010
 2232TIP3    H228188   0.036   4.216  13.768 -0.9459 -1.2511  0.4235
 2233TIP3   OH228189   1.814   4.475  13.703  0.9585  0.1068  0.0055
 2233TIP3    H128190   1.769   4.450  13.784  1.8149  0.5450  0.6150
 2233TIP3    H228191   1.837   4.567  13.716 -0.4064  0.6777 -1.4293
 2234TIP3   OH228192   5.146   5.224   1.110  0.8591  0.0267 -0.0092
 2234TIP3    H128193   5.121   5.179   1.190  1.1846  0.7097  0.4758
 2234TIP3    H228194   5.130   5.316   1.128 -2.3197 -0.0412 -1.8680
 2235TIP3   OH228195   3.676   1.475   0.959  0.1120 -0.2213  0.4635
 2235TIP3    H128196   3.767   1.505   0.958 -0.3227  1.2788  3.1155
 2235TIP3    H228197   3.635   1.523   0.887  0.8833  0.7870  0.6874
 2236TIP3   OH228198   2.503   2.835   3.300  0.2094 -0.4321 -0.5338
 2236TIP3    H128199   2.558   2.834   3.222  1.5351  1.7021  0.3051
 2236TIP3    H228200   2.532   2.759   3.350  0.6698 -0.7447 -1.2653
 2237TIP3   OH228201   6.795   1.911  10.478 -0.1252  0.7525  0.4648
 2237TIP3    H128202   6.709   1.939  10.448  0.4268  0.5554 -1.3272
 2237TIP3    H228203   6.853   1.984  10.456  0.3044  0.5869  1.0336
 2238TIP3   OH228204   3.274   6.064  11.635  0.1493  0.6090 -0.1828
 2238TIP3    H128205   3.200   6.061  11.575 -2.2493 -1.4859  2.7385
 2238TIP3    H228206   3.283   6.157  11.657 -2.7344  0.7419  0.6807
 2239TIP3   OH228207   0.708   1.697  12.635  0.1469 -0.0200  0.4575
 2239TIP3    H128208   0.739   1.608  12.618 -1.6786 -0.7563  0.8699
 2239TIP3    H228209   0.782   1.753  12.613  0.4009 -1.4467 -2.6817
 2240TIP3   OH228210   1.775   5.940  15.192  0.0312  0.0577 -0.1861
 2240TIP3    H128211   1.734   6.021  15.162 -1.3270 -0.2266  0.8510
 2240TIP3    H228212   1.846   5.969  15.249  0.4874  0.5341 -0.9832
 2241TIP3   OH228213   4.147   6.301  12.505 -0.5709  0.1626  0.2569
 2241TIP3    H128214   4.219   6.243  12.482 -0.0068  0.7677  0.5062
 2241TIP3    H228215   4.109   6.328  12.421  1.0525  1.8198  0.0347
 2242TIP3   OH228216   1.776   2.092  15.248  0.3092 -0.2371  0.0555
 2242TIP3    H128217   1.822   2.086  15.164  0.4549 -1.1257  0.1929
 2242TIP3    H228218   1.797   2.010  15.293 -2.6722 -1.4101 -0.5334
 2243TIP3   OH228219   0.379   4.034  15.066  0.4502 -0.2691  0.5382
 2243TIP3    H128220   0.427   3.975  15.006  0.1375 -1.2037  1.2006
 2243TIP3    H228221   0.447   4.068  15.124  0.4148 -1.1591  1.1181
 2244TIP3   OH228222   5.259   4.434   5.621 -0.5854 -0.4537 -0.2365
 2244TIP3    H128223   5.229   4.453   5.710 -0.1274  0.9077 -0.3653
 2244TIP3    H228224   5.354   4.448   5.624 -0.3874 -1.6526 -0.6247
 2245TIP3   OH228225   3.691   4.417   5.631 -0.1397 -0.6448 -0.3144
 2245TIP3    H128226   3.695   4.341   5.689 -0.9043  0.0361  0.6524
 2245TIP3    H228227   3.615   4.467   5.662 -1.2678 -0.8502 -2.6219
 2246TIP3   OH228228   2.743   0.999   3.912  0.2820  0.4317  0.1093
 2246TIP3    H128229   2.781   1.047   3.838 -1.0889  0.2816 -0.7079
 2246TIP3    H228230   2.694   1.065   3.961  1.4594  0.5985  1.0908
 2247TIP3   OH228231   1.280   4.774   0.907 -0.3076  0.3578 -0.5622
 2247TIP3    H128232   1.348   4.753   0.971  1.3988 -3.2484 -3.3905
 2247TIP3    H228233   1.317   4.844   0.854 -0.3266  0.9515  0.2021
 2248TIP3   OH228234   4.709   6.010   4.620  0.4229  0.3609  0.2651
 2248TIP3    H128235   4.692   5.976   4.533  3.2533  2.4842 -1.2065
 2248TIP3    H228236   4.626   6.047   4.649 -0.5815 -0.5139 -1.4789
 2249TIP3   OH228237   5.927   1.107  16.391  0.2079 -0.7228 -0.4359
 2249TIP3    H128238   5.886   1.147  16.314  1.7625 -0.7879 -1.3214
 2249TIP3    H228239   6.019   1.133  16.385  0.7069 -2.2453  0.4064
 2250TIP3   OH228240   2.195   2.718   4.370 -0.0204 -0.1045 -0.3389
 2250TIP3    H128241   2.177   2.635   4.326  0.3109 -0.3726  0.0317
 2250TIP3    H228242   2.123   2.776   4.342  0.5030 -0.0829 -1.6974
 2251TIP3   OH228243   2.628   2.071  12.492  0.1465  0.0079  0.2302
 2251TIP3    H128244   2.646   2.096  12.402  0.6840  0.8193  0.5495
 2251TIP3    H228245   2.681   1.993  12.507  0.1049 -0.0916 -0.1376
 2252TIP3   OH228246   6.511   0.150  11.078  0.7128  0.0357  0.3633
 2252TIP3    H128247   6.424   0.187  11.062  0.6963 -0.4939 -0.7788
 2252TIP3    H228248   6.558   0.161  10.996  2.1078  1.2967  1.2970
 2253TIP3   OH228249   4.067   2.757   4.679 -0.1194 -0.5912 -0.6653
 2253TIP3    H128250   3.998   2.717   4.731  0.5956  0.6841  1.3216
 2253TIP3    H228251   4.049   2.851   4.682  0.7399 -0.3794 -1.5500
 2254TIP3   OH228252   3.159   1.880   1.750  0.1048  0.2442 -0.3900
 2254TIP3    H128253   3.090   1.932   1.789  0.8001  1.6627 -1.0203
 2254TIP3    H228254   3.226   1.874   1.819 -0.9171 -1.7388  0.4785
 2255TIP3   OH228255   2.634   2.879   2.086  0.3863  0.5999  0.2846
 2255TIP3    H128256   2.550   2.868   2.131  0.8929 -1.1534  0.8405
 2255TIP3    H228257   2.643   2.974   2.075 -0.4850  0.9736  2.4862
 2256TIP3   OH228258   3.820   2.927   3.932  0.0960 -0.0934 -0.4494
 2256TIP3    H128259   3.739   2.935   3.983  0.5694  1.4456  0.1168
 2256TIP3    H228260   3.860   2.846   3.963 -0.9497 -0.5805 -0.3299
 2257TIP3   OH228261   4.096   0.147   4.423  0.0270 -0.0266 -0.7178
 2257TIP3    H128262   4.107   0.062   4.465 -0.4094 -0.0264 -0.6019
 2257TIP3    H228263   4.008   0.144   4.385  0.1466  0.2387 -1.0145
 2258TIP3   OH228264   4.440   2.708   2.226  0.3687  0.3615  0.5394
 2258TIP3    H128265   4.519   2.761   2.233  0.3001  0.3609  1.4759
 2258TIP3    H228266   4.398   2.717   2.312  0.0349 -0.6910  0.4972
 2259TIP3   OH228267   6.527   4.264   1.951  0.1433 -0.7975  0.7525
 2259TIP3    H128268   6.561   4.353   1.954  0.7666 -0.9823 -0.5395
 2259TIP3    H228269   6.434   4.274   1.932 -0.0988 -0.3795  2.0814
 2260TIP3   OH228270   1.331   6.199  13.931  0.3331 -0.4594  0.0613
 2260TIP3    H128271   1.368   6.286  13.914 -2.2343  0.5493 -0.4696
 2260TIP3    H228272   1.372   6.172  14.013  1.0451  1.3054  0.3150
 2261TIP3   OH228273   0.748   5.385  15.343 -0.2471 -0.3040 -0.0146
 2261TIP3    H128274   0.660   5.423  15.333 -0.5658 -1.4531 -1.8233
 2261TIP3    H228275   0.735   5.291  15.329  1.3913 -0.3794 -1.1341
 2262TIP3   OH228276   2.909   5.544  12.755  0.1039 -0.9697 -0.6042
 2262TIP3    H128277   2.977   5.579  12.697 -0.6310  1.2987 -0.1513
 2262TIP3    H228278   2.958   5.493  12.820  1.0524 -2.2565 -2.2811
 2263TIP3   OH228279   5.806   6.667   1.359  0.6890 -0.0267  0.1514
 2263TIP3    H128280   5.773   6.657   1.448  1.1654 -2.2742  0.1091
 2263TIP3    H228281   5.786   6.758   1.336 -2.0039 -0.2150  1.5191
 2264TIP3   OH228282   2.601   6.730  17.113  0.2576  0.2066 -0.0214
 2264TIP3    H128283   2.539   6.735  17.040 -1.2676 -2.7802  0.9952
 2264TIP3    H228284   2.583   6.809  17.165 -0.1139  1.2573 -1.6869
 2265TIP3   OH228285   1.354   0.640  16.651 -0.2957 -0.8561  1.0933
 2265TIP3    H128286   1.398   0.724  16.657  1.1670 -1.4492 -1.0617
 2265TIP3    H228287   1.293   0.649  16.578  1.1150 -2.1856 -0.2954
 2266TIP3   OH228288   4.286   5.369   1.718 -0.3248 -0.3076  0.1372
 2266TIP3    H128289   4.313   5.277   1.724  0.0681 -0.2130 -0.1490
 2266TIP3    H228290   4.230   5.372   1.641  0.2566 -0.1669 -0.2842
 2267TIP3   OH228291   4.093   3.313  11.891  0.3776  0.2237  0.4359
 2267TIP3    H128292   4.068   3.295  11.982  0.2989  1.8016  0.7388
 2267TIP3    H228293   4.054   3.398  11.872  2.7783  1.2207 -0.1664
 2268TIP3   OH228294   2.384   0.693   1.209  0.3341  0.2525  0.1004
 2268TIP3    H128295   2.298   0.650   1.216  0.0573  0.5450 -1.4406
 2268TIP3    H228296   2.363   0.785   1.196  0.8651  0.2109 -1.1157
 2269TIP3   OH228297   5.275   0.310  16.852 -0.1898  0.4188  0.3932
 2269TIP3    H128298   5.312   0.356  16.776 -2.0126  1.5695  0.1765
 2269TIP3    H228299   5.344   0.314  16.918  0.4136  1.7489 -0.2972
 2270TIP3   OH228300   3.652   2.117  15.802  0.3472  0.4264  0.0358
 2270TIP3    H128301   3.607   2.106  15.886 -0.2259 -1.1898 -0.4755
 2270TIP3    H228302   3.582   2.129  15.738  0.7867  1.6773 -0.2363
 2271TIP3   OH228303   5.637   4.387   6.015 -0.4830  0.2782 -0.4813
 2271TIP3    H128304   5.606   4.476   6.031  1.0506  1.1941 -2.3711
 2271TIP3    H228305   5.679   4.391   5.929 -2.0056 -2.6945 -1.4662
 2272TIP3   OH228306   4.542   6.363  15.059 -0.0784  0.3171 -0.3633
 2272TIP3    H128307   4.596   6.289  15.085 -0.8735 -0.7860 -1.7851
 2272TIP3    H228308   4.552   6.427  15.130  0.7364 -1.0780  0.7862
 2273TIP3   OH228309   3.595   5.821  17.158  0.0493 -0.0514 -0.0804
 2273TIP3    H128310   3.682   5.791  17.182  0.6647  0.5853 -1.4423
 2273TIP3    H228311   3.606   5.858  17.070 -1.0671  2.3674  0.7475
 2274TIP3   OH228312   2.028   1.348   4.540 -0.0557  0.6485 -0.2495
 2274TIP3    H128313   2.091   1.414   4.568 -0.1585 -0.6609  3.3057
 2274TIP3    H228314   2.082   1.274   4.513 -0.0007  0.1720  1.1207
 2275TIP3   OH228315   6.278   3.772  13.772 -0.5233 -0.2407  0.3409
 2275TIP3    H128316   6.318   3.718  13.840 -1.7586  1.3736  2.3972
 2275TIP3    H228317   6.340   3.843  13.757 -0.3976 -0.4220 -0.0075
 2276TIP3   OH228318   6.036   5.232  12.662  0.0239  0.3631  0.0560
 2276TIP3    H128319   5.970   5.250  12.729 -0.3950 -1.2215  0.0829
 2276TIP3    H228320   5.988   5.230  12.580  0.5344  2.2689 -0.3195
 2277TIP3   OH228321   2.101   2.978  16.951  0.6296  0.1701 -0.0282
 2277TIP3    H128322   2.179   2.992  17.004 -0.3790 -0.1280  1.5802
 2277TIP3    H228323   2.109   2.889  16.918  0.7877  0.0092  0.4414
 2278TIP3   OH228324   3.480   2.680   3.841  0.5561  0.1207  0.3619
 2278TIP3    H128325   3.468   2.718   3.928  0.4643  1.7263 -0.3308
 2278TIP3    H228326   3.567   2.640   3.844 -0.2846 -1.6922  1.8374
 2279TIP3   OH228327   0.692   5.294   3.864 -0.0340  0.2376 -0.0476
 2279TIP3    H128328   0.760   5.353   3.832  0.2599 -0.1709 -0.1826
 2279TIP3    H228329   0.619   5.308   3.804 -0.2382  1.0135  0.3731
 2280TIP3   OH228330   2.429   2.728  16.701  0.2105 -0.0654 -0.3227
 2280TIP3    H128331   2.356   2.701  16.757  0.9981  0.7343  1.1438
 2280TIP3    H228332   2.501   2.669  16.725  1.3090  1.8931  1.3811
 2281TIP3   OH228333   4.665   2.751  16.717 -0.1296 -0.0145  0.0107
 2281TIP3    H128334   4.615   2.743  16.798  1.9812 -0.7911  1.2780
 2281TIP3    H228335   4.755   2.730  16.742  0.9758  2.0409 -2.0526
 2282TIP3   OH228336   3.185   2.669  13.070  0.6019  0.0943 -0.0846
 2282TIP3    H128337   3.208   2.758  13.045 -0.5151  0.4863  0.3083
 2282TIP3    H228338   3.096   2.656  13.036  0.4456 -0.5912  0.5795
 2283TIP3   OH228339   6.676   3.178   4.271 -0.4121  0.5840  0.2507
 2283TIP3    H128340   6.732   3.101   4.281  0.8689  1.4549 -0.0527
 2283TIP3    H228341   6.727   3.250   4.310 -2.2742  0.9924  2.0197
 2284TIP3   OH228342   6.021   5.557   6.295  0.7743  0.4347  0.2037
 2284TIP3    H128343   5.931   5.525   6.304  0.2085  2.0760  0.5024
 2284TIP3    H228344   6.072   5.502   6.354  0.2056 -1.3993 -0.9623
 2285TIP3   OH228345   6.717   6.429  16.360  0.6058  0.6784  0.0410
 2285TIP3    H128346   6.664   6.361  16.400  0.2804  1.2492  0.5933
 2285TIP3    H228347   6.655   6.497  16.335  0.6957 -0.0839 -2.3323
 2286TIP3   OH228348   1.854   4.807  13.130  0.2713  0.3047 -0.6704
 2286TIP3    H128349   1.782   4.868  13.115  0.6809  0.8637 -0.3478
 2286TIP3    H228350   1.909   4.849  13.196  0.5262 -0.4340 -0.3962
 2287TIP3   OH228351   4.623   2.322   2.987 -0.8104 -0.2755  0.5409
 2287TIP3    H128352   4.588   2.233   2.978 -1.2511  0.0115 -0.6577
 2287TIP3    H228353   4.670   2.321   3.071  1.3115 -2.3571 -0.6192
 2288TIP3   OH228354   3.232   3.731  17.278  0.0284  0.0569  0.5619
 2288TIP3    H128355   3.160   3.759  17.223  0.7242 -0.0508 -0.4214
 2288TIP3    H228356   3.197   3.732  17.367 -0.8664  1.0140  0.2052
 2289TIP3   OH228357   4.504   0.422   3.480 -0.1215 -0.2266 -0.1567
 2289TIP3    H128358   4.589   0.412   3.523  0.1964 -0.8307 -0.9077
 2289TIP3    H228359   4.525   0.424   3.386 -0.7728  1.3650 -0.2820
 2290TIP3   OH228360   5.803   1.937  16.504  0.1410 -0.0370 -0.6596
 2290TIP3    H128361   5.845   1.852  16.502  1.5047  0.6280 -1.0450
 2290TIP3    H228362   5.805   1.967  16.413  1.4256  1.2400 -0.2252
 2291TIP3   OH228363   0.243   0.896  14.761 -0.0306  0.2446 -0.3304
 2291TIP3    H128364   0.226   0.913  14.853  0.4434 -0.0842 -0.1832
 2291TIP3    H228365   0.278   0.979  14.727  0.7166  0.0672  0.0088
 2292TIP3   OH228366   4.288   2.070   4.292 -0.0728 -0.1483  0.7957
 2292TIP3    H128367   4.218   2.007   4.311  0.3955 -1.0863 -0.5386
 2292TIP3    H228368   4.243   2.154   4.284 -0.9472 -0.6100  0.7802
 2293TIP3   OH228369   4.621   6.349   4.821  0.2350 -0.2013 -0.0525
 2293TIP3    H128370   4.548   6.295   4.848  1.7733 -0.9337  2.7961
 2293TIP3    H228371   4.601   6.436   4.855 -0.9921  0.4962 -2.4120
 2294TIP3   OH228372   3.499   1.715   3.365 -0.0871 -0.3952 -0.2439
 2294TIP3    H128373   3.546   1.671   3.294 -0.7067 -0.4320 -0.6327
 2294TIP3    H228374   3.472   1.644   3.423  1.6491 -0.2352  0.7664
 2295TIP3   OH228375   0.464   1.716   0.179  0.2128 -0.5132 -0.1650
 2295TIP3    H128376   0.416   1.798   0.182  0.8569 -0.1423  0.3825
 2295TIP3    H228377   0.434   1.668   0.256  0.8888 -0.1721  0.3230
 2296TIP3   OH228378   6.750   2.491  11.518 -0.3008 -0.3123  0.5330
 2296TIP3    H128379   6.722   2.570  11.565 -0.6989 -0.1040 -0.0558
 2296TIP3    H228380   6.791   2.524  11.438 -0.8864 -0.7225  0.0630
 2297TIP3   OH228381   1.899   1.158   6.086 -0.0117  0.0267 -0.0410
 2297TIP3    H128382   1.853   1.219   6.029 -0.0182 -1.6865 -1.9338
 2297TIP3    H228383   1.831   1.102   6.123  0.1901 -0.2415 -0.0680
 2298TIP3   OH228384   4.548   0.612   5.594 -0.1778  0.3400 -0.0296
 2298TIP3    H128385   4.577   0.548   5.529 -0.9842 -0.5428  0.4728
 2298TIP3    H228386   4.478   0.569   5.642 -0.6029  1.5297  0.4568
 2299TIP3   OH228387   0.575   5.685  12.239  0.3608  0.1784 -0.6359
 2299TIP3    H128388   0.501   5.738  12.269  0.3012  0.2254 -0.8726
 2299TIP3    H228389   0.581   5.702  12.145  0.3175 -0.2659 -0.7198
 2300TIP3   OH228390   3.836   2.661  11.529 -0.2198  0.0962  0.5447
 2300TIP3    H128391   3.790   2.683  11.448  0.4235 -0.9430 -0.1168
 2300TIP3    H228392   3.916   2.713  11.526  1.0563 -1.8876 -0.7723
 2301TIP3   OH228393   1.548   4.180  16.383  0.1180  0.0622 -0.5325
 2301TIP3    H128394   1.543   4.092  16.345 -1.1123 -0.1119 -0.0162
 2301TIP3    H228395   1.511   4.237  16.315  1.6087  0.2753 -1.1641
 2302TIP3   OH228396   5.438   2.280  17.218  0.0230  0.3456  0.1887
 2302TIP3    H128397   5.378   2.354  17.233  0.5913  0.9131 -0.3046
 2302TIP3    H228398   5.522   2.321  17.198 -0.1827 -0.4074 -2.3579
 2303TIP3   OH228399   3.470   1.633   5.237  0.7219 -0.0740  0.0517
 2303TIP3    H128400   3.425   1.561   5.192 -0.3680  2.0087 -2.3589
 2303TIP3    H228401   3.512   1.682   5.166  1.3200  1.7139  1.6228
 2304TIP3   OH228402   3.535   4.978   1.280 -0.2510  0.0357 -0.4878
 2304TIP3    H128403   3.617   4.930   1.293  1.2384  1.9504 -2.5653
 2304TIP3    H228404   3.533   5.042   1.351  0.8507  1.0421 -1.3565
 2305TIP3   OH228405   1.589   4.282   0.091 -0.4061 -0.1634 -0.0112
 2305TIP3    H128406   1.596   4.376   0.074 -0.0224 -0.0992  0.4944
 2305TIP3    H228407   1.645   4.267   0.166 -1.2830 -0.6232  0.5656
 2306TIP3   OH228408   6.733   3.838   0.265 -0.2206 -0.1971 -0.0576
 2306TIP3    H128409   6.675   3.815   0.338 -2.1880  0.3356 -1.4127
 2306TIP3    H228410   6.724   3.933   0.255  1.4464  0.0007  0.1563
 2307TIP3   OH228411   2.795   3.969   5.297  0.3384  0.3324 -0.2294
 2307TIP3    H128412   2.855   3.895   5.285  0.4822  0.2626  0.8522
 2307TIP3    H228413   2.722   3.933   5.347  0.7162  1.0593  0.8675
 2308TIP3   OH228414   6.519   1.630   2.536  0.0561  0.1595  0.3570
 2308TIP3    H128415   6.480   1.547   2.566 -0.7316  0.7229  0.9260
 2308TIP3    H228416   6.450   1.672   2.485  0.4410  0.4737  0.0939
 2309TIP3   OH228417   2.738   1.791  13.700  0.2578  0.5258  0.3591
 2309TIP3    H128418   2.689   1.863  13.739 -0.4579  0.7055 -0.8502
 2309TIP3    H228419   2.826   1.798  13.737  0.0532  1.7229  0.6099
 2310TIP3   OH228420   3.732   5.142   2.420 -0.4001  0.1798 -0.0598
 2310TIP3    H128421   3.652   5.108   2.381 -0.5158 -0.1266  0.4446
 2310TIP3    H228422   3.713   5.150   2.514  0.9987 -2.3496  0.4773
 2311TIP3   OH228423   2.631   1.675   0.369 -0.4936 -0.0154 -0.2064
 2311TIP3    H128424   2.609   1.610   0.302 -0.4178 -0.8167  0.5370
 2311TIP3    H228425   2.565   1.661   0.437  0.6518 -0.5733  0.7938
 2312TIP3   OH228426   3.098   4.371   4.336 -0.2792  0.5669  0.4370
 2312TIP3    H128427   3.085   4.308   4.265 -1.8307  1.9973 -0.6014
 2312TIP3    H228428   3.184   4.350   4.372 -0.0045 -0.9760 -1.0568
 2313TIP3   OH228429   3.992   1.458  12.222 -0.1721 -0.2886  0.1557
 2313TIP3    H128430   4.002   1.400  12.298  0.3995  2.0976  1.9669
 2313TIP3    H228431   4.082   1.480  12.197 -0.3950  0.2494 -0.1692
 2314TIP3   OH228432   5.039   1.103  16.012  0.2663 -0.0342  0.5018
 2314TIP3    H128433   5.097   1.171  15.978  0.2817  0.0274  0.6496
 2314TIP3    H228434   4.952   1.145  16.015  0.0331 -0.4293 -0.6341
 2315TIP3   OH228435   1.171   4.790   2.579  0.0569  0.2327  0.5633
 2315TIP3    H128436   1.113   4.720   2.548  1.5701 -0.1418 -1.5399
 2315TIP3    H228437   1.187   4.769   2.671 -0.1016 -1.7836  0.1596
 2316TIP3   OH228438   1.991   4.715   1.485 -0.5627  0.0266  0.3727
 2316TIP3    H128439   2.071   4.732   1.436 -1.1665  3.6785  0.5189
 2316TIP3    H228440   2.020   4.687   1.571  0.5255  0.0202  0.0061
 2317TIP3   OH228441   6.315   2.804   4.862 -0.6074  0.1193 -0.4961
 2317TIP3    H128442   6.397   2.760   4.886 -0.6383 -0.5883 -1.6052
 2317TIP3    H228443   6.325   2.894   4.894  0.1004 -0.2971  0.4460
 2318TIP3   OH228444   5.248   2.747  15.471  0.3714 -0.0277 -0.1240
 2318TIP3    H128445   5.280   2.725  15.383  0.6923  0.8653 -0.2366
 2318TIP3    H228446   5.170   2.800  15.455  0.4493  0.1613  0.1330
 2319TIP3   OH228447   0.773   0.262  17.145 -0.0160  0.2649 -0.1759
 2319TIP3    H128448   0.806   0.225  17.063 -1.3334 -0.5786 -0.3366
 2319TIP3    H228449   0.844   0.320  17.175  1.7550 -1.7781 -0.3143
 2320TIP3   OH228450   3.366   4.648  16.911  0.0724 -0.2826 -0.5468
 2320TIP3    H128451   3.371   4.699  16.830 -0.8910 -2.1597 -1.8016
 2320TIP3    H228452   3.273   4.636  16.926  0.2590 -0.3520  0.6158
 2321TIP3   OH228453   0.687   0.578   4.813  0.4992  0.2549 -0.0318
 2321TIP3    H128454   0.595   0.549   4.815  0.8468 -0.8495  0.0430
 2321TIP3    H228455   0.689   0.654   4.871 -0.4083  0.4027 -0.1837
 2322TIP3   OH228456   1.800   3.330   3.564 -0.6156 -0.3027  0.1335
 2322TIP3    H128457   1.743   3.266   3.521  0.0613 -1.0438  0.3344
 2322TIP3    H228458   1.888   3.295   3.555 -0.1335  1.0259 -0.4832
 2323TIP3   OH228459   2.254   4.667  13.630  0.5271  0.2686 -0.2314
 2323TIP3    H128460   2.248   4.730  13.702  1.8278  1.9525 -1.5607
 2323TIP3    H228461   2.345   4.673  13.601  0.1564 -0.8185 -1.6536
 2324TIP3   OH228462   1.212   5.581   2.883 -0.5057 -0.1023  0.0039
 2324TIP3    H128463   1.296   5.606   2.922 -1.0345  0.6204  0.6671
 2324TIP3    H228464   1.201   5.641   2.809  0.7017 -1.7424 -1.5790
 2325TIP3   OH228465   6.722   1.514  11.507  0.0745  0.0694  0.2075
 2325TIP3    H128466   6.723   1.437  11.565 -0.2142  0.0599  0.2006
 2325TIP3    H228467   6.814   1.529  11.486  0.1838  0.0917  0.6923
 2326TIP3   OH228468   2.092   4.853  16.210  0.0464 -0.5289  0.2016
 2326TIP3    H128469   2.160   4.918  16.231  0.5826 -1.1739  0.4681
 2326TIP3    H228470   2.128   4.770  16.240 -0.1954 -1.1079 -1.0859
 2327TIP3   OH228471   3.313   1.868   0.287 -1.5470 -0.5127  0.2375
 2327TIP3    H128472   3.328   1.960   0.264  0.5279 -0.7617  0.4923
 2327TIP3    H228473   3.386   1.821   0.246 -2.4762 -2.0190  0.2846
 2328TIP3   OH228474   1.019   6.328  14.114 -0.2679 -0.0023  0.1518
 2328TIP3    H128475   1.019   6.335  14.019 -1.0859  0.6275  0.1952
 2328TIP3    H228476   0.982   6.241  14.132 -1.2156  0.3481 -0.0762
 2329TIP3   OH228477   4.461   2.705   0.118  0.1026  0.5102 -0.4905
 2329TIP3    H128478   4.376   2.693   0.075  0.1032  0.3591 -0.4486
 2329TIP3    H228479   4.501   2.778   0.071 -2.0021  3.7790  2.4938
 2330TIP3   OH228480   6.184   2.393   2.755 -0.9241 -0.3327 -0.2802
 2330TIP3    H128481   6.157   2.484   2.759  1.2080  0.3393 -0.6032
 2330TIP3    H228482   6.244   2.388   2.681  0.6927 -1.5086  1.0418
 2331TIP3   OH228483   5.272   1.713  16.791  0.7406 -0.3993  0.7055
 2331TIP3    H128484   5.268   1.744  16.882 -1.6039 -0.7218  0.7325
 2331TIP3    H228485   5.252   1.620  16.797 -0.6035 -0.1733 -0.2706
 2332TIP3   OH228486   1.220   3.468   4.398 -0.1681 -0.3453 -0.2338
 2332TIP3    H128487   1.306   3.496   4.430 -0.3356  0.7548 -0.7215
 2332TIP3    H228488   1.160   3.483   4.471 -0.5512  2.1547 -1.0145
 2333TIP3   OH228489   5.822   4.479  17.290  0.0347 -0.2730 -0.0391
 2333TIP3    H128490   5.771   4.561  17.291 -0.3881 -0.4417 -2.7450
 2333TIP3    H228491   5.913   4.508  17.292 -0.1209  0.1823  0.9214
 2334TIP3   OH228492   3.144   0.423  14.573  0.2998 -0.5478 -0.0849
 2334TIP3    H128493   3.062   0.453  14.533  0.8673  2.0460  0.5735
 2334TIP3    H228494   3.209   0.433  14.504  0.7832  1.3237  0.6155
 2335TIP3   OH228495   1.903   3.148   1.093 -0.2485 -0.0061 -0.1639
 2335TIP3    H128496   1.996   3.124   1.097 -0.5110 -1.1422 -0.8507
 2335TIP3    H228497   1.896   3.203   1.015 -0.4752 -1.4217 -1.1687
 2336TIP3   OH228498   2.708   4.129   3.711  0.3029 -0.0425  0.2738
 2336TIP3    H128499   2.680   4.069   3.780  1.8204  0.2859  1.1896
 2336TIP3    H228500   2.687   4.216   3.745 -2.4901 -0.0443 -1.3221
 2337TIP3   OH228501   1.708   6.647  15.415 -0.1014 -0.2060 -0.6327
 2337TIP3    H128502   1.787   6.685  15.454  0.9583 -1.9982 -0.9570
 2337TIP3    H228503   1.695   6.696  15.334 -0.4311  1.3643  0.3422
 2338TIP3   OH228504   1.246   3.025  15.942 -0.3697  0.1575  0.3151
 2338TIP3    H128505   1.316   3.064  15.890 -1.0847 -1.4463 -1.9445
 2338TIP3    H228506   1.206   2.960  15.884 -1.7732 -1.0972  2.5921
 2339TIP3   OH228507   2.636   2.545  16.738  1.0481  0.1948 -0.2832
 2339TIP3    H128508   2.691   2.473  16.705  2.5756 -0.1038  2.6885
 2339TIP3    H228509   2.694   2.621  16.737  0.0194  0.9772 -1.6081
 2340TIP3   OH228510   4.733   4.883   5.464  0.0287  0.2872 -0.2187
 2340TIP3    H128511   4.805   4.821   5.455  0.9221  1.4549 -1.2955
 2340TIP3    H228512   4.738   4.913   5.555  0.8693  0.3270 -0.2795
 2341TIP3   OH228513   2.995   0.567   1.667  0.7075 -0.0033 -0.4270
 2341TIP3    H128514   3.045   0.649   1.665 -0.3598  0.6491 -0.9618
 2341TIP3    H228515   3.061   0.498   1.663  1.7141  0.8032  1.7535
 2342TIP3   OH228516   4.334   2.054  13.866  0.6091  0.6565 -0.2282
 2342TIP3    H128517   4.329   1.978  13.809 -0.5428  0.3212  0.2924
 2342TIP3    H228518   4.402   2.033  13.930 -0.5242 -0.4564  0.6386
 2343TIP3   OH228519   2.683   1.283  16.984 -0.8107 -0.3644 -0.0246
 2343TIP3    H128520   2.658   1.216  16.921 -0.0512  0.5059 -1.2829
 2343TIP3    H228521   2.773   1.261  17.010 -0.1567  0.7490 -1.2706
 2344TIP3   OH228522   6.693   4.699  16.674  0.1271 -0.4430  0.5795
 2344TIP3    H128523   6.690   4.622  16.731  0.0524 -2.4813 -2.0715
 2344TIP3    H228524   6.607   4.702  16.632  1.0749 -0.6491 -1.4588
 2345TIP3   OH228525   1.780   0.090   1.841 -0.0728  0.1395 -0.0896
 2345TIP3    H128526   1.760   0.025   1.908  1.4200 -0.7207 -0.4768
 2345TIP3    H228527   1.777   0.174   1.888 -0.0366 -0.3683  0.8252
 2346TIP3   OH228528   4.173   3.833   3.566  0.1392 -0.4251 -0.4683
 2346TIP3    H128529   4.242   3.772   3.538 -0.0070 -0.4521 -0.7784
 2346TIP3    H228530   4.181   3.837   3.661  0.7902 -0.1606 -0.5320
 2347TIP3   OH228531   1.548   4.414   1.369 -0.1901  0.0094  0.5634
 2347TIP3    H128532   1.570   4.419   1.462  1.4304 -1.2760  0.2774
 2347TIP3    H228533   1.463   4.370   1.367  0.1781 -0.7529  1.3877
 2348TIP3   OH228534   4.905   1.941   6.379  0.1353  0.2822  0.0837
 2348TIP3    H128535   4.815   1.944   6.346  0.0669  0.9056  0.3172
 2348TIP3    H228536   4.896   1.906   6.468 -0.0347  1.6026  0.6071
 2349TIP3   OH228537   3.280   5.039  13.486 -0.2953  0.6081 -0.1546
 2349TIP3    H128538   3.340   5.015  13.555 -1.1499  0.9373  0.7164
 2349TIP3    H228539   3.241   4.956  13.458 -0.7291  0.5847  0.4999
 2350TIP3   OH228540   5.176   2.228   1.207  0.0581  0.1672 -0.4501
 2350TIP3    H128541   5.088   2.240   1.171  0.6955 -0.4201 -2.2773
 2350TIP3    H228542   5.206   2.316   1.229 -0.2829  0.5653 -1.5473
 2351TIP3   OH228543   0.581   0.682  14.118  0.1429 -0.9447 -0.6606
 2351TIP3    H128544   0.578   0.620  14.191 -0.2110  0.6549  0.7009
 2351TIP3    H228545   0.596   0.767  14.159 -1.8445  0.2328 -2.2857
 2352TIP3   OH228546   2.107   6.640  12.146 -0.5928 -0.1376 -0.4727
 2352TIP3    H128547   2.177   6.588  12.107 -0.6147  0.0961 -0.8176
 2352TIP3    H228548   2.136   6.656  12.236  0.5507  1.3575 -1.0907
 2353TIP3   OH228549   1.429   0.391  12.339 -0.1473 -0.3991  0.1661
 2353TIP3    H128550   1.442   0.399  12.244 -2.7370 -1.6424 -0.3221
 2353TIP3    H228551   1.403   0.300  12.352 -0.2128 -0.1222  2.0304
 2354TIP3   OH228552   3.915   3.069  12.406 -0.0918  0.1681  0.3663
 2354TIP3    H128553   3.888   3.161  12.416 -2.0294 -0.4754  1.3852
 2354TIP3    H228554   4.005   3.067  12.437  0.7645  2.1436 -1.8014
 2355TIP3   OH228555   3.052   3.821  17.081  0.5412 -0.0318  1.1036
 2355TIP3    H128556   3.015   3.801  16.994 -0.5672  1.6290  1.1717
 2355TIP3    H228557   3.117   3.889  17.065 -0.3482  0.9661  1.6861
 2356TIP3   OH228558   3.809   6.084   3.683  0.0399  0.0231  0.5593
 2356TIP3    H128559   3.811   6.043   3.597  0.9662 -0.2507  0.6992
 2356TIP3    H228560   3.864   6.027   3.737  1.5902  1.6172  0.6880
 2357TIP3   OH228561   5.910   2.007   0.367 -0.0982  0.5468  0.1778
 2357TIP3    H128562   5.849   2.066   0.412 -1.6106 -0.7516 -0.1224
 2357TIP3    H228563   5.981   1.993   0.429 -0.2286  1.8846  0.6323
 2358TIP3   OH228564   5.903   4.664   1.565 -0.3849 -0.1240  0.1231
 2358TIP3    H128565   5.814   4.629   1.577 -1.0619  2.0902  1.7394
 2358TIP3    H228566   5.958   4.586   1.558 -2.3830 -1.5311 -0.4097
 2359TIP3   OH228567   0.184   2.582  11.893  0.5356  0.2815 -0.3735
 2359TIP3    H128568   0.225   2.669  11.889 -1.4570  1.2161 -1.3247
 2359TIP3    H228569   0.159   2.563  11.803 -0.6844 -0.4468  0.1025
 2360TIP3   OH228570   4.751   0.752  15.658 -0.0014 -0.2745  0.3874
 2360TIP3    H128571   4.758   0.816  15.728  0.3570  1.6246 -1.3397
 2360TIP3    H228572   4.666   0.770  15.617  1.0725  0.6023 -1.5165
 2361TIP3   OH228573   5.665   6.129   4.017 -0.0215  0.1518 -0.4037
 2361TIP3    H128574   5.746   6.169   4.048 -0.4874  1.4929 -0.9074
 2361TIP3    H228575   5.683   6.035   4.018  1.5301  0.4366 -0.4819
 2362TIP3   OH228576   6.303   2.174   3.119 -0.6599  0.0124 -0.0165
 2362TIP3    H128577   6.225   2.230   3.115 -0.2104  0.5552 -1.5661
 2362TIP3    H228578   6.373   2.228   3.084  0.1513 -0.9431  0.1034
 2363TIP3   OH228579   1.922   2.288   0.158 -0.0668 -0.2617  0.4460
 2363TIP3    H128580   1.860   2.336   0.102  1.7573  0.8718 -0.6651
 2363TIP3    H228581   1.933   2.344   0.235 -0.3134 -0.3993  0.5822
 2364TIP3   OH228582   5.980   4.133  16.620 -0.4904  0.1051  0.0866
 2364TIP3    H128583   6.045   4.096  16.560  0.6666  0.6823  0.9667
 2364TIP3    H228584   6.011   4.222  16.636 -2.1049  0.7680 -0.3541
 2365TIP3   OH228585   3.876   0.818   4.009 -0.0728  0.6255  0.0180
 2365TIP3    H128586   3.816   0.749   4.038 -0.0481  0.1133 -1.1167
 2365TIP3    H228587   3.945   0.771   3.962  0.8307  1.2828  0.6799
 2366TIP3   OH228588   6.224   6.433  15.389 -0.3766  0.6121  0.2751
 2366TIP3    H128589   6.176   6.405  15.312  1.2078 -1.8135  0.1089
 2366TIP3    H228590   6.218   6.529  15.388 -4.7867  0.4086  0.0853
 2367TIP3   OH228591   1.743   0.181  15.584  0.2048 -0.7585  0.2360
 2367TIP3    H128592   1.731   0.151  15.674  3.3151  2.1710  1.7481
 2367TIP3    H228593   1.834   0.159  15.563  0.4914  1.4380 -1.0190
 2368TIP3   OH228594   1.147   2.864   3.513  0.1701 -0.6177  0.2463
 2368TIP3    H128595   1.179   2.809   3.442 -1.0260  0.0452 -0.8279
 2368TIP3    H228596   1.119   2.802   3.581  0.8328 -1.2633 -0.0680
 2369TIP3   OH228597   3.220   5.916  16.679  0.3228  0.3727 -0.3858
 2369TIP3    H128598   3.238   6.010  16.677  1.3947  0.1722 -0.0246
 2369TIP3    H228599   3.179   5.901  16.764  1.4532  0.2743  0.1419
 2370TIP3   OH228600   1.621   3.191   3.367  0.6036  0.0554  0.5442
 2370TIP3    H128601   1.590   3.280   3.386 -1.1704 -0.5022  0.3031
 2370TIP3    H228602   1.648   3.194   3.276  2.5892  0.8884  1.1126
 2371TIP3   OH228603   0.334   4.697  12.686  0.1869  0.4813  0.6501
 2371TIP3    H128604   0.273   4.636  12.729  1.2866 -0.3875  1.0267
 2371TIP3    H228605   0.364   4.754  12.757  0.9343 -0.0502  0.7663
 2372TIP3   OH228606   5.420   0.811  11.754 -0.4139 -0.1298  0.1010
 2372TIP3    H128607   5.497   0.779  11.800 -0.1460 -0.1848 -0.3903
 2372TIP3    H228608   5.387   0.882  11.809  0.6600  0.6694 -0.2808
 2373TIP3   OH228609   1.405   5.085   0.286 -0.3130 -0.8043  0.6508
 2373TIP3    H128610   1.470   5.121   0.225 -0.6366 -2.4708 -0.7400
 2373TIP3    H228611   1.337   5.151   0.290  1.1065  0.6452  1.5487
 2374TIP3   OH228612   4.354   0.288   4.696  0.6291  0.7624 -0.2088
 2374TIP3    H128613   4.406   0.289   4.616  0.1180 -1.2848 -0.5917
 2374TIP3    H228614   4.320   0.199   4.702 -0.1250  1.1504  1.7880
 2375TIP3   OH228615   4.495   6.253   2.860 -0.1379 -0.1579  0.3956
 2375TIP3    H128616   4.584   6.284   2.879 -0.6105  0.3593  1.8167
 2375TIP3    H228617   4.446   6.333   2.839 -0.7381 -0.2054  1.5629
 2376TIP3   OH228618   1.580   4.866  11.266 -0.5526  0.1210 -0.2239
 2376TIP3    H128619   1.618   4.906  11.187 -0.3224  2.2060  0.8973
 2376TIP3    H228620   1.489   4.848  11.243 -0.0575 -0.7874 -1.4937
 2377TIP3   OH228621   6.803   2.555  12.664  0.3972  1.3970 -0.4844
 2377TIP3    H128622   6.811   2.616  12.591 -0.0283  0.3354 -1.4176
 2377TIP3    H228623   6.893   2.529  12.684  0.6293  2.6757  0.2382
 2378TIP3   OH228624   6.206   1.882  16.730  0.5121  0.2643 -0.0402
 2378TIP3    H128625   6.262   1.905  16.804  1.4791 -1.0044 -0.3716
 2378TIP3    H228626   6.258   1.822  16.678 -0.9264 -0.4394 -0.6861
 2379TIP3   OH228627   3.837   6.101  14.657  0.0770  0.2687 -0.1379
 2379TIP3    H128628   3.791   6.017  14.657  1.3434 -0.4368  1.5378
 2379TIP3    H228629   3.870   6.111  14.746  3.5369  0.5555 -1.3732
 2380TIP3   OH228630   1.452   3.593   2.048 -0.1134  0.2366  0.2895
 2380TIP3    H128631   1.465   3.664   1.985  0.0295  0.8362  0.9846
 2380TIP3    H228632   1.395   3.631   2.115 -0.1302 -0.3434  0.6077
 2381TIP3   OH228633   3.658   5.520  16.076 -0.0773 -0.2037  0.0377
 2381TIP3    H128634   3.610   5.579  16.019  0.9138 -0.6485 -1.2775
 2381TIP3    H228635   3.731   5.488  16.023  0.8937 -0.6008  1.5568
 2382TIP3   OH228636   0.501   3.596   1.109 -0.4494  0.7292  0.6958
 2382TIP3    H128637   0.566   3.527   1.116 -1.2242  0.1172  2.0253
 2382TIP3    H228638   0.438   3.577   1.178 -3.0171  0.2829 -1.6835
 2383TIP3   OH228639   3.254   0.608   3.513 -0.5107 -0.0810 -0.0248
 2383TIP3    H128640   3.299   0.544   3.458  0.4870  0.3101  0.3461
 2383TIP3    H228641   3.295   0.692   3.491 -1.3201  0.3385  0.0246
 2384TIP3   OH228642   1.290   6.487   1.514  0.0091 -0.0896 -0.6188
 2384TIP3    H128643   1.263   6.458   1.427  1.1796 -2.5554 -0.2114
 2384TIP3    H228644   1.223   6.452   1.573 -0.1805  0.6111 -0.4179
 2385TIP3   OH228645   1.974   4.496   3.515  0.1642 -0.1238  0.0526
 2385TIP3    H128646   2.028   4.488   3.594  0.2303  1.9292  0.2491
 2385TIP3    H228647   2.037   4.492   3.443  0.3070 -0.2589  0.1842
 2386TIP3   OH228648   5.267   4.383   3.511 -0.2545 -0.1849 -0.3019
 2386TIP3    H128649   5.327   4.326   3.560  0.5799 -0.5658 -1.7563
 2386TIP3    H228650   5.291   4.370   3.420 -0.8389  1.6309 -0.7218
 2387TIP3   OH228651   2.590   1.322   0.737  0.6575  0.8864 -0.0149
 2387TIP3    H128652   2.574   1.416   0.728  0.9550  0.7698 -1.8557
 2387TIP3    H228653   2.660   1.303   0.676  1.1024 -0.4159  0.8729
 2388TIP3   OH228654   3.699   2.000  13.377  1.1096 -0.1880 -0.1670
 2388TIP3    H128655   3.615   2.032  13.345  1.3615  1.0710  0.3747
 2388TIP3    H228656   3.762   2.067  13.350  1.2770  1.0932  3.1474
 2389TIP3   OH228657   1.124   2.118  13.236 -0.4359  0.1093 -0.2229
 2389TIP3    H128658   1.191   2.170  13.282 -2.3166  0.7856  1.8350
 2389TIP3    H228659   1.164   2.032  13.225  0.7098  0.4399  1.2020
 2390TIP3   OH228660   1.620   2.082   6.559 -0.0929 -0.2675 -0.0242
 2390TIP3    H128661   1.712   2.069   6.536 -0.0773  2.6622 -1.9648
 2390TIP3    H228662   1.621   2.112   6.650  0.8202 -0.8192  0.1469
 2391TIP3   OH228663   4.994   6.538  11.931  0.0844 -0.4474 -0.3399
 2391TIP3    H128664   4.910   6.584  11.933  0.6483  0.5735  0.5392
 2391TIP3    H228665   5.001   6.506  11.841 -0.9713 -0.0301 -0.5865
 2392TIP3   OH228666   2.468   3.129   5.234  0.7153 -0.3686 -0.0290
 2392TIP3    H128667   2.464   3.126   5.138  0.8242  1.0677 -0.0841
 2392TIP3    H228668   2.536   3.193   5.253 -0.1919  0.2974  1.0121
 2393TIP3   OH228669   4.271   0.270   2.661  0.9771 -0.2209 -0.4061
 2393TIP3    H128670   4.254   0.182   2.628  2.1866 -0.6346  0.0380
 2393TIP3    H228671   4.363   0.268   2.688  0.3031  0.3889  2.0484
 2394TIP3   OH228672   3.542   2.140  12.639  0.3076 -0.1428  0.6576
 2394TIP3    H128673   3.628   2.099  12.634  0.1127 -0.8595  2.5271
 2394TIP3    H228674   3.496   2.089  12.706 -0.4684  2.1941  1.9643
 2395TIP3   OH228675   2.370   4.452   2.184  0.5511 -0.1340  0.3770
 2395TIP3    H128676   2.350   4.402   2.105  0.9477 -0.4635  0.4837
 2395TIP3    H228677   2.285   4.462   2.228  0.1472  1.0003 -0.6403
 2396TIP3   OH228678   6.021   4.877  15.502 -0.2304 -0.2416 -0.3744
 2396TIP3    H128679   6.106   4.907  15.533 -1.1603  1.6221  0.3879
 2396TIP3    H228680   5.957   4.933  15.546 -1.8502 -1.4155 -1.1671
 2397TIP3   OH228681   3.507   5.662   4.552 -0.2499 -0.0410 -0.2897
 2397TIP3    H128682   3.577   5.705   4.602  0.0040  0.1653 -0.8211
 2397TIP3    H228683   3.517   5.569   4.574 -0.3714  0.0887  0.3298
 2398TIP3   OH228684   0.627   6.643  13.172 -0.1372 -0.3790  0.1891
 2398TIP3    H128685   0.621   6.728  13.129 -1.2433 -0.7420 -0.4173
 2398TIP3    H228686   0.692   6.655  13.241  0.7282  0.5693 -0.7679
 2399TIP3   OH228687   0.978   1.986   0.351  0.1927  0.1579  0.3731
 2399TIP3    H128688   1.031   2.043   0.296  1.4280 -3.1672 -2.0712
 2399TIP3    H228689   0.923   1.937   0.290  2.9994 -5.0928  1.7217
 2400TIP3   OH228690   3.528   0.914  14.486 -0.0361  0.4043  0.4346
 2400TIP3    H128691   3.486   0.834  14.454 -0.3042 -0.8029  3.5850
 2400TIP3    H228692   3.455   0.972  14.507  0.1287  1.0434 -0.6940
 2401TIP3   OH228693   4.038   3.249   5.004 -0.0961  0.1198 -0.4116
 2401TIP3    H128694   4.030   3.275   4.912  1.5226 -0.7397 -0.8084
 2401TIP3    H228695   3.967   3.296   5.048  0.7890  2.6696 -1.6208
 2402TIP3   OH228696   1.240   3.779   2.104  0.0373 -0.1243 -0.0995
 2402TIP3    H128697   1.266   3.829   2.027  2.6288 -0.5045  0.4858
 2402TIP3    H228698   1.225   3.845   2.172 -1.8014  0.1774 -0.7561
 2403TIP3   OH228699   2.437   1.319  14.531  0.3189 -0.0861  0.1358
 2403TIP3    H128700   2.444   1.363  14.446 -0.5299  0.0831  0.1443
 2403TIP3    H228701   2.354   1.351  14.566  0.0298 -1.1839  0.4449
 2404TIP3   OH228702   2.335   2.339   3.574 -0.6728  0.0712  0.7941
 2404TIP3    H128703   2.425   2.309   3.584 -0.3326  0.9246  0.3118
 2404TIP3    H228704   2.311   2.312   3.485  0.3296  3.0270 -0.4051
 2405TIP3   OH228705   6.576   0.307   2.617 -0.2459  0.2069 -0.4889
 2405TIP3    H128706   6.512   0.271   2.678 -0.6123  0.3316 -0.7955
 2405TIP3    H228707   6.601   0.391   2.655 -0.2725  0.1639 -0.3759
 2406TIP3   OH228708   3.105   5.763   3.620  0.0717  0.2028  0.0270
 2406TIP3    H128709   3.179   5.703   3.630 -0.2285  0.0557  1.3583
 2406TIP3    H228710   3.046   5.717   3.560  0.1648 -0.5186  0.4919
 2407TIP3   OH228711   3.317   2.514  15.142 -0.3641 -0.1680  0.1723
 2407TIP3    H128712   3.280   2.491  15.057 -0.5564 -1.2888  0.5443
 2407TIP3    H228713   3.404   2.548  15.123 -0.1080 -1.1395 -0.4229
 2408TIP3   OH228714   1.934   4.289  12.259 -0.2601  0.1963  0.5628
 2408TIP3    H128715   2.005   4.235  12.295 -0.6082  0.3672  1.5317
 2408TIP3    H228716   1.950   4.376  12.295 -0.4501  0.4407  0.0529
 2409TIP3   OH228717   6.712   0.918  14.173  0.3245 -0.1582 -0.0558
 2409TIP3    H128718   6.774   0.936  14.102  0.3075 -0.1065 -0.0584
 2409TIP3    H228719   6.663   0.841  14.143  0.5267 -0.3245  0.0364
 2410TIP3   OH228720   4.964   1.637   2.831  0.0204  0.6649 -0.4601
 2410TIP3    H128721   5.046   1.590   2.816 -0.0024  0.4602  0.0357
 2410TIP3    H228722   4.966   1.658   2.925 -0.2895  1.0469 -0.5393
 2411TIP3   OH228723   2.648   0.277   4.892  0.1770  0.3536 -0.6772
 2411TIP3    H128724   2.701   0.220   4.837  1.6769 -0.5879  1.6674
 2411TIP3    H228725   2.708   0.346   4.920  0.2986 -0.7825  2.0884
 2412TIP3   OH228726   5.090   4.439  12.341  0.4483 -0.0708 -0.4878
 2412TIP3    H128727   5.167   4.489  12.369  1.2896 -1.8213  0.4779
 2412TIP3    H228728   5.035   4.435  12.419  0.4588 -0.7448 -0.5102
 2413TIP3   OH228729   0.444   3.251   2.276 -0.3240 -0.2410 -0.0076
 2413TIP3    H128730   0.478   3.336   2.303  2.3817 -1.1829 -0.2590
 2413TIP3    H228731   0.473   3.242   2.185 -0.1046 -1.6481  0.1922
 2414TIP3   OH228732   1.266   4.794  14.512 -0.5147  0.0807 -0.3958
 2414TIP3    H128733   1.212   4.733  14.562 -1.4183  1.5483  0.4364
 2414TIP3    H228734   1.295   4.859  14.576 -0.3254  1.0589 -1.4576
 2415TIP3   OH228735   6.409   0.506   2.911  0.7037 -0.2921  0.2243
 2415TIP3    H128736   6.385   0.436   2.971 -0.5451  0.1832  0.2970
 2415TIP3    H228737   6.325   0.543   2.882  1.3422  2.7430  2.0514
 2416TIP3   OH228738   5.541   3.741   1.393 -0.1069 -0.2770  0.2246
 2416TIP3    H128739   5.467   3.716   1.338  0.5640  0.6668 -1.1482
 2416TIP3    H228740   5.519   3.828   1.424  0.5257  0.1156 -0.4014
 2417TIP3   OH228741   0.702   6.479  16.934  0.1010 -0.2341  0.4547
 2417TIP3    H128742   0.771   6.437  16.882 -1.2684 -1.7066 -0.2487
 2417TIP3    H228743   0.703   6.570  16.906  0.4056 -0.6787 -1.0735
 2418TIP3   OH228744   5.138   5.655  11.016 -0.3774 -0.2891 -0.2820
 2418TIP3    H128745   5.109   5.709  11.089 -0.2187  1.0854 -1.2320
 2418TIP3    H228746   5.074   5.584  11.012 -1.0599  0.2816  0.4390
 2419TIP3   OH228747   0.965   2.556  12.833 -0.2717  0.0634  0.0799
 2419TIP3    H128748   1.028   2.514  12.774  0.1060  0.7328  0.0124
 2419TIP3    H228749   0.998   2.536  12.921  0.7659  1.5455  0.0272
 2420TIP3   OH228750   4.923   4.204   4.164 -0.3156 -0.0234 -0.0207
 2420TIP3    H128751   4.993   4.207   4.098 -1.9218 -0.0865 -1.7711
 2420TIP3    H228752   4.870   4.281   4.146 -0.6972  0.0279  1.3054
 2421TIP3   OH228753   3.878   5.988   1.117 -0.0577 -0.5103 -0.0564
 2421TIP3    H128754   3.890   5.950   1.030 -0.4626  0.3751 -0.5114
 2421TIP3    H228755   3.966   5.993   1.154  0.2383  0.0377 -0.8230
 2422TIP3   OH228756   3.937   5.908  12.435  0.8851  0.4387  1.1250
 2422TIP3    H128757   3.850   5.899  12.476 -0.3588  0.6063 -1.3782
 2422TIP3    H228758   3.959   6.001  12.447 -0.4046  0.9585 -0.3214
 2423TIP3   OH228759   0.752   2.989  15.255 -0.2679 -0.0911  0.0797
 2423TIP3    H128760   0.722   3.061  15.199 -0.9353 -0.0650  0.4780
 2423TIP3    H228761   0.779   2.922  15.193  1.8784  1.1017 -0.3332
 2424TIP3   OH228762   3.116   5.586  12.594  0.0699 -0.1796  0.6661
 2424TIP3    H128763   3.196   5.631  12.566 -0.0839 -0.4529 -0.2264
 2424TIP3    H228764   3.045   5.632  12.548  0.0351 -2.3498 -1.5920
 2425TIP3   OH228765   2.391   1.704   0.048 -0.2756  0.1076  0.2505
 2425TIP3    H128766   2.414   1.696  -0.045  1.2736 -0.4692  0.6722
 2425TIP3    H228767   2.307   1.751   0.048  0.1062  0.8135 -1.4046
 2426TIP3   OH228768   1.126   4.768   2.858 -0.8252 -0.4405  0.2254
 2426TIP3    H128769   1.071   4.696   2.826 -1.8644  0.7262 -0.6876
 2426TIP3    H228770   1.063   4.836   2.883  0.1167 -0.1309  1.7729
 2427TIP3   OH228771   3.116   6.718  15.964 -0.4364 -0.7717 -0.3526
 2427TIP3    H128772   3.126   6.809  15.993  0.9323 -0.9154 -0.3263
 2427TIP3    H228773   3.065   6.677  16.034  2.2608 -0.9424  1.6430
 2428TIP3   OH228774   4.209   2.326   0.826 -0.5212 -0.0172 -0.0535
 2428TIP3    H128775   4.154   2.326   0.747 -0.4039  0.9500 -0.1414
 2428TIP3    H228776   4.245   2.237   0.829 -0.3342  0.0031 -1.2283
 2429TIP3   OH228777   3.749   5.715  13.250 -0.1427  0.2549 -0.2113
 2429TIP3    H128778   3.805   5.665  13.191  0.1818  0.9741 -0.5135
 2429TIP3    H228779   3.671   5.734  13.199 -0.3008 -0.0062 -0.0700
 2430TIP3   OH228780   6.537   4.447   1.039 -0.7378 -0.0495 -0.4044
 2430TIP3    H128781   6.559   4.540   1.043 -0.7502 -0.0817  0.3994
 2430TIP3    H228782   6.582   4.408   1.114 -2.6410 -0.3042  0.6274
 2431TIP3   OH228783   6.488   2.161   3.789 -0.0009  0.3310  0.2553
 2431TIP3    H128784   6.413   2.219   3.802 -3.2022 -3.0410 -2.1219
 2431TIP3    H228785   6.482   2.098   3.861  1.1093  0.4986  0.5168
 2432TIP3   OH228786   1.731   6.282   2.309 -0.0932 -0.4562 -0.3582
 2432TIP3    H128787   1.638   6.271   2.329  0.1547  0.3711  1.3407
 2432TIP3    H228788   1.777   6.251   2.387  1.0265 -0.1573 -0.8813
 2433TIP3   OH228789   3.088   4.311   2.190  0.0478 -0.7287  0.0399
 2433TIP3    H128790   3.122   4.246   2.251 -1.3404  0.4869  2.1742
 2433TIP3    H228791   3.164   4.337   2.138  1.2549 -1.7819  1.2319
 2434TIP3   OH228792   1.423   1.851  15.797  0.0465  0.5546  0.4266
 2434TIP3    H128793   1.473   1.932  15.790  1.1555 -0.1021  0.6066
 2434TIP3    H228794   1.412   1.821  15.707 -0.5803  1.0292  0.3421
 2435TIP3   OH228795   6.480   3.537   5.963 -0.5752 -0.7551  0.2614
 2435TIP3    H128796   6.438   3.623   5.967 -0.5906 -0.7540  0.0819
 2435TIP3    H228797   6.411   3.479   5.930  0.1097 -0.4066 -1.8506
 2436TIP3   OH228798   4.536   4.027  10.668  0.1602 -0.1392 -0.0982
 2436TIP3    H128799   4.493   4.111  10.652  1.3439  0.4429 -0.2501
 2436TIP3    H228800   4.553   3.992  10.580 -1.7983 -1.3063 -0.0354
 2437TIP3   OH228801   0.923   6.151   1.801 -0.5117  0.3098 -0.4256
 2437TIP3    H128802   1.005   6.102   1.802  0.3573  1.7241 -1.0905
 2437TIP3    H228803   0.949   6.242   1.813 -2.0682  0.6777  0.3290
 2438TIP3   OH228804   5.940   6.364   5.151  0.1035  0.2474  0.5318
 2438TIP3    H128805   5.848   6.344   5.167  0.4236 -1.5552  0.2019
 2438TIP3    H228806   5.939   6.424   5.077 -0.6710 -2.1862 -1.4814
 2439TIP3   OH228807   0.354   4.292   3.020  0.1623  0.2367 -0.0689
 2439TIP3    H128808   0.339   4.276   3.113 -2.8453  0.0825 -0.5265
 2439TIP3    H228809   0.345   4.386   3.009 -1.8972  0.0041 -0.5617
 2440TIP3   OH228810   0.982   4.394   3.236  0.3376  0.3701  0.3174
 2440TIP3    H128811   1.076   4.413   3.236  0.1893  1.4851 -3.0933
 2440TIP3    H228812   0.942   4.475   3.204 -1.6350 -0.8060 -0.2495
 2441TIP3   OH228813   4.175   2.248   4.557 -0.0595  0.3333 -0.0686
 2441TIP3    H128814   4.183   2.315   4.490  0.0404  0.1021 -0.2861
 2441TIP3    H228815   4.120   2.181   4.518 -0.5864  0.5246  0.3348
 2442TIP3   OH228816   1.286   1.752  17.208 -0.2783 -0.1405  0.2053
 2442TIP3    H128817   1.377   1.742  17.237  0.0164  2.0136  0.1037
 2442TIP3    H228818   1.290   1.740  17.113 -0.1385 -0.3126  0.2316
 2443TIP3   OH228819   3.298   5.921   3.744  0.4958  0.4580  0.0881
 2443TIP3    H128820   3.371   5.866   3.716  0.7789  1.8336 -1.9835
 2443TIP3    H228821   3.223   5.887   3.696 -0.1832 -0.7232  1.9410
 2444TIP3   OH228822   2.637   2.382  13.450  0.1401 -0.3702 -0.1816
 2444TIP3    H128823   2.649   2.349  13.361 -3.5340  1.0729 -1.3127
 2444TIP3    H228824   2.545   2.362  13.471 -0.0733  2.4593  1.8966
 2445TIP3   OH228825   2.126   2.081   3.215  0.2359  0.3895 -0.2836
 2445TIP3    H128826   2.080   2.159   3.244 -0.2325 -0.3399  0.9546
 2445TIP3    H228827   2.070   2.043   3.147  0.1059  0.7092 -0.3550
 2446TIP3   OH228828   4.557   0.393  16.446 -0.1654  0.0847  0.2302
 2446TIP3    H128829   4.584   0.478  16.482  0.2103  0.1635 -0.2303
 2446TIP3    H228830   4.498   0.357  16.511  0.4480  0.2639  0.8882
 2447TIP3   OH228831   4.023   5.826   1.791  0.6339  0.4391  0.0368
 2447TIP3    H128832   3.993   5.884   1.721 -1.6373  0.3276  0.8907
 2447TIP3    H228833   4.076   5.760   1.746 -0.6138  0.4904 -1.5479
 2448TIP3   OH228834   3.923   6.787  13.604 -0.1276 -0.3674  0.5701
 2448TIP3    H128835   3.981   6.721  13.643  0.4868 -1.1017 -1.5035
 2448TIP3    H228836   3.981   6.860  13.583 -0.7367  0.7065  2.4682
 2449TIP3   OH228837   4.517   5.536  13.162 -0.2477 -0.4453 -0.2069
 2449TIP3    H128838   4.462   5.569  13.091 -0.8029  0.1038  0.4777
 2449TIP3    H228839   4.527   5.443  13.143  0.8008 -0.0185 -1.7947
 2450TIP3   OH228840   0.399   2.469   1.172  0.7549  0.6514 -0.2650
 2450TIP3    H128841   0.428   2.412   1.101 -2.4277 -1.4030  0.0271
 2450TIP3    H228842   0.413   2.418   1.251 -0.3014  1.0439  0.1778
 2451TIP3   OH228843   1.131   0.171   3.828  0.0428  0.5001 -0.0340
 2451TIP3    H128844   1.050   0.215   3.801 -0.1664 -0.0090 -0.2548
 2451TIP3    H228845   1.192   0.189   3.756 -0.0710  0.3561 -0.1686
 2452TIP3   OH228846   1.277   1.068   1.218  0.3002  0.1376 -0.1831
 2452TIP3    H128847   1.318   1.152   1.240  0.6983  0.0984 -0.7586
 2452TIP3    H228848   1.341   1.025   1.161  0.2154 -0.6718  0.3327
 2453TIP3   OH228849   1.836   0.314   4.325  0.1486 -0.5444  0.1741
 2453TIP3    H128850   1.794   0.396   4.353  0.5108 -0.2956 -0.0132
 2453TIP3    H228851   1.917   0.342   4.283  0.9133 -1.0601  1.2720
 2454TIP3   OH228852   1.330   3.076  12.882 -0.4219  0.0618 -0.2976
 2454TIP3    H128853   1.316   3.161  12.842  0.6584  1.1864  1.6112
 2454TIP3    H228854   1.412   3.045  12.844  0.3218  0.8803  0.6090
 2455TIP3   OH228855   5.854   5.237   4.654  0.4680  0.2103  0.8284
 2455TIP3    H128856   5.763   5.207   4.652  0.0822  1.3476  0.5974
 2455TIP3    H228857   5.892   5.201   4.574  0.1575 -0.0828  0.8079
 2456TIP3   OH228858   0.598   2.901   0.801 -0.6015  0.1361 -0.0033
 2456TIP3    H128859   0.537   2.967   0.832 -1.5691  0.6870 -2.9561
 2456TIP3    H228860   0.681   2.922   0.844 -2.3141 -0.3032  3.6419
 2457TIP3   OH228861   3.532   0.614   2.188 -0.4167 -0.2142  0.0995
 2457TIP3    H128862   3.572   0.538   2.232 -0.0253 -0.5137 -0.7413
 2457TIP3    H228863   3.508   0.673   2.258  0.6828 -0.4481  0.6884
 2458TIP3   OH228864   0.312   3.733  11.741 -0.1552 -0.1661  0.2080
 2458TIP3    H128865   0.240   3.702  11.687 -0.4837  0.5036  0.2552
 2458TIP3    H228866   0.389   3.729  11.684 -0.6132  1.1606 -0.5220
 2459TIP3   OH228867   5.614   4.584  14.520  0.3201  0.5549 -0.1319
 2459TIP3    H128868   5.662   4.666  14.506 -0.6900  1.1021 -0.4342
 2459TIP3    H228869   5.587   4.556  14.433 -1.0457  0.9512  0.1532
 2460TIP3   OH228870   6.375   3.724   4.957  0.3080  0.0147 -0.5328
 2460TIP3    H128871   6.434   3.777   4.904 -0.0398 -0.1841 -1.1133
 2460TIP3    H228872   6.420   3.715   5.041  0.1166  1.6949 -0.2453
 2461TIP3   OH228873   1.713   1.184  10.662  0.1301  0.1785  0.0824
 2461TIP3    H128874   1.725   1.136  10.744 -1.5653 -0.4007  0.0048
 2461TIP3    H228875   1.796   1.229  10.648  0.8579 -0.7140  1.4748
 2462TIP3   OH228876   6.705   0.948   1.274  0.4443 -0.0934  0.6188
 2462TIP3    H128877   6.774   0.985   1.328  0.5226  0.4459  0.1647
 2462TIP3    H228878   6.718   0.989   1.188  0.9707 -1.7175 -0.1026
 2463TIP3   OH228879   1.654   0.182   2.933  0.3122 -0.2612  0.0161
 2463TIP3    H128880   1.617   0.129   2.863  1.9699 -1.4164 -0.0097
 2463TIP3    H228881   1.637   0.272   2.906 -1.5908 -0.7311 -0.4592
 2464TIP3   OH228882   6.665   3.117   5.551 -0.3697 -0.2300  0.3446
 2464TIP3    H128883   6.751   3.135   5.512  0.3927  1.5627  2.7694
 2464TIP3    H228884   6.606   3.178   5.508  0.0605  0.2854  0.4831
 2465TIP3   OH228885   3.869   1.805  14.248  0.1897  0.7916 -0.1799
 2465TIP3    H128886   3.913   1.878  14.205  1.8374  0.5749  1.0787
 2465TIP3    H228887   3.778   1.833  14.256  0.6738  2.4502 -0.2753
 2466TIP3   OH228888   3.442   6.370  12.119 -0.0155  0.3158  0.4859
 2466TIP3    H128889   3.437   6.376  12.215  0.0036  1.1603  0.4405
 2466TIP3    H228890   3.368   6.423  12.088  0.2114  0.3658  0.0294
 2467TIP3   OH228891   4.668   3.147  16.745 -0.3841  0.8736  0.2202
 2467TIP3    H128892   4.706   3.078  16.800 -0.3141  2.1633  1.8432
 2467TIP3    H228893   4.727   3.154  16.671  1.8380  1.9008  2.0209
 2468TIP3   OH228894   1.178   3.355   0.737  0.3249  0.3069 -0.1677
 2468TIP3    H128895   1.188   3.260   0.739  0.8512  0.3960  1.5187
 2468TIP3    H228896   1.092   3.369   0.697 -0.6624 -0.9456  1.4782
 2469TIP3   OH228897   1.770   3.915  12.102  0.2335 -0.1598 -0.4040
 2469TIP3    H128898   1.782   3.909  12.196 -0.6108  1.3608 -0.1880
 2469TIP3    H228899   1.855   3.943  12.068 -0.1276  1.6902  0.1679
 2470TIP3   OH228900   4.592   4.096  13.304 -0.0004  0.5180  0.3486
 2470TIP3    H128901   4.624   4.020  13.255 -1.1650 -0.5992  1.3067
 2470TIP3    H228902   4.617   4.078  13.395 -1.9209  0.4025  0.8626
 2471TIP3   OH228903   1.921   3.214   4.735  0.9220 -0.2469 -0.4879
 2471TIP3    H128904   1.884   3.191   4.820 -0.3048 -0.8901 -1.1839
 2471TIP3    H228905   1.872   3.161   4.672  1.7795  0.2577 -1.6028
 2472TIP3   OH228906   1.910   5.424   2.180 -0.4780 -0.6915  0.1580
 2472TIP3    H128907   1.967   5.348   2.176  0.5685  0.0487  0.8405
 2472TIP3    H228908   1.937   5.478   2.105 -2.6085 -1.9258 -1.5737
 2473TIP3   OH228909   3.918   4.362  12.827  0.5819 -0.0936 -0.1567
 2473TIP3    H128910   3.900   4.360  12.733  2.2705 -1.5867 -0.4816
 2473TIP3    H228911   3.986   4.429  12.838  0.4249  0.0431 -0.0092
 2474TIP3   OH228912   5.995   6.235   2.352 -0.1808 -0.2840 -0.1721
 2474TIP3    H128913   6.015   6.302   2.417 -2.0710 -2.3244  2.6348
 2474TIP3    H228914   5.899   6.239   2.342 -0.0312 -0.7381 -2.0815
 2475TIP3   OH228915   2.161   3.543  12.023  0.4444  0.3947 -0.1832
 2475TIP3    H128916   2.253   3.572  12.019 -0.2084  2.5336 -0.5795
 2475TIP3    H228917   2.115   3.604  11.965 -1.5692  0.6862  1.6784
 2476TIP3   OH228918   2.103   0.702   4.118  0.2728  0.6231  0.6565
 2476TIP3    H128919   2.136   0.613   4.102  1.1393  0.8076  1.3796
 2476TIP3    H228920   2.179   0.759   4.107 -0.0563  1.1746  1.1623
 2477TIP3   OH228921   0.868   6.481   0.734 -0.2159  0.0464  0.1220
 2477TIP3    H128922   0.827   6.468   0.820  1.1217 -0.5950  0.6847
 2477TIP3    H228923   0.961   6.489   0.754 -0.0389  1.3032 -1.1516
 2478TIP3   OH228924   0.029   1.345  10.854 -0.3689  0.1981  0.2011
 2478TIP3    H128925   0.052   1.252  10.843  0.6807  0.4930 -0.1506
 2478TIP3    H228926   0.050   1.385  10.770 -0.9728  0.7328  0.3015
 2479TIP3   OH228927   2.984   0.696   3.647 -0.1472 -0.1090 -0.0240
 2479TIP3    H128928   3.036   0.693   3.567 -0.4937  0.1055 -0.2623
 2479TIP3    H228929   3.048   0.702   3.718  0.1497  0.2457 -0.3216
 2480TIP3   OH228930   1.575   0.255   1.587 -0.5463  0.6561  0.2311
 2480TIP3    H128931   1.586   0.162   1.609 -0.6149  0.4578 -0.5582
 2480TIP3    H228932   1.518   0.289   1.656 -2.5650 -0.4616 -0.8479
 2481TIP3   OH228933   5.856   3.066   4.672 -0.0480  0.5012  0.2014
 2481TIP3    H128934   5.763   3.045   4.660  0.3028 -0.6223 -0.6342
 2481TIP3    H228935   5.875   3.128   4.601  0.4071 -1.1030 -1.1205
 2482TIP3   OH228936   1.972   4.518   1.100  0.2938  0.1642  0.4891
 2482TIP3    H128937   2.057   4.527   1.057  0.2693  2.0585  0.7777
 2482TIP3    H228938   1.971   4.589   1.165 -1.9987  0.9395 -0.3442
 2483TIP3   OH228939   4.849   5.208  12.569  0.0455 -0.0836  0.0039
 2483TIP3    H128940   4.889   5.123  12.549  0.2763  0.2460 -0.9716
 2483TIP3    H228941   4.924   5.266  12.584 -0.0954  0.1040 -0.0212
 2484TIP3   OH228942   4.613   4.989  12.463 -0.4424 -0.3185 -0.0789
 2484TIP3    H128943   4.663   5.070  12.457  0.0593 -0.4239  2.0696
 2484TIP3    H228944   4.592   4.966  12.373  0.5374  1.4997 -0.7871
 2485TIP3   OH228945   0.218   4.463  10.477  0.0413 -0.2163 -0.0232
 2485TIP3    H128946   0.242   4.395  10.540  0.5749  1.4963  1.6592
 2485TIP3    H228947   0.166   4.525  10.528 -1.6566 -0.0738 -1.8753
 2486TIP3   OH228948   3.822   3.452  13.835  0.2935  0.1526 -0.6199
 2486TIP3    H128949   3.866   3.536  13.828 -1.1230  0.8978 -0.8049
 2486TIP3    H228950   3.762   3.450  13.761 -1.0994 -0.1499  0.4864
 2487TIP3   OH228951   3.021   2.002  14.719 -0.4543  0.1400  0.3787
 2487TIP3    H128952   3.096   2.030  14.772 -1.1461 -0.4673  1.7048
 2487TIP3    H228953   3.025   1.907  14.720  0.3044  0.1283 -1.8256
 2488TIP3   OH228954   1.940   3.637  14.485 -0.3147  0.8467 -0.2050
 2488TIP3    H128955   1.865   3.586  14.515  0.9718 -1.2689 -0.5051
 2488TIP3    H228956   1.906   3.726  14.473 -1.6539  1.0325  4.2678
 2489TIP3   OH228957   2.992   0.892  13.847  0.0823  0.4340 -0.1803
 2489TIP3    H128958   2.915   0.880  13.792  0.4140  1.6669 -0.9389
 2489TIP3    H228959   2.984   0.825  13.916  0.4348 -2.1811 -2.5864
 2490TIP3   OH228960   0.787   1.322  14.284  0.3666 -0.2654 -0.1951
 2490TIP3    H128961   0.715   1.370  14.326  1.1513  0.0762  0.7836
 2490TIP3    H228962   0.843   1.295  14.357  1.9082  0.5739 -1.0435
 2491TIP3   OH228963   3.071   2.032   1.983 -0.5005  0.1533  0.0324
 2491TIP3    H128964   3.131   1.993   2.046  0.1078  0.9433 -0.0416
 2491TIP3    H228965   2.990   2.047   2.033 -0.9194 -1.6614 -0.0887
 2492TIP3   OH228966   1.861   3.309   4.008 -0.8146  0.1460 -0.2158
 2492TIP3    H128967   1.769   3.296   3.986 -0.3342  1.1710 -2.9334
 2492TIP3    H228968   1.882   3.396   3.974  1.1913 -0.1201  0.2889
 2493TIP3   OH228969   5.407   1.894  13.634 -0.0105  0.2071 -0.6250
 2493TIP3    H128970   5.349   1.832  13.590 -0.1426  0.2965 -0.5748
 2493TIP3    H228971   5.461   1.931  13.563 -0.1871  0.3117 -0.7045
 2494TIP3   OH228972   4.373   5.882  10.016  0.7194  0.5194 -0.2086
 2494TIP3    H128973   4.352   5.823  10.089  0.5839  0.2120 -0.4962
 2494TIP3    H228974   4.387   5.967  10.058 -0.6570  0.6360  0.0412
 2495TIP3   OH228975   4.690   5.783  14.690  0.0738 -0.0448  0.6919
 2495TIP3    H128976   4.693   5.869  14.648 -0.1665 -1.8911 -3.3906
 2495TIP3    H228977   4.767   5.781  14.746  1.4683  1.9411 -1.0683
 2496TIP3   OH228978   5.198   3.451  13.671 -0.2609 -0.3265 -0.0710
 2496TIP3    H128979   5.166   3.362  13.685  0.0495 -0.2466  1.2442
 2496TIP3    H228980   5.255   3.468  13.746  0.1433  0.7719 -0.6083
 2497TIP3   OH228981   0.885   5.982   3.218  0.0173 -0.5136 -0.3741
 2497TIP3    H128982   0.922   5.895   3.203 -1.7739 -1.6168  1.4641
 2497TIP3    H228983   0.808   5.986   3.162  0.6646  0.3113 -1.2346
 2498TIP3   OH228984   6.442   4.049   4.028 -0.6033 -0.0864  0.0246
 2498TIP3    H128985   6.417   4.062   4.120 -0.8541  1.5770 -0.2605
 2498TIP3    H228986   6.398   4.120   3.981 -0.2755 -0.7761 -1.3557
 2499TIP3   OH228987   5.405   3.730   5.463  0.0083 -0.1936 -0.0691
 2499TIP3    H128988   5.449   3.735   5.548 -1.6863 -0.6186  0.8738
 2499TIP3    H228989   5.428   3.644   5.429  0.2483 -0.2474  0.2281
 2500TIP3   OH228990   5.868   0.703   5.794  0.0461 -0.0219  0.1998
 2500TIP3    H128991   5.906   0.743   5.716 -0.1696  0.6528  0.4392
 2500TIP3    H228992   5.849   0.613   5.768 -0.6653  0.3939 -0.7435
 2501TIP3   OH228993   4.066   0.671  13.914  0.1066 -0.4312 -0.2946
 2501TIP3    H128994   4.068   0.690  14.008 -0.3768 -0.1002 -0.3481
 2501TIP3    H228995   4.105   0.584  13.907  2.1111  0.4091 -0.0135
 2502TIP3   OH228996   0.908   0.507   5.760 -0.6764 -0.8636  0.2741
 2502TIP3    H128997   0.867   0.486   5.843 -1.6555 -0.4596 -0.1012
 2502TIP3    H228998   0.905   0.425   5.710 -1.2352 -0.7645  0.1531
 2503TIP3   OH228999   5.855   3.886   1.874  0.1576 -1.0535 -0.3128
 2503TIP3    H129000   5.921   3.900   1.806 -1.7950  0.0867 -2.0680
 2503TIP3    H229001   5.781   3.846   1.827 -2.5509  2.8542  0.3846
 2504TIP3   OH229002   1.167   1.667  12.008  0.1717 -0.2684 -0.1231
 2504TIP3    H129003   1.235   1.659  11.941  1.1331 -1.1725  0.9298
 2504TIP3    H229004   1.145   1.760  12.009  0.0545 -0.2640 -1.7621
 2505TIP3   OH229005   2.469   4.549  12.818  0.8283  0.2548  0.3984
 2505TIP3    H129006   2.494   4.463  12.851  1.3449 -0.4797 -1.8174
 2505TIP3    H229007   2.532   4.567  12.749 -1.6882  0.6446 -1.8573
 2506TIP3   OH229008   1.528   3.621  13.657 -0.3032  0.2158  0.5141
 2506TIP3    H129009   1.552   3.685  13.724  1.6527  0.0139  0.0589
 2506TIP3    H229010   1.462   3.566  13.698 -1.3054  1.9258  1.2425
 2507TIP3   OH229011   2.820   1.946  13.983  0.1774 -0.2269 -0.3288
 2507TIP3    H129012   2.744   1.961  13.926  0.4068  0.6429 -0.4102
 2507TIP3    H229013   2.885   1.905  13.926 -0.4111 -1.4833 -0.1296
 2508TIP3   OH229014   4.142   1.324  12.804 -0.1237  0.3477 -0.1133
 2508TIP3    H129015   4.069   1.339  12.863  1.4878 -1.9401  2.5784
 2508TIP3    H229016   4.217   1.367  12.846  0.5675  0.7031 -1.6601
 2509TIP3   OH229017   5.539   1.309   6.204 -0.1385  0.4022 -0.2437
 2509TIP3    H129018   5.546   1.218   6.175 -0.3692 -0.3677  2.0190
 2509TIP3    H229019   5.627   1.332   6.233 -0.5620  0.1535  1.2702
 2510TIP3   OH229020   2.022   5.139  15.014 -0.1346 -0.4043 -0.0962
 2510TIP3    H129021   2.094   5.125  15.076 -0.2937 -0.7305  0.0185
 2510TIP3    H229022   1.967   5.061  15.024  0.2483 -0.8335 -1.2122
 2511TIP3   OH229023   6.093   4.142   4.410 -0.1896  0.5088  0.7985
 2511TIP3    H129024   6.044   4.220   4.385 -1.6321 -0.4080  0.7259
 2511TIP3    H229025   6.076   4.133   4.504 -0.1923  0.1457  0.7614
 2512TIP3   OH229026   5.501   6.639  15.346 -0.1054  0.5536  0.4573
 2512TIP3    H129027   5.449   6.677  15.275 -0.4507 -2.1656 -0.7967
 2512TIP3    H229028   5.589   6.673  15.332 -0.7345  2.1991  0.3688
 2513TIP3   OH229029   2.596   4.346   2.860 -0.2182 -0.9521  0.4006
 2513TIP3    H129030   2.537   4.280   2.823 -0.1039 -0.8854  0.1000
 2513TIP3    H229031   2.683   4.313   2.840 -0.1451 -1.2111  1.1183
 2514TIP3   OH229032   0.810   0.429  11.389  0.1245 -0.2265  0.4361
 2514TIP3    H129033   0.768   0.347  11.363 -0.4736  0.3302 -0.3675
 2514TIP3    H229034   0.895   0.428  11.345 -1.0548  0.9168 -1.9597
 2515TIP3   OH229035   4.296   1.906  13.224 -0.7699 -0.5099 -0.3489
 2515TIP3    H129036   4.300   1.998  13.249  0.9512 -0.8937  0.9147
 2515TIP3    H229037   4.203   1.886  13.220 -1.1625  0.5843  2.2079
 2516TIP3   OH229038   4.403   2.735  13.414  0.0389  0.5674  0.3455
 2516TIP3    H129039   4.413   2.805  13.349 -2.4302  1.2526  0.6902
 2516TIP3    H229040   4.482   2.742  13.468  0.0573  2.7471  0.0804
 2517TIP3   OH229041   5.980   3.269  12.186 -0.0633 -0.2144  0.4606
 2517TIP3    H129042   5.931   3.202  12.235  2.4280 -1.3443  1.4748
 2517TIP3    H229043   6.038   3.308  12.250  0.4080  1.1030 -0.7442
 2518TIP3   OH229044   3.159   1.995   3.909  0.3719  0.0517 -0.3555
 2518TIP3    H129045   3.160   2.087   3.933 -2.3057  0.2377 -0.7925
 2518TIP3    H229046   3.194   1.949   3.985  0.9824  1.3563  0.1589
 2519TIP3   OH229047   5.289   0.422   5.421  0.6774  0.1599  0.5661
 2519TIP3    H129048   5.325   0.509   5.407 -1.0361  0.8445  0.2205
 2519TIP3    H229049   5.355   0.362   5.387  1.4401  1.3750 -0.1113
 2520TIP3   OH229050   4.598   0.669   3.728  0.0461 -0.1698  0.8100
 2520TIP3    H129051   4.620   0.587   3.684 -0.1998  0.7192 -1.0354
 2520TIP3    H229052   4.503   0.666   3.738  0.0202 -0.0482  0.6042
 2521TIP3   OH229053   1.752   0.277   2.051  0.3302  0.4370  0.5843
 2521TIP3    H129054   1.717   0.348   1.998  0.3193 -1.5563 -2.1807
 2521TIP3    H229055   1.807   0.320   2.116  1.7160  2.9243 -2.1199
 2522TIP3   OH229056   1.707   3.385   6.285  0.1100 -0.5366 -0.0892
 2522TIP3    H129057   1.715   3.369   6.379  0.8478 -1.0032 -0.2249
 2522TIP3    H229058   1.729   3.477   6.274 -0.5167 -0.3435  0.2602
 2523TIP3   OH229059   3.105   5.833   1.767 -0.1815  0.8751  0.5553
 2523TIP3    H129060   3.111   5.920   1.807 -2.4041  1.3371 -0.0343
 2523TIP3    H229061   3.137   5.846   1.678 -1.7272  1.4043  0.0610
 2524TIP3   OH229062   1.799   1.799   0.556  0.0200  0.0486  0.0237
 2524TIP3    H129063   1.810   1.780   0.649  1.6080 -0.0663 -0.1709
 2524TIP3    H229064   1.882   1.839   0.529 -0.2064 -0.4269 -1.4657
 2525TIP3   OH229065   0.813   1.777  16.755  0.1284 -0.1279 -0.2265
 2525TIP3    H129066   0.768   1.781  16.840  3.9441  0.2616  1.8989
 2525TIP3    H229067   0.819   1.868  16.728 -2.0326 -0.3361 -1.4885
 2526TIP3   OH229068   6.031   3.852  11.021 -0.6342  0.2412 -0.2531
 2526TIP3    H129069   6.100   3.845  11.087 -1.7244 -0.3425  0.8270
 2526TIP3    H229070   6.075   3.828  10.939  0.0757 -1.6270  0.6605
 2527TIP3   OH229071   2.357   0.198  13.688 -0.6664  0.6333  0.2720
 2527TIP3    H129072   2.338   0.245  13.606 -0.6790 -0.4865 -0.3702
 2527TIP3    H229073   2.363   0.106  13.663  0.2567  0.3720  1.3771
 2528TIP3   OH229074   5.465   2.286   1.444 -0.0605  0.2036 -0.8576
 2528TIP3    H129075   5.428   2.199   1.450 -1.0555  0.6132 -1.0537
 2528TIP3    H229076   5.404   2.342   1.492  0.4049  0.8419 -1.0046
 2529TIP3   OH229077   5.867   3.134  15.118 -0.3003  0.1133  1.1982
 2529TIP3    H129078   5.940   3.190  15.093  1.0327 -3.0198 -2.3798
 2529TIP3    H229079   5.863   3.067  15.050 -5.1811 -1.0907  2.4572
 2530TIP3   OH229080   1.583   5.080  12.142 -0.0770 -0.0456 -0.1158
 2530TIP3    H129081   1.636   5.156  12.116  1.6044 -1.5260 -1.1593
 2530TIP3    H229082   1.566   5.033  12.060  0.8609 -2.0106  0.7677
 2531TIP3   OH229083   3.171   0.534  15.916 -0.2672  0.5225 -0.0422
 2531TIP3    H129084   3.166   0.628  15.900  2.3718  0.4568 -1.5362
 2531TIP3    H229085   3.153   0.494  15.831 -1.4668 -0.3256  0.6066
 2532TIP3   OH229086   5.947   1.283   4.945 -0.2172  0.4011  0.4187
 2532TIP3    H129087   5.874   1.311   4.891 -0.6261 -2.3245 -0.5580
 2532TIP3    H229088   5.990   1.214   4.893 -0.2163 -1.8251  3.2189
 2533TIP3   OH229089   3.251   2.901   4.499 -0.2403 -0.2293 -0.1599
 2533TIP3    H129090   3.161   2.890   4.531  0.9900 -1.6641  3.0049
 2533TIP3    H229091   3.291   2.815   4.511  1.4298  0.2692 -2.0253
 2534TIP3   OH229092   3.695   2.803  10.947 -0.3160  0.2902 -0.8252
 2534TIP3    H129093   3.623   2.863  10.965  0.5540  1.2140 -0.3201
 2534TIP3    H229094   3.660   2.716  10.965 -1.3022  0.7316 -0.6081
 2535TIP3   OH229095   1.241   2.113  11.258 -0.0144 -0.5166  0.4858
 2535TIP3    H129096   1.164   2.058  11.270  0.4257 -1.3915 -0.5710
 2535TIP3    H229097   1.218   2.172  11.185  0.4113 -0.9781 -0.0292
 2536TIP3   OH229098   3.631   6.801   3.383 -0.5831  0.1675  0.0926
 2536TIP3    H129099   3.576   6.756   3.447 -1.6190  0.2823 -0.7219
 2536TIP3    H229100   3.679   6.731   3.339 -0.5407  0.0235  0.3658
 2537TIP3   OH229101   5.653   6.382  12.424  0.0002 -0.3311  0.8321
 2537TIP3    H129102   5.631   6.399  12.332  1.0202  0.2526  0.6855
 2537TIP3    H229103   5.626   6.461  12.471 -2.4410 -1.4306  1.3914
 2538TIP3   OH229104   0.791   4.144  12.815  0.2463  0.3803  0.0568
 2538TIP3    H129105   0.848   4.179  12.747  2.2270  1.1777  2.0512
 2538TIP3    H229106   0.846   4.083  12.864 -0.2721  1.8726  2.6244
 2539TIP3   OH229107   1.727   3.065   4.611 -0.2451  0.2695 -0.0962
 2539TIP3    H129108   1.696   3.056   4.521  1.7579 -1.7856 -0.6347
 2539TIP3    H229109   1.667   3.011   4.662  0.3408 -0.9118 -0.6358
 2540TIP3   OH229110   0.130   4.389  10.893  0.4656 -0.2420  0.2863
 2540TIP3    H129111   0.189   4.400  10.818  0.8259 -2.2251  0.2455
 2540TIP3    H229112   0.187   4.365  10.966 -0.2228 -2.0052  0.2860
 2541TIP3   OH229113   5.312   5.276  10.025 -0.3650  0.5171  0.0515
 2541TIP3    H129114   5.303   5.370  10.042 -2.1817  0.4309 -0.4050
 2541TIP3    H229115   5.373   5.246  10.092 -0.4528  1.8666  0.7537
 2542TIP3   OH229116   5.063   5.048   6.420 -0.4469 -0.0870 -0.7719
 2542TIP3    H129117   5.143   5.066   6.469  0.5387 -1.0590 -1.9760
 2542TIP3    H229118   5.033   5.134   6.390  1.1559  0.1239 -1.8233
 2543TIP3   OH229119   5.673   4.303  16.648  0.0068 -0.1359  0.5814
 2543TIP3    H129120   5.740   4.285  16.582  1.2246 -0.4060  1.8562
 2543TIP3    H229121   5.653   4.218  16.686 -2.8814 -0.4354 -1.4264
 2544TIP3   OH229122   3.073   1.614  16.550 -0.8508 -0.2073 -0.0659
 2544TIP3    H129123   3.153   1.635  16.598 -0.3187 -1.8714 -0.1843
 2544TIP3    H229124   3.002   1.635  16.611 -0.2660 -0.1100  0.5875
 2545TIP3   OH229125   4.467   1.907  13.672  0.2227  0.1606  0.9525
 2545TIP3    H129126   4.481   1.946  13.587 -1.2910 -1.8495 -0.2746
 2545TIP3    H229127   4.551   1.866  13.695  0.5927  0.6040  0.3741
 2546TIP3   OH229128   6.325   0.425   0.651  0.2193 -0.9460 -0.3973
 2546TIP3    H129129   6.368   0.423   0.737  0.2245  1.4912 -0.3103
 2546TIP3    H229130   6.383   0.376   0.593  0.4684 -2.1749  0.8660
 2547TIP3   OH229131   1.914   5.763  13.699  0.2533  0.4010  0.2608
 2547TIP3    H129132   1.866   5.805  13.770  2.5416  2.0418  0.8913
 2547TIP3    H229133   1.914   5.828  13.629 -2.4142 -1.3907 -1.4893
 2548TIP3   OH229134   3.814   6.110  17.235 -0.0691 -0.2312 -0.7262
 2548TIP3    H129135   3.896   6.137  17.275 -0.1077  0.1630 -0.9132
 2548TIP3    H229136   3.816   6.148  17.147 -2.0428  2.8487  0.4756
 2549TIP3   OH229137   4.503   1.816  14.075  0.2289 -0.0233 -0.0215
 2549TIP3    H129138   4.560   1.854  14.141  1.6536  0.6805 -1.6083
 2549TIP3    H229139   4.504   1.722  14.092 -0.3923  0.2590  1.6717
 2550TIP3   OH229140   4.259   6.394  13.404 -0.1236  0.3307 -0.0274
 2550TIP3    H129141   4.315   6.333  13.357 -1.1626  0.6094 -1.6399
 2550TIP3    H229142   4.275   6.479  13.363 -1.3256  0.5060 -0.1605
 2551TIP3   OH229143   2.938   1.509   3.719 -0.1503  0.9563  0.5358
 2551TIP3    H129144   2.921   1.482   3.809 -1.2655  0.5880  0.2205
 2551TIP3    H229145   3.026   1.476   3.700 -0.1155  0.5941  1.3244
 2552TIP3   OH229146   3.316   2.567   3.600 -0.9163  0.1059 -0.1664
 2552TIP3    H129147   3.369   2.609   3.667 -0.7663 -0.7365  0.2587
 2552TIP3    H229148   3.234   2.616   3.599 -0.9113  0.1365  0.6220
 2553TIP3   OH229149   5.128   6.030   2.129  0.1456 -0.3128  0.0465
 2553TIP3    H129150   5.163   6.039   2.040 -1.0061 -1.0794 -0.4827
 2553TIP3    H229151   5.125   6.120   2.162  0.7947 -0.0432 -0.5989
 2554TIP3   OH229152   4.864   2.756   6.123 -0.2573 -0.4546  0.4090
 2554TIP3    H129153   4.780   2.787   6.158 -0.1413  0.5918 -0.2199
 2554TIP3    H229154   4.845   2.734   6.032  0.3080  0.4761  0.0592
 2555TIP3   OH229155   6.084   5.404  12.341  1.0110 -0.5725 -0.1700
 2555TIP3    H129156   6.022   5.367  12.402  0.1524  0.2303 -0.5428
 2555TIP3    H229157   6.068   5.358  12.259  1.3776 -0.8393 -0.0957
 2556TIP3   OH229158   4.983   1.958  10.599  0.0736  0.5398  0.0407
 2556TIP3    H129159   5.052   1.993  10.543 -0.7943 -0.2270 -1.5561
 2556TIP3    H229160   4.904   2.006  10.573 -0.0315  1.3529  1.7883
 2557TIP3   OH229161   0.431   0.511   5.531  0.0741 -0.8423  0.1468
 2557TIP3    H129162   0.414   0.601   5.557 -0.1733 -0.9950  0.5122
 2557TIP3    H229163   0.464   0.468   5.610 -0.2103 -1.1796  0.0839
 2558TIP3   OH229164   0.956   2.525   2.075 -0.0177  0.1614 -0.4316
 2558TIP3    H129165   0.949   2.621   2.078 -3.4914 -0.0547  0.0615
 2558TIP3    H229166   0.947   2.503   1.983  2.1621  0.3705 -0.7108
 2559TIP3   OH229167   6.520   4.443   2.675  0.0867  0.2770  0.8210
 2559TIP3    H129168   6.588   4.391   2.717  1.7818  1.5239 -0.3319
 2559TIP3    H229169   6.462   4.469   2.747  1.0901 -0.3998  1.8848
 2560TIP3   OH229170   0.423   6.155  15.686  0.5297 -0.0966 -0.1739
 2560TIP3    H129171   0.507   6.111  15.671 -0.0074 -0.8108 -1.1261
 2560TIP3    H229172   0.386   6.111  15.762 -0.5071 -2.0673 -1.7765
 2561TIP3   OH229173   1.407   4.331  11.268 -0.1215 -0.2821 -0.1962
 2561TIP3    H129174   1.334   4.312  11.327  0.1762  1.2767  0.7156
 2561TIP3    H229175   1.367   4.380  11.196  0.2804  2.3144  1.2784
 2562TIP3   OH229176   2.731   2.141   6.187 -0.2533 -0.1676 -0.1941
 2562TIP3    H129177   2.701   2.055   6.159 -2.2370 -0.2633  2.0462
 2562TIP3    H229178   2.813   2.124   6.234  0.1453 -0.6545 -1.0699
 2563TIP3   OH229179   4.199   2.572   0.304  0.6851 -0.3527  0.0044
 2563TIP3    H129180   4.109   2.601   0.291  0.6586 -0.4689 -0.0728
 2563TIP3    H229181   4.232   2.626   0.375  0.6579 -0.0855 -0.1867
 2564TIP3   OH229182   4.848   5.947  13.796 -0.5211  0.5284  0.1676
 2564TIP3    H129183   4.885   5.881  13.737 -1.9226  0.8678 -1.1101
 2564TIP3    H229184   4.894   5.933  13.879  1.7495  0.2883 -1.0907
 2565TIP3   OH229185   3.958   6.531  16.890 -0.3841 -0.1203  0.1158
 2565TIP3    H129186   3.969   6.437  16.877 -0.8573 -0.0878 -0.5473
 2565TIP3    H229187   3.917   6.539  16.976 -0.1799 -0.5185  0.2484
 2566TIP3   OH229188   4.629   1.379   5.100  0.2414 -0.2413  0.0849
 2566TIP3    H129189   4.593   1.384   5.188 -0.6209 -1.5312 -0.1834
 2566TIP3    H229190   4.559   1.412   5.043  0.6117  0.1206 -0.1680
 2567TIP3   OH229191   6.814   2.455   4.239  0.0982 -0.5440  0.0091
 2567TIP3    H129192   6.775   2.411   4.315 -0.3743  0.1982  0.2059
 2567TIP3    H229193   6.745   2.513   4.207  1.8556  2.8975  2.0623
 2568TIP3   OH229194   3.139   4.804   1.485  0.3553 -0.2591 -0.5608
 2568TIP3    H129195   3.101   4.888   1.461 -1.0399 -0.5862  0.4576
 2568TIP3    H229196   3.176   4.818   1.572  0.1469 -0.6849 -0.4017
 2569TIP3   OH229197   3.386   3.480   5.518  0.9742  0.2000 -0.2006
 2569TIP3    H129198   3.341   3.521   5.443 -0.3555 -1.6309 -0.4279
 2569TIP3    H229199   3.373   3.386   5.506  0.6061 -0.1189  2.4248
 2570TIP3   OH229200   1.728   0.363   2.517  0.0188 -0.0983 -0.9598
 2570TIP3    H129201   1.772   0.296   2.570  0.0838  0.5081 -0.2470
 2570TIP3    H229202   1.789   0.436   2.515 -0.3019  0.1640 -1.2668
 2571TIP3   OH229203   3.423   0.601   3.868  0.7590 -0.1143  0.0960
 2571TIP3    H129204   3.504   0.629   3.825  1.2187 -0.7751  0.5254
 2571TIP3    H229205   3.409   0.512   3.837 -0.2337  0.2676 -0.5869
 2572TIP3   OH229206   5.792   2.561   6.131  0.1807 -0.1980  0.0779
 2572TIP3    H129207   5.823   2.558   6.222 -0.0403 -0.0457  0.1588
 2572TIP3    H229208   5.698   2.576   6.139  0.0578 -0.8286 -0.1649
 2573TIP3   OH229209   1.257   6.437  14.204 -0.1090  0.6716 -0.7539
 2573TIP3    H129210   1.270   6.357  14.254  0.8428  1.2779 -0.0088
 2573TIP3    H229211   1.168   6.429  14.168 -1.1532  0.6030  1.7418
 2574TIP3   OH229212   2.038   1.959   4.316  0.2571  0.5922 -0.7673
 2574TIP3    H129213   2.131   1.942   4.334  0.2895  0.4939 -1.0287
 2574TIP3    H229214   2.017   1.903   4.241 -0.6610 -1.3238  0.8667
 2575TIP3   OH229215   0.633   3.834   3.939 -0.0084  0.0076  0.2469
 2575TIP3    H129216   0.630   3.782   4.020  0.2033  1.6992  1.3656
 2575TIP3    H229217   0.705   3.796   3.889  1.4013  0.4017  1.9017
 2576TIP3   OH229218   1.823   3.252  12.791 -0.5451  0.3516  0.0509
 2576TIP3    H129219   1.908   3.210  12.779 -0.4866  0.2588  0.7552
 2576TIP3    H229220   1.829   3.334  12.742 -0.3377 -0.0331 -0.5706
 2577TIP3   OH229221   5.492   5.453  10.783 -0.1573  0.4156  0.0155
 2577TIP3    H129222   5.548   5.381  10.754  0.7688  1.5483 -1.0266
 2577TIP3    H229223   5.542   5.532  10.763 -0.9801  1.3461  1.5511
 2578TIP3   OH229224   6.653   4.568  11.563 -0.3974 -0.2060  0.3058
 2578TIP3    H129225   6.603   4.574  11.644 -1.4616 -0.4193 -0.3344
 2578TIP3    H229226   6.589   4.581  11.494  0.4086 -0.6292 -0.5311
 2579TIP3   OH229227   4.821   1.591  15.866  0.5882 -0.0282 -0.1502
 2579TIP3    H129228   4.870   1.567  15.945 -0.4841  0.3083  0.6335
 2579TIP3    H229229   4.800   1.683  15.878  1.1443  0.2403 -1.2254
 2580TIP3   OH229230   3.911   6.220   0.575 -0.5552 -0.2979  0.1000
 2580TIP3    H129231   3.956   6.304   0.563  1.2963 -1.2715  0.0424
 2580TIP3    H229232   3.972   6.155   0.538 -1.3991 -1.7986  1.3130
 2581TIP3   OH229233   3.790   2.360   1.238  0.2996 -0.0204  0.0533
 2581TIP3    H129234   3.703   2.356   1.199  0.4848 -0.7766 -0.2889
 2581TIP3    H229235   3.775   2.356   1.332 -0.0401 -0.0483 -0.0034
 2582TIP3   OH229236   1.525   2.760  16.755 -0.7794  0.4742  0.5723
 2582TIP3    H129237   1.532   2.748  16.660  0.0949 -1.1818  0.8384
 2582TIP3    H229238   1.536   2.855  16.767  1.9818  0.3731 -0.7516
 2583TIP3   OH229239   6.451   6.430  12.429 -0.0073 -0.1286  0.7982
 2583TIP3    H129240   6.510   6.492  12.385  1.0640 -0.4370  1.7629
 2583TIP3    H229241   6.402   6.389  12.358  0.4459  0.6375  0.0255
 2584TIP3   OH229242   2.332   5.033   1.606 -0.2832  0.2492  0.2026
 2584TIP3    H129243   2.415   5.076   1.585  0.5147 -0.1623  2.3609
 2584TIP3    H229244   2.349   4.940   1.595  0.1127  0.0286  2.3043
 2585TIP3   OH229245   4.373   1.931   3.462  0.1335 -0.7414  0.1883
 2585TIP3    H129246   4.380   2.026   3.463  0.4695 -0.7632  1.7955
 2585TIP3    H229247   4.303   1.911   3.524  1.2083 -1.6000  1.1651
 2586TIP3   OH229248   4.426   2.927  11.629 -0.2808 -0.4083  0.3828
 2586TIP3    H129249   4.357   2.916  11.694 -1.0560  0.8766 -0.1982
 2586TIP3    H229250   4.500   2.963  11.678 -0.6116 -0.1396  0.6868
 2587TIP3   OH229251   4.819   2.976  11.182 -0.6205  0.0255  0.3658
 2587TIP3    H129252   4.904   3.009  11.153 -2.2866  1.8988 -2.6115
 2587TIP3    H229253   4.791   3.037  11.250 -1.2917  1.7250 -1.3912
 2588TIP3   OH229254   5.875   4.097  12.483 -0.1972 -0.4507  1.0306
 2588TIP3    H129255   5.808   4.080  12.416 -0.2983  0.5021  0.8808
 2588TIP3    H229256   5.942   4.031  12.467 -0.3173 -0.3572  0.1134
 2589TIP3   OH229257   5.458   6.285  13.069 -0.1274  0.1648 -0.4593
 2589TIP3    H129258   5.514   6.215  13.036 -0.3872 -0.4252  0.3444
 2589TIP3    H229259   5.405   6.244  13.136  0.2853  1.3198  0.6007
 2590TIP3   OH229260   4.428   0.128   3.425  0.5354 -0.8716  0.0340
 2590TIP3    H129261   4.494   0.089   3.366 -0.0541 -0.4612 -0.9094
 2590TIP3    H229262   4.405   0.211   3.383 -2.1467 -1.9764 -0.7819
 2591TIP3   OH229263   6.423   2.382  14.126  0.0135  0.1303 -0.1513
 2591TIP3    H129264   6.498   2.323  14.121 -0.4390 -0.3521 -1.4593
 2591TIP3    H229265   6.362   2.339  14.186 -1.0140 -1.5607 -2.3426
 2592TIP3   OH229266   1.641   1.283   4.958 -0.0762  0.3947 -0.6895
 2592TIP3    H129267   1.681   1.237   4.884 -1.7027  1.0913 -2.0531
 2592TIP3    H229268   1.551   1.249   4.961 -0.0945  0.5429  0.8362
 2593TIP3   OH229269   1.813   0.035   4.377  0.3813 -0.0002  0.6816
 2593TIP3    H129270   1.818   0.125   4.346  0.2490  0.2228  1.3227
 2593TIP3    H229271   1.904   0.003   4.372  0.4298  0.1660  0.4718
 2594TIP3   OH229272   1.448   5.269   1.991 -0.7240 -0.1615 -0.3771
 2594TIP3    H129273   1.395   5.286   1.913 -0.0911 -0.4192 -0.8616
 2594TIP3    H229274   1.483   5.355   2.015 -1.1227 -0.0383 -0.2197
 2595TIP3   OH229275   1.484   1.006   4.865 -0.0312  0.3343 -0.3747
 2595TIP3    H129276   1.550   1.049   4.812  0.0343 -0.1316 -0.6699
 2595TIP3    H229277   1.530   0.936   4.911  0.0408  1.1059  0.7706
 2596TIP3   OH229278   3.499   2.553  11.551 -0.2414 -0.1310  0.0743
 2596TIP3    H129279   3.539   2.582  11.633  0.0304 -0.9749  0.2435
 2596TIP3    H229280   3.422   2.609  11.541 -0.6548 -0.4907  1.2528
 2597TIP3   OH229281   0.163   6.634  15.077 -0.2489  0.2666  0.0974
 2597TIP3    H129282   0.242   6.581  15.066 -0.0320  0.4457  0.7871
 2597TIP3    H229283   0.096   6.572  15.107 -0.7018 -0.1199 -1.6339
 2598TIP3   OH229284   0.649   2.616   4.282  0.4086 -0.2059  0.1273
 2598TIP3    H129285   0.626   2.701   4.244  0.4233 -1.9810 -4.1850
 2598TIP3    H229286   0.741   2.624   4.307  0.7901  0.6715 -1.5101
 2599TIP3   OH229287   1.709   3.573   0.474  1.0183 -0.6170 -0.4428
 2599TIP3    H129288   1.652   3.644   0.445 -0.0882 -1.4407 -0.3348
 2599TIP3    H229289   1.669   3.494   0.438  1.1744 -1.3746  0.9888
 2600TIP3   OH229290   0.827   3.182  10.726  0.2317  0.1943 -0.3042
 2600TIP3    H129291   0.746   3.230  10.712  0.8072  0.7731 -1.7755
 2600TIP3    H229292   0.817   3.142  10.813 -1.3966  0.6791 -0.2530
 2601TIP3   OH229293   4.970   6.570   5.582 -0.3890 -0.0028  0.2362
 2601TIP3    H129294   5.028   6.581   5.507 -0.2513 -1.8380  0.0551
 2601TIP3    H229295   4.974   6.476   5.602 -0.6760  0.4101  2.3348
 2602TIP3   OH229296   5.552   0.897  15.347  0.2909 -0.0798 -0.0930
 2602TIP3    H129297   5.574   0.942  15.428 -1.0781 -2.5452  1.7132
 2602TIP3    H229298   5.499   0.960  15.298 -1.8705  0.2064  2.5131
 2603TIP3   OH229299   4.290   1.921  12.433 -0.6171  0.3309 -0.1202
 2603TIP3    H129300   4.251   2.005  12.458 -0.8297  0.1306  0.2356
 2603TIP3    H229301   4.260   1.860  12.501 -1.0174 -0.1740 -0.7469
 2604TIP3   OH229302   5.730   3.279   3.499 -1.1140  0.1202 -0.2304
 2604TIP3    H129303   5.708   3.261   3.407 -0.7199  0.3872 -0.3833
 2604TIP3    H229304   5.647   3.277   3.545 -1.2122 -0.9275 -0.4395
 2605TIP3   OH229305   3.816   6.136  14.105 -0.2838 -0.5541 -0.0673
 2605TIP3    H129306   3.906   6.108  14.125  0.0852  0.5342 -0.1717
 2605TIP3    H229307   3.823   6.183  14.022 -1.1012 -1.2480 -0.5354
 2606TIP3   OH229308   2.225   1.171  14.681 -0.7069 -0.0599 -0.3092
 2606TIP3    H129309   2.156   1.191  14.745 -0.6987  1.0320 -0.6356
 2606TIP3    H229310   2.303   1.156  14.734 -0.9017 -0.0207 -0.0109
 2607TIP3   OH229311   2.223   5.377   5.215 -0.2027 -0.2558 -0.6371
 2607TIP3    H129312   2.202   5.284   5.215 -3.2192  0.3860  0.1220
 2607TIP3    H229313   2.243   5.397   5.123 -0.2130 -1.4825 -0.9187
 2608TIP3   OH229314   5.665   5.709   4.318 -0.4976  0.0367 -0.2086
 2608TIP3    H129315   5.702   5.719   4.406 -0.2934 -0.2558 -0.2593
 2608TIP3    H229316   5.702   5.626   4.286 -0.3153  0.3062 -0.6967
 2609TIP3   OH229317   0.720   6.058   5.688 -0.0333 -0.3065 -0.0686
 2609TIP3    H129318   0.800   6.076   5.739  0.3569 -0.7213 -0.5298
 2609TIP3    H229319   0.659   6.127   5.714 -0.7270 -1.9240  2.8190
 2610TIP3   OH229320   0.679   0.859   3.180 -0.8449  0.7079 -0.1899
 2610TIP3    H129321   0.623   0.782   3.196 -1.9960  2.1284  2.9293
 2610TIP3    H229322   0.765   0.833   3.212 -0.9775  0.3253 -0.1398
 2611TIP3   OH229323   2.840   0.226  16.538 -0.0719 -0.0165  0.4628
 2611TIP3    H129324   2.756   0.266  16.517 -0.2480  0.8161  2.6282
 2611TIP3    H229325   2.825   0.182  16.621  0.1025 -4.7212 -1.8350
 2612TIP3   OH229326   1.254   3.984  13.420 -0.5987  0.2802 -0.0558
 2612TIP3    H129327   1.319   3.960  13.354 -1.5718  1.6393 -1.5851
 2612TIP3    H229328   1.170   3.959  13.381 -1.1874  1.0547  0.6770
 2613TIP3   OH229329   0.808   2.912   0.964  0.6268 -0.3552  0.1964
 2613TIP3    H129330   0.892   2.957   0.977  0.7919 -0.9312  1.0826
 2613TIP3    H229331   0.763   2.921   1.047 -1.2575  2.1488 -1.0256
 2614TIP3   OH229332   1.700   0.230  16.496 -0.8575  0.4312  1.3497
 2614TIP3    H129333   1.734   0.142  16.481 -0.7250  0.1392  3.2742
 2614TIP3    H229334   1.649   0.250  16.418 -0.3669 -1.1041  0.6259
 2615TIP3   OH229335   1.668   3.650  12.087  0.4289 -0.5296  0.3000
 2615TIP3    H129336   1.734   3.633  12.154 -1.2334 -0.1779  2.0493
 2615TIP3    H229337   1.680   3.742  12.064 -0.4376 -0.0678  1.6982
 2616TIP3   OH229338   2.670   4.411   5.722 -0.6899  0.4719 -0.2530
 2616TIP3    H129339   2.592   4.363   5.696 -1.2071  1.8174 -1.3112
 2616TIP3    H229340   2.661   4.496   5.677  1.1035  0.8375  0.0470
 2617TIP3   OH229341   6.817   0.214   5.859 -0.4034 -0.1950 -0.3731
 2617TIP3    H129342   6.834   0.308   5.861 -0.7707 -0.1320 -0.1365
 2617TIP3    H229343   6.892   0.177   5.813  0.5126  0.0442  0.8925
 2618TIP3   OH229344   0.479   0.027  13.848  0.3016 -0.7110  0.4046
 2618TIP3    H129345   0.568   0.061  13.838  0.2137 -0.1197  1.5412
 2618TIP3    H229346   0.488  -0.050  13.903 -0.1329  0.6260  2.3928
 2619TIP3   OH229347   2.674   1.820   1.777 -0.4189  0.3814 -0.0895
 2619TIP3    H129348   2.597   1.848   1.828  1.6273  0.3605  3.1272
 2619TIP3    H229349   2.713   1.902   1.747 -0.0664  0.5308  0.7668
 2620TIP3   OH229350   2.139   3.934  11.549  0.1055 -0.2432  0.0067
 2620TIP3    H129351   2.057   3.931  11.599  0.7885 -0.1700  1.1412
 2620TIP3    H229352   2.148   4.026  11.523  0.7599  0.1048  1.4524
 2621TIP3   OH229353   1.599   6.308   0.644 -1.1145  0.3919  0.2265
 2621TIP3    H129354   1.515   6.271   0.616 -0.7036  0.9565 -1.8773
 2621TIP3    H229355   1.664   6.247   0.610 -0.5905  1.0518  0.0351
 2622TIP3   OH229356   3.392   2.930   2.674 -0.4538 -0.4559  0.3342
 2622TIP3    H129357   3.432   2.969   2.596  0.2288  0.3372  1.0644
 2622TIP3    H229358   3.319   2.879   2.640 -0.2263 -0.0447 -0.8199
 2623TIP3   OH229359   4.465   0.350  13.748  0.2585 -0.6123  0.0774
 2623TIP3    H129360   4.472   0.255  13.751 -0.3663 -0.6362  1.5622
 2623TIP3    H229361   4.517   0.380  13.823  0.5333  0.2194 -0.4385
 2624TIP3   OH229362   3.814   1.304   3.889 -0.3248  0.3670  0.5683
 2624TIP3    H129363   3.863   1.221   3.882 -0.2648  0.2483  2.3257
 2624TIP3    H229364   3.823   1.330   3.980 -0.5395  2.2171  0.0823
 2625TIP3   OH229365   2.889   0.896   6.577  0.7471  0.1977  0.2409
 2625TIP3    H129366   2.909   0.989   6.575 -0.6461  0.5045  0.1204
 2625TIP3    H229367   2.955   0.856   6.520  1.8483  1.0053  0.9412
 2626TIP3   OH229368   4.314   5.163   5.021 -0.6005  0.3414  0.0287
 2626TIP3    H129369   4.355   5.132   5.102 -0.6213  0.2830  0.0163
 2626TIP3    H229370   4.385   5.161   4.956 -0.4369  0.9522  0.1874
 2627TIP3   OH229371   3.379   2.370  12.675 -0.0316 -0.3736 -0.0919
 2627TIP3    H129372   3.411   2.280  12.676 -1.4970 -0.8948  0.5240
 2627TIP3    H229373   3.427   2.412  12.747  1.5057 -0.3308 -1.1017
 2628TIP3   OH229374   6.075   3.607   4.215  0.3075  0.8502  0.8138
 2628TIP3    H129375   6.053   3.687   4.261 -0.4534  1.3097 -0.3103
 2628TIP3    H229376   6.107   3.636   4.130  1.4776  0.0146  0.9523
 2629TIP3   OH229377   0.022   3.581  13.194  0.2395  0.0946  0.4362
 2629TIP3    H129378   0.065   3.496  13.194  0.6238  0.2842 -1.3193
 2629TIP3    H229379  -0.067   3.564  13.164  0.4221  0.3695 -0.2559
 2630TIP3   OH229380   5.918   3.252  12.892  0.3566  0.1478 -0.4827
 2630TIP3    H129381   5.999   3.228  12.935 -1.0202  1.2817  2.9200
 2630TIP3    H229382   5.851   3.197  12.933 -1.1774  2.1485 -0.1832
 2631TIP3   OH229383   1.454   4.549  11.679  0.8092  0.2336  0.1145
 2631TIP3    H129384   1.399   4.480  11.641  0.8490 -0.1212  0.6810
 2631TIP3    H229385   1.460   4.616  11.611 -2.3049  1.3964  0.8888
 2632TIP3   OH229386   3.777   1.608   2.673  0.4593  0.0631  0.3589
 2632TIP3    H129387   3.684   1.629   2.680  0.6374  0.3493  1.8855
 2632TIP3    H229388   3.799   1.628   2.582 -0.5851  1.5591  0.4170
 2633TIP3   OH229389   0.153   1.404  17.056  0.0508 -0.5587  0.4753
 2633TIP3    H129390   0.236   1.418  17.101  1.4352 -2.0714 -1.5009
 2633TIP3    H229391   0.132   1.313  17.073 -0.8320 -0.3816  0.3389
 2634TIP3   OH229392   3.435   4.975  14.358 -0.1831 -0.6167 -0.0071
 2634TIP3    H129393   3.346   4.970  14.324 -0.2871  0.7035  0.0507
 2634TIP3    H229394   3.463   5.064  14.338  0.3202 -0.3186  1.9550
 2635TIP3   OH229395   4.503   2.177   4.995 -0.2625  0.3556 -1.1300
 2635TIP3    H129396   4.447   2.244   4.956 -2.1245 -1.2274 -1.2845
 2635TIP3    H229397   4.575   2.226   5.034 -0.3269  2.2573 -3.2750
 2636TIP3   OH229398   3.122   4.313  14.974  0.0612 -0.0198  0.3373
 2636TIP3    H129399   3.060   4.332  15.044 -1.8427 -1.3486 -0.9572
 2636TIP3    H229400   3.193   4.265  15.017  1.0297  2.8349  2.1107
 2637TIP3   OH229401   5.050   0.107  15.980 -0.3337  0.4473  0.5314
 2637TIP3    H129402   5.000   0.040  15.935  1.3498 -0.5698  0.1341
 2637TIP3    H229403   5.105   0.147  15.912  1.1158 -0.0708  1.3644
 2638TIP3   OH229404   3.165   3.592  15.776 -0.0872  0.6841  0.3621
 2638TIP3    H129405   3.096   3.616  15.715 -1.2436 -2.3779  0.3648
 2638TIP3    H229406   3.158   3.656  15.847 -1.4610  1.7508 -0.7138
 2639TIP3   OH229407   1.204   5.987  16.809 -0.5590  0.5577  0.3392
 2639TIP3    H129408   1.154   6.069  16.814 -1.6610 -0.1040  0.5449
 2639TIP3    H229409   1.245   5.988  16.723 -1.1122  1.0280  0.0791
 2640TIP3   OH229410   1.616   2.939  11.572 -0.4481 -0.0092  0.1602
 2640TIP3    H129411   1.649   2.886  11.499  0.7344 -0.4192  0.9885
 2640TIP3    H229412   1.694   2.979  11.610 -1.1049  0.5183  0.9696
 2641TIP3   OH229413   3.874   3.245   1.676  0.0256  0.5108  0.1070
 2641TIP3    H129414   3.798   3.257   1.620  0.6196  0.5111 -0.7020
 2641TIP3    H229415   3.852   3.293   1.756 -0.3304  1.5336 -0.5916
 2642TIP3   OH229416   4.505   2.978  11.383  0.0578 -0.1323  0.2763
 2642TIP3    H129417   4.463   2.974  11.469  1.3456  0.4871  0.9496
 2642TIP3    H229418   4.515   2.887  11.356  0.3262 -0.3538  1.1272
 2643TIP3   OH229419   0.088   1.197   2.136  0.0034  0.4435  0.3596
 2643TIP3    H129420   0.070   1.286   2.166  0.0431  0.6616 -0.2608
 2643TIP3    H229421   0.029   1.142   2.187 -0.4669  0.8844  0.2952
 2644TIP3   OH229422   6.660   6.260  14.440 -0.2088  0.6033  0.0742
 2644TIP3    H129423   6.580   6.218  14.470 -0.3049  0.4527 -0.3886
 2644TIP3    H229424   6.721   6.188  14.423 -0.6817  0.5752 -1.6269
 2645TIP3   OH229425   6.593   4.241  11.669  0.1170 -0.3251  0.1153
 2645TIP3    H129426   6.657   4.271  11.604  1.1551 -1.3149  0.6475
 2645TIP3    H229427   6.615   4.149  11.683 -1.0951 -0.5358  0.7168
 2646TIP3   OH229428   3.606   0.935  12.554 -0.3198  0.2309  0.1772
 2646TIP3    H129429   3.599   0.918  12.460  1.5364  0.9343 -0.1020
 2646TIP3    H229430   3.613   1.031  12.560 -0.4233  0.1873  1.0415
 2647TIP3   OH229431   1.790   6.156  14.902 -0.0969  0.0218  0.3409
 2647TIP3    H129432   1.864   6.105  14.871 -0.3481 -0.2682  0.2162
 2647TIP3    H229433   1.713   6.110  14.869 -0.3389  0.2069  0.6371
 2648TIP3   OH229434   0.796   5.577  15.825  0.2166 -0.0734 -0.2817
 2648TIP3    H129435   0.838   5.518  15.762  0.2566 -1.2456  0.8200
 2648TIP3    H229436   0.717   5.530  15.853  0.7316 -0.0362  1.2975
 2649TIP3   OH229437   3.621   2.819  14.809  0.2256 -0.3728 -0.3299
 2649TIP3    H129438   3.708   2.857  14.797 -0.0881  0.6750  0.6437
 2649TIP3    H229439   3.595   2.846  14.898 -1.5316  0.2267 -1.0102
 2650TIP3   OH229440   3.653   6.489  15.165  0.3332  0.5992 -0.0443
 2650TIP3    H129441   3.577   6.451  15.121  1.3549 -0.1963 -1.1677
 2650TIP3    H229442   3.672   6.569  15.116  0.5611  0.5026 -0.1148
 2651TIP3   OH229443   4.697   2.478   3.471 -0.0017 -0.0209  0.6332
 2651TIP3    H129444   4.698   2.394   3.517  0.6041 -1.5600 -2.0758
 2651TIP3    H229445   4.778   2.477   3.419 -1.5113  0.8641 -1.7960
 2652TIP3   OH229446   5.407   1.789   3.897  0.4205  0.0647  0.3459
 2652TIP3    H129447   5.441   1.802   3.985  0.1046  1.6532  0.2433
 2652TIP3    H229448   5.335   1.851   3.889  1.5646  1.1876 -1.6394
 2653TIP3   OH229449   5.822   1.126   5.656  0.3575  0.1019  0.1694
 2653TIP3    H129450   5.735   1.159   5.633 -0.0970 -1.6254 -0.6255
 2653TIP3    H229451   5.876   1.205   5.664 -1.0326  1.1257 -0.3472
 2654TIP3   OH229452   4.267   3.396  12.753  0.6574 -0.1967 -0.0361
 2654TIP3    H129453   4.283   3.401  12.658  0.0319  0.0171 -0.1332
 2654TIP3    H229454   4.349   3.424  12.792  1.3005 -1.4193 -0.5118
 2655TIP3   OH229455   3.893   6.310   3.840  0.4663 -0.3469  0.0159
 2655TIP3    H129456   3.938   6.309   3.756  1.3000 -0.9625  0.4653
 2655TIP3    H229457   3.858   6.221   3.850 -0.0577 -0.1330  0.0893
 2656TIP3   OH229458   1.021   2.125   4.185  0.8980 -0.0203 -0.4133
 2656TIP3    H129459   1.101   2.133   4.238 -0.2308 -0.0039  1.3446
 2656TIP3    H229460   1.001   2.032   4.185  1.0636 -0.0568 -1.0795
 2657TIP3   OH229461   5.692   0.491   1.313 -0.0241 -0.2676  0.3569
 2657TIP3    H129462   5.659   0.578   1.333 -1.9868 -1.0127  0.4698
 2657TIP3    H229463   5.693   0.486   1.218  2.5190  0.7443  0.2829
 2658TIP3   OH229464   3.984   2.822  16.418  0.7550  0.0251 -0.3649
 2658TIP3    H129465   3.963   2.877  16.494  0.7506 -1.8227  0.9852
 2658TIP3    H229466   4.079   2.831  16.407  0.7685  0.2111 -0.0983
 2659TIP3   OH229467   0.285   5.930   3.093 -0.3554  0.4116 -0.2985
 2659TIP3    H129468   0.319   5.937   3.004  2.7489  0.5731  0.8212
 2659TIP3    H229469   0.194   5.901   3.083  0.2609 -0.5555 -3.4476
 2660TIP3   OH229470   6.654   5.527  12.637  0.2312  0.1910  0.0314
 2660TIP3    H129471   6.583   5.544  12.576  0.7868  1.4895 -0.2734
 2660TIP3    H229472   6.725   5.494  12.582 -0.3893 -1.8877  0.4422
 2661TIP3   OH229473   5.282   6.221   5.226 -0.3248 -0.6378  0.3083
 2661TIP3    H129474   5.211   6.160   5.247  2.4085 -4.3286 -0.5915
 2661TIP3    H229475   5.341   6.216   5.302  0.5576 -0.0394 -0.3328
 2662TIP3   OH229476   1.307   1.561   2.877  0.0793 -0.3760 -0.1011
 2662TIP3    H129477   1.344   1.612   2.949 -1.4449  0.2555  0.2641
 2662TIP3    H229478   1.375   1.563   2.809  0.7317  0.7210  0.5581
 2663TIP3   OH229479   5.491   5.442   1.120 -0.7362  0.5453 -0.3122
 2663TIP3    H129480   5.548   5.426   1.195 -0.9204 -1.2851 -0.5386
 2663TIP3    H229481   5.404   5.457   1.159 -0.7582 -0.0244 -0.1310
 2664TIP3   OH229482   1.155   4.145   3.660  0.3028  0.2201  0.3128
 2664TIP3    H129483   1.213   4.194   3.602 -0.4058  0.3260 -0.3135
 2664TIP3    H229484   1.078   4.200   3.670  0.1298 -0.1021  0.8067
 2665TIP3   OH229485   1.288   5.863  15.159  0.1673  0.5441  0.3777
 2665TIP3    H129486   1.325   5.913  15.232 -0.2794  1.1577  0.1919
 2665TIP3    H229487   1.205   5.829  15.192 -0.8697  2.2645 -0.3729
 2666TIP3   OH229488   1.287   2.665  16.942 -0.0757  0.0427 -0.2289
 2666TIP3    H129489   1.239   2.746  16.962  0.2839 -0.2184  1.8378
 2666TIP3    H229490   1.346   2.689  16.871 -1.0168  1.2046 -0.6486
 2667TIP3   OH229491   6.130   3.375   0.184 -0.3378 -0.3743 -0.1885
 2667TIP3    H129492   6.223   3.352   0.183  0.1257  1.3968 -2.2811
 2667TIP3    H229493   6.112   3.403   0.094 -2.1323  2.2223  0.9312
 2668TIP3   OH229494   5.044   3.143  15.720  0.0646  0.1986  0.0457
 2668TIP3    H129495   5.092   3.185  15.649  0.4681  0.0683  0.2367
 2668TIP3    H229496   5.081   3.181  15.800  0.5533 -0.6241  0.2247
 2669TIP3   OH229497   4.965   1.307  11.596  0.5800  0.1567 -0.0360
 2669TIP3    H129498   4.889   1.346  11.553  0.2568  1.3627  1.5768
 2669TIP3    H229499   4.929   1.264  11.674  1.4462  0.1305  0.3580
 2670TIP3   OH229500   5.642   3.612   2.166 -0.0951 -0.0083 -0.2052
 2670TIP3    H129501   5.573   3.562   2.209 -0.3725 -0.2624 -0.9473
 2670TIP3    H229502   5.711   3.619   2.233 -0.2731 -0.9221  0.0833
 2671TIP3   OH229503   2.607   2.064  12.181 -0.4525  0.0860  0.0137
 2671TIP3    H129504   2.674   2.027  12.124 -0.3941  0.5181 -0.1999
 2671TIP3    H229505   2.623   2.159  12.178  1.4527 -0.0732  3.1289
 2672TIP3   OH229506   0.782   4.105  11.475 -0.5940 -0.2701  0.8122
 2672TIP3    H129507   0.820   4.192  11.460 -1.0142 -0.0805  0.8281
 2672TIP3    H229508   0.835   4.067  11.544 -0.4764  0.0216  0.8823
 2673TIP3   OH229509   2.406   5.696   5.813 -0.0806 -0.1591  0.5048
 2673TIP3    H129510   2.347   5.669   5.882 -2.4981  1.0443 -1.0139
 2673TIP3    H229511   2.428   5.787   5.834 -2.7629  1.0287 -1.4981
 2674TIP3   OH229512   2.554   6.157   4.142  0.3143  0.4565  0.3474
 2674TIP3    H129513   2.527   6.081   4.090 -1.4022  0.0185  1.8030
 2674TIP3    H229514   2.642   6.178   4.111  0.7462 -2.0219 -0.2141
 2675TIP3   OH229515   0.852   4.141  11.014  0.8585  0.5738 -0.0842
 2675TIP3    H129516   0.936   4.161  10.973 -0.2352  0.7991 -2.2689
 2675TIP3    H229517   0.792   4.208  10.981 -0.7179 -0.9661 -0.4046
 2676TIP3   OH229518   3.037   3.088  11.316 -0.1346  1.0569 -0.2903
 2676TIP3    H129519   2.964   3.144  11.342  1.0587  2.2190  0.7047
 2676TIP3    H229520   3.076   3.132  11.240 -1.3889 -0.3910 -1.8122
 2677TIP3   OH229521   5.235   1.006  12.945  0.2084  0.1267 -0.3209
 2677TIP3    H129522   5.316   1.057  12.934 -1.2897  2.4952 -0.8018
 2677TIP3    H229523   5.231   0.988  13.039  2.2791 -1.7541 -0.5583
 2678TIP3   OH229524   4.196   3.435   0.757  0.0691 -0.0931  0.1231
 2678TIP3    H129525   4.148   3.390   0.688  0.7255  0.5106 -0.7395
 2678TIP3    H229526   4.284   3.448   0.721  0.1678  0.9906  0.7245
 2679TIP3   OH229527   4.456   5.458  15.876 -0.2879  0.6588 -0.0519
 2679TIP3    H129528   4.549   5.459  15.900 -0.4581 -2.0196  0.9649
 2679TIP3    H229529   4.453   5.494  15.788  1.7293  0.7993 -0.0904
 2680TIP3   OH229530   4.323   2.280   4.826 -0.3337  0.3140 -0.4206
 2680TIP3    H129531   4.293   2.266   4.736  0.2497  0.1209 -0.5847
 2680TIP3    H229532   4.332   2.375   4.833 -2.1276  0.4827  0.0050
 2681TIP3   OH229533   3.636   4.276   5.059  0.2852 -0.1190 -0.1543
 2681TIP3    H129534   3.661   4.205   5.118 -0.5255 -0.9132 -0.7625
 2681TIP3    H229535   3.648   4.240   4.971 -2.5951 -0.4003 -0.4672
 2682TIP3   OH229536   5.848   1.054  12.560  0.4660  0.2675  0.2278
 2682TIP3    H129537   5.789   0.987  12.528  1.6076 -0.3740 -0.5531
 2682TIP3    H229538   5.867   1.109  12.484  0.1261  1.0369  0.6891
 2683TIP3   OH229539   3.598   6.556  11.846  0.0514  0.1420 -0.3498
 2683TIP3    H129540   3.646   6.586  11.769  0.1278 -1.6642 -1.0422
 2683TIP3    H229541   3.544   6.630  11.872  0.1182  0.8171 -2.0807
 2684TIP3   OH229542   6.181   3.304  16.218 -0.0603  0.8216 -0.9719
 2684TIP3    H129543   6.131   3.235  16.261  0.3244 -0.2473 -2.2316
 2684TIP3    H229544   6.255   3.259  16.178  0.4630  2.0321 -1.3893
 2685TIP3   OH229545   5.358   0.170  11.927 -0.1921  0.3076 -0.0283
 2685TIP3    H129546   5.299   0.140  11.995 -1.3770  0.1026 -1.1304
 2685TIP3    H229547   5.412   0.094  11.906 -0.2602  0.1876  0.2358
 2686TIP3   OH229548   6.523   6.632  16.314  0.1203 -0.1065  0.4081
 2686TIP3    H129549   6.548   6.707  16.259  1.3587 -0.8449 -0.0526
 2686TIP3    H229550   6.463   6.669  16.378 -0.4451  0.9989 -0.7261
 2687TIP3   OH229551   1.369   0.530   1.382 -0.2135  0.2261  0.0148
 2687TIP3    H129552   1.457   0.506   1.354 -0.4871  0.8097 -1.3840
 2687TIP3    H229553   1.318   0.450   1.374 -0.5397  0.6310 -2.2276
 2688TIP3   OH229554   4.258   1.286  11.689 -0.1834  0.4538 -0.6856
 2688TIP3    H129555   4.318   1.360  11.703 -0.2030  0.4070 -0.3311
 2688TIP3    H229556   4.246   1.250  11.777 -0.1644  0.0218 -0.8620
 2689TIP3   OH229557   6.103   4.971  11.958  0.1332 -0.4297 -0.3945
 2689TIP3    H129558   6.174   4.993  12.020 -0.2837 -0.5740  0.1349
 2689TIP3    H229559   6.138   4.996  11.873 -0.2147  2.0687  0.1588
 2690TIP3   OH229560   6.651   5.083   2.773 -0.0460 -0.1784 -0.2170
 2690TIP3    H129561   6.624   5.026   2.701  1.9790 -0.3891 -0.8508
 2690TIP3    H229562   6.714   5.143   2.733  0.7758 -0.0305  1.2742
 2691TIP3   OH229563   5.007   0.885  11.416  0.5419  0.3832  0.7569
 2691TIP3    H129564   5.070   0.928  11.473  1.4402 -0.5007  0.4399
 2691TIP3    H229565   5.058   0.855  11.341  0.1010 -2.0211  1.3888
 2692TIP3   OH229566   5.515   1.249  17.045  0.4738  0.0305  0.2970
 2692TIP3    H129567   5.578   1.321  17.042  0.5582  0.0085  1.6299
 2692TIP3    H229568   5.544   1.190  16.975  0.9929  0.7874 -0.1388
 2693TIP3   OH229569   1.647   4.123   3.406  0.5133 -0.0318 -0.2575
 2693TIP3    H129570   1.731   4.077   3.413  0.1068 -0.7672 -0.2066
 2693TIP3    H229571   1.582   4.059   3.434 -0.2029  0.1154 -1.5261
 2694TIP3   OH229572   6.601   0.622  16.605  0.2061 -0.3346 -0.2158
 2694TIP3    H129573   6.568   0.609  16.694  0.2754 -0.3509 -0.1929
 2694TIP3    H229574   6.646   0.540  16.584 -1.4475 -1.0859 -0.9794
 2695TIP3   OH229575   5.497   5.832   2.068  0.1320 -0.0121 -0.5087
 2695TIP3    H129576   5.412   5.795   2.092  0.4425  0.3827  1.2479
 2695TIP3    H229577   5.537   5.857   2.151  3.3380 -3.0975 -0.9620
 2696TIP3   OH229578   1.053   6.448   3.822 -0.6030 -0.1711 -0.1690
 2696TIP3    H129579   1.107   6.420   3.896  0.0605 -0.2087 -0.6637
 2696TIP3    H229580   0.980   6.495   3.862 -0.5379 -0.6686  0.5412
 2697TIP3   OH229581   2.002   1.775   0.395  0.2104 -0.3162  0.5242
 2697TIP3    H129582   1.946   1.741   0.325  1.1199 -0.6322 -0.0620
 2697TIP3    H229583   2.021   1.699   0.450  0.8710 -0.4135  0.1634
 2698TIP3   OH229584   6.031   4.258  11.884  0.1378 -0.5944 -0.1224
 2698TIP3    H129585   6.029   4.223  11.973  2.2741 -1.6896 -0.4677
 2698TIP3    H229586   5.942   4.247  11.852 -0.8063  0.3469  2.0602
 2699TIP3   OH229587   1.756   6.794  16.459  0.0033  0.4717 -0.3095
 2699TIP3    H129588   1.735   6.791  16.365 -0.7506 -0.8622 -0.1117
 2699TIP3    H229589   1.818   6.722  16.472  0.2021  0.7335  0.2028
 2700TIP3   OH229590   1.707   1.965  11.367 -0.8039 -0.7966  0.3500
 2700TIP3    H129591   1.617   1.992  11.389  0.2438  1.8521  1.5993
 2700TIP3    H229592   1.723   2.003  11.281 -1.0067 -1.6718 -0.0874
 2701TIP3   OH229593   3.945   0.345   0.974  0.2489  0.1020  0.3521
 2701TIP3    H129594   3.859   0.350   1.015  0.0777 -0.7998  0.1246
 2701TIP3    H229595   4.002   0.310   1.042  0.0270 -1.1131 -0.0715
 2702TIP3   OH229596   0.173   3.774  10.187 -0.3609  0.4970  0.2084
 2702TIP3    H129597   0.113   3.717  10.137 -0.1773  0.1907  0.3389
 2702TIP3    H229598   0.221   3.714  10.243 -0.1813  0.7876  0.3608
 2703TIP3   OH229599   5.650   0.560  13.176  0.0361 -0.3302 -0.5151
 2703TIP3    H129600   5.737   0.536  13.147  1.2643  2.8221  0.3096
 2703TIP3    H229601   5.598   0.480  13.166  3.2702 -2.6020  0.1181
 2704TIP3   OH229602   3.437   3.088  12.816 -0.1018 -0.5867  0.0794
 2704TIP3    H129603   3.475   3.014  12.864  0.0893 -0.2570  0.4351
 2704TIP3    H229604   3.385   3.047  12.746  1.1672 -1.0436 -0.6130
 2705TIP3   OH229605   0.819   5.880  11.044  0.2299  0.1838  0.9262
 2705TIP3    H129606   0.898   5.837  11.013 -1.3215 -1.1962 -1.3265
 2705TIP3    H229607   0.801   5.948  10.978 -0.6325  0.2347  1.2016
 2706TIP3   OH229608   2.175   4.986   1.833 -0.4513 -0.4429  0.2969
 2706TIP3    H129609   2.143   5.074   1.849 -0.3826 -0.3428 -0.1076
 2706TIP3    H229610   2.220   4.992   1.749  0.9359 -0.5076  1.0300
 2707TIP3   OH229611   6.210   2.571   3.184 -0.0830 -0.1438  0.0272
 2707TIP3    H129612   6.135   2.626   3.203  0.7342  1.2429 -0.7063
 2707TIP3    H229613   6.242   2.602   3.099  1.5364 -0.4764  0.5024
 2708TIP3   OH229614   5.868   5.697  13.074 -0.1947  0.3487 -0.3771
 2708TIP3    H129615   5.809   5.710  13.148 -0.1769 -0.1731 -0.2715
 2708TIP3    H229616   5.813   5.710  12.997 -0.4986 -0.3459 -0.2808
 2709TIP3   OH229617   3.946   1.548   4.913 -0.1132 -0.0723 -0.5757
 2709TIP3    H129618   4.021   1.524   4.859  0.3978 -1.9753  0.9465
 2709TIP3    H229619   3.979   1.618   4.970  1.0191 -2.0138  1.2189
 2710TIP3   OH229620   1.507   1.295   1.094 -0.4387  0.1848  0.1891
 2710TIP3    H129621   1.532   1.205   1.073  0.9263  0.7263 -0.5338
 2710TIP3    H229622   1.489   1.335   1.009  1.2416  1.2507  0.3142
 2711TIP3   OH229623   0.719   0.423   4.112  0.1873 -0.2385  0.3315
 2711TIP3    H129624   0.670   0.502   4.137  1.6252  0.1519  2.0686
 2711TIP3    H229625   0.779   0.453   4.044 -1.4040 -0.5365 -1.2158
 2712TIP3   OH229626   4.628   5.234  10.963 -0.1518 -0.1544 -0.2706
 2712TIP3    H129627   4.712   5.269  10.932  0.8364 -0.0287  2.4544
 2712TIP3    H229628   4.633   5.140  10.943  1.3283 -0.4293  1.3367
 2713TIP3   OH229629   0.206   1.969   5.392 -0.2127  0.2994  0.0532
 2713TIP3    H129630   0.209   1.985   5.298 -0.4110 -1.1691 -0.2289
 2713TIP3    H229631   0.118   1.936   5.408 -0.2942  0.8719  0.8168
 2714TIP3   OH229632   2.121   2.403  12.445 -0.0180 -0.0812  0.3801
 2714TIP3    H129633   2.192   2.460  12.473  0.2429  0.3371 -1.0951
 2714TIP3    H229634   2.111   2.421  12.351  0.7367 -3.1875 -0.3414
 2715TIP3   OH229635   3.531   2.762  13.258  0.4387 -0.1976 -0.0995
 2715TIP3    H129636   3.549   2.671  13.282  0.6890 -0.5714 -1.6426
 2715TIP3    H229637   3.616   2.805  13.261  0.4639 -0.2358 -0.2475
 2716TIP3   OH229638   3.409   3.783   1.120 -0.5110  0.1442  0.1341
 2716TIP3    H129639   3.405   3.874   1.091  0.6017 -0.2755 -1.3979
 2716TIP3    H229640   3.488   3.777   1.173 -0.4704  0.0441  0.0646
 2717TIP3   OH229641   2.560   2.621   5.318  0.0237 -0.1184 -0.0627
 2717TIP3    H129642   2.495   2.628   5.248 -2.3374 -0.3560  2.0447
 2717TIP3    H229643   2.584   2.712   5.337 -1.7889  0.1544  1.0284
 2718TIP3   OH229644   6.069   1.687  10.724  0.2265  0.0355  0.2084
 2718TIP3    H129645   6.157   1.707  10.757  0.1956  1.0292 -0.2914
 2718TIP3    H229646   6.058   1.746  10.649 -0.0760 -1.4829 -0.9813
 2719TIP3   OH229647   5.531   2.689   3.185  0.1985 -0.1342 -0.1372
 2719TIP3    H129648   5.529   2.610   3.240 -0.0558 -0.4712 -0.6192
 2719TIP3    H229649   5.608   2.737   3.215  1.9453 -1.9021 -1.6324
 2720TIP3   OH229650   3.431   5.083   0.322 -0.3175  0.0389 -0.2021
 2720TIP3    H129651   3.409   5.078   0.229 -1.0179 -0.2463 -0.0240
 2720TIP3    H229652   3.527   5.086   0.324 -0.3337  1.3487 -0.9852
 2721TIP3   OH229653   1.382   6.719  12.388  0.1847 -0.3164  0.4338
 2721TIP3    H129654   1.320   6.690  12.455 -1.4023  0.0484 -0.8450
 2721TIP3    H229655   1.366   6.661  12.313  0.0877  0.9711 -0.5679
 2722TIP3   OH229656   0.031   5.643  16.786 -0.0172  0.1746 -0.0554
 2722TIP3    H129657   0.016   5.675  16.697 -0.1397 -1.1788 -0.5393
 2722TIP3    H229658   0.119   5.674  16.808 -0.2515  1.0866 -0.3965
 2723TIP3   OH229659   6.566   5.012  16.464 -0.5322 -0.0926  0.2963
 2723TIP3    H129660   6.542   5.035  16.554  1.1122  0.6878  0.5521
 2723TIP3    H229661   6.550   5.093  16.414  0.3949  0.0762  0.2570
 2724TIP3   OH229662   2.108   1.654  16.518  0.5779 -0.2346  0.1031
 2724TIP3    H129663   2.102   1.558  16.524 -0.5114 -0.2596 -1.1752
 2724TIP3    H229664   2.095   1.672  16.425  2.3139  1.0551  0.0927
 2725TIP3   OH229665   0.639   1.976   3.463 -0.0386  0.0177 -0.3784
 2725TIP3    H129666   0.666   2.053   3.513 -0.4096  0.1369 -0.3535
 2725TIP3    H229667   0.606   2.012   3.380 -5.3724  0.4067  1.7272
 2726TIP3   OH229668   3.391   6.064   3.968 -0.2716  0.1353 -0.1862
 2726TIP3    H129669   3.425   6.007   4.037  0.1567  0.3812 -0.1928
 2726TIP3    H229670   3.361   6.004   3.900  0.1012 -0.0849 -0.1560
 2727TIP3   OH229671   3.479   2.179   5.090  0.1030 -0.1958  0.0424
 2727TIP3    H129672   3.434   2.242   5.146  0.3980  1.4962 -1.5731
 2727TIP3    H229673   3.414   2.155   5.025  1.1166  1.3488 -1.5869
 2728TIP3   OH229674   2.491   3.723  14.255 -0.7963 -0.1877 -0.0704
 2728TIP3    H129675   2.575   3.680  14.271  0.5236  0.3285 -4.9230
 2728TIP3    H229676   2.442   3.662  14.201 -2.3601  0.8267  0.1652
 2729TIP3   OH229677   4.811   0.482  12.667  0.5973  0.0095 -0.1246
 2729TIP3    H129678   4.838   0.425  12.594  2.2656 -0.3930  0.7977
 2729TIP3    H229679   4.877   0.468  12.734  0.8136  2.7708  0.2758
 2730TIP3   OH229680   5.976   4.728  12.121  0.0120  0.1381 -0.2570
 2730TIP3    H129681   6.020   4.764  12.044  0.1639  1.6527  0.5092
 2730TIP3    H229682   5.920   4.658  12.087  1.2504 -0.2540 -1.5343
 2731TIP3   OH229683   4.875   0.116  15.456 -0.0003 -0.2529 -0.7416
 2731TIP3    H129684   4.953   0.080  15.413  0.4037 -0.7479  0.3927
 2731TIP3    H229685   4.907   0.152  15.538 -0.7726  0.6948 -0.8516
 2732TIP3   OH229686   2.079   2.744  14.537  0.6813  0.1340 -0.4383
 2732TIP3    H129687   2.070   2.694  14.455  0.0256 -1.3730  0.5241
 2732TIP3    H229688   2.058   2.834  14.513 -3.9071 -0.9708 -1.0837
 2733TIP3   OH229689   0.233   6.221  11.082  0.1675 -0.1931 -0.6862
 2733TIP3    H129690   0.208   6.132  11.060  2.0036 -0.6245 -1.1197
 2733TIP3    H229691   0.200   6.234  11.171 -0.6845 -1.0672 -0.8648
 2734TIP3   OH229692   6.499   0.193  11.857 -0.1297 -0.0996 -0.4398
 2734TIP3    H129693   6.448   0.112  11.857  0.2330 -0.3427 -1.8198
 2734TIP3    H229694   6.442   0.257  11.812  1.0056 -0.5437 -2.5808
 2735TIP3   OH229695   1.569   4.797   2.127  0.0341  0.4885  0.7170
 2735TIP3    H129696   1.545   4.888   2.144 -0.0336  0.9214 -1.5225
 2735TIP3    H229697   1.498   4.745   2.167 -0.3887  1.4530  1.2240
 2736TIP3   OH229698   3.296   4.517  15.352 -0.0916 -0.4570  0.0027
 2736TIP3    H129699   3.303   4.486  15.443 -1.6322 -0.6639  0.0758
 2736TIP3    H229700   3.383   4.550  15.331  0.1349  0.1556  1.7631
 2737TIP3   OH229701   4.650   4.353   4.081  0.0392  0.0097 -0.0163
 2737TIP3    H129702   4.594   4.336   4.156 -0.0407 -0.8898 -0.2657
 2737TIP3    H229703   4.632   4.280   4.021  0.4569  0.4559 -0.6904
 2738TIP3   OH229704   0.661   4.956  13.318  0.8717  0.0396  0.3429
 2738TIP3    H129705   0.654   4.985  13.227 -0.1124 -1.0604  0.0511
 2738TIP3    H229706   0.586   4.998  13.361  0.0741 -1.1598  0.1555
 2739TIP3   OH229707   1.352   2.182  10.257  0.1699 -0.0724 -0.8233
 2739TIP3    H129708   1.261   2.155  10.268 -0.2666  1.3346 -0.8583
 2739TIP3    H229709   1.397   2.146  10.334 -0.7849  0.7874  0.1558
 2740TIP3   OH229710   1.475   5.331   2.951 -0.5771  0.1524  0.7127
 2740TIP3    H129711   1.464   5.426   2.958 -0.2464  0.1305  1.4909
 2740TIP3    H229712   1.428   5.295   3.025 -3.0818 -0.4667 -1.1234
 2741TIP3   OH229713   6.108   4.429   1.580 -0.0005  0.5360 -0.7387
 2741TIP3    H129714   6.186   4.422   1.525  0.2403 -2.7354 -0.0519
 2741TIP3    H229715   6.042   4.377   1.535 -0.6736  0.2228  0.5998
 2742TIP3   OH229716   0.408   3.520   0.424  0.3206  0.1155  0.0927
 2742TIP3    H129717   0.503   3.515   0.410 -0.1199 -0.3642 -3.0754
 2742TIP3    H229718   0.386   3.612   0.405 -0.0803 -0.2086 -1.0877
 2743TIP3   OH229719   4.933   3.523   2.961 -0.2505  0.2017  0.3121
 2743TIP3    H129720   5.004   3.580   2.991  0.6522 -0.0279 -1.3261
 2743TIP3    H229721   4.892   3.572   2.890 -1.2410 -0.0119  0.7281
 2744TIP3   OH229722   5.298   1.965  11.856  0.2089  0.5647 -0.8648
 2744TIP3    H129723   5.279   2.046  11.903  1.6811 -1.3286  3.2501
 2744TIP3    H229724   5.392   1.968  11.838  0.7919 -1.2200  1.5504
 2745TIP3   OH229725   0.822   0.599  11.029 -0.1607 -0.7157  0.1919
 2745TIP3    H129726   0.822   0.543  10.952 -0.6651 -0.3587 -0.0684
 2745TIP3    H229727   0.915   0.609  11.051 -0.0956 -2.4059  0.8038
 2746TIP3   OH229728   1.193   2.948   5.883 -0.4535 -0.1792 -0.2754
 2746TIP3    H129729   1.187   2.864   5.838 -1.4829  0.1160 -0.7047
 2746TIP3    H229730   1.117   2.948   5.942  0.6094 -0.3608  1.1059
 2747TIP3   OH229731   3.711   6.001  14.324 -0.0573 -0.0939  0.0288
 2747TIP3    H129732   3.800   5.985  14.355 -0.1182  0.5254  0.5263
 2747TIP3    H229733   3.722   6.026  14.232  0.3134  0.2848  0.1702
 2748TIP3   OH229734   1.907   3.556   2.600 -0.0673 -0.3821 -0.3693
 2748TIP3    H129735   1.870   3.642   2.581 -0.6977 -0.8878 -1.4721
 2748TIP3    H229736   1.882   3.539   2.691 -0.8035  0.1639 -0.4651
 2749TIP3   OH229737   3.256   3.018   1.029 -0.2911  0.1746  0.1171
 2749TIP3    H129738   3.333   3.074   1.018 -0.5033  0.2302 -1.1121
 2749TIP3    H229739   3.241   2.980   0.943  0.3152 -2.4337  1.1213
 2750TIP3   OH229740   4.648   4.366   6.307  0.1130 -1.0161  0.0355
 2750TIP3    H129741   4.591   4.380   6.382 -1.4043 -2.2596 -0.8474
 2750TIP3    H229742   4.736   4.386   6.339 -0.6159 -0.6825  1.8806
 2751TIP3   OH229743   2.070   2.423   5.719  0.9349  0.1765 -0.6244
 2751TIP3    H129744   2.008   2.494   5.698 -1.5549 -0.9677  2.4833
 2751TIP3    H229745   2.027   2.344   5.687  0.5116 -0.6771  1.9508
 2752TIP3   OH229746   0.420   1.126   5.057 -0.4573 -0.2092  0.9251
 2752TIP3    H129747   0.349   1.134   4.994 -1.0235 -1.4798  1.3756
 2752TIP3    H229748   0.406   1.197   5.119 -0.4987  0.4157  0.2088
 2753TIP3   OH229749   4.721   4.869  14.721  0.4302 -0.4523  0.3305
 2753TIP3    H129750   4.727   4.948  14.667 -1.1254 -1.2352 -1.0247
 2753TIP3    H229751   4.703   4.902  14.809 -1.9620  0.6865 -0.5323
 2754TIP3   OH229752   2.901   2.308   1.899  0.0942  0.0651  0.2334
 2754TIP3    H129753   2.933   2.322   1.989  0.5730 -0.3369  0.1237
 2754TIP3    H229754   2.977   2.326   1.844 -0.1431  0.0895 -0.0840
 2755TIP3   OH229755   6.418   1.235   5.583 -0.2094 -0.6809 -0.4815
 2755TIP3    H129756   6.458   1.249   5.497 -0.0331  0.1132 -0.2735
 2755TIP3    H229757   6.492   1.226   5.643 -0.3203 -2.3501 -0.5810
 2756TIP3   OH229758   2.962   3.211   2.407 -0.4582  0.1690 -0.3095
 2756TIP3    H129759   2.948   3.168   2.491  1.2073  0.1939 -0.0107
 2756TIP3    H229760   2.919   3.296   2.416 -1.6427 -0.4372 -0.0515
 2757TIP3   OH229761   4.087   0.104  16.076  0.0684  0.0205 -0.2375
 2757TIP3    H129762   4.094   0.121  16.171 -0.9311  0.6073 -0.2598
 2757TIP3    H229763   4.021   0.167  16.046 -1.3330 -1.7576 -0.9251
 2758TIP3   OH229764   6.721   0.987   0.459 -0.3533  0.1472  0.4175
 2758TIP3    H129765   6.684   1.074   0.475  0.2296  0.6776 -1.0368
 2758TIP3    H229766   6.800   1.004   0.407 -1.0332 -1.3431 -1.1551
 2759TIP3   OH229767   0.872   2.899   5.174 -0.4117  0.4916  0.3480
 2759TIP3    H129768   0.798   2.840   5.186 -0.0999  0.1044  0.3851
 2759TIP3    H229769   0.861   2.966   5.240 -1.4420  1.1585 -0.4866
 2760TIP3   OH229770   3.345   2.627   1.513 -0.3630 -0.0482  0.4192
 2760TIP3    H129771   3.369   2.534   1.517  0.4240  0.0975 -0.8625
 2760TIP3    H229772   3.278   2.632   1.445 -0.5835  0.2900  0.6595
 2761TIP3   OH229773   1.178   3.249   3.679  0.3672  0.0967 -0.3783
 2761TIP3    H129774   1.241   3.205   3.622  0.1741 -2.0706  1.0437
 2761TIP3    H229775   1.093   3.233   3.638  0.5348  1.5389 -1.3454
 2762TIP3   OH229776   6.636   4.474   1.788 -0.9566 -0.8841 -0.1347
 2762TIP3    H129777   6.681   4.393   1.763  0.0018 -1.0372  1.9654
 2762TIP3    H229778   6.700   4.543   1.771 -0.3316 -0.9812  1.7250
 2763TIP3   OH229779   4.190   3.980   5.092 -0.0767 -0.8976 -0.5947
 2763TIP3    H129780   4.269   4.015   5.052  0.7651 -0.6853  1.1904
 2763TIP3    H229781   4.165   3.907   5.036 -0.4673  1.0029 -3.0003
 2764TIP3   OH229782   2.022   6.465  16.913 -0.2931  0.3281  0.3026
 2764TIP3    H129783   2.053   6.383  16.952 -3.1102 -1.2941 -0.7414
 2764TIP3    H229784   2.070   6.472  16.831 -1.0481 -1.0356 -0.2714
 2765TIP3   OH229785   3.996   3.309   3.272 -0.9009 -0.4031  0.5622
 2765TIP3    H129786   3.974   3.279   3.360 -0.8561  0.1993  0.7743
 2765TIP3    H229787   4.031   3.231   3.229 -0.5677 -0.6039  1.1901
 2766TIP3   OH229788   4.481   3.603   5.938 -0.1198  0.5030 -0.3211
 2766TIP3    H129789   4.476   3.533   6.003 -1.7435 -1.1832 -2.1786
 2766TIP3    H229790   4.455   3.682   5.986 -0.0799 -0.4785  1.3688
 2767TIP3   OH229791   5.659   3.474   0.715 -0.2856 -0.2413  0.3292
 2767TIP3    H129792   5.682   3.564   0.738 -1.1399  0.2111 -0.5403
 2767TIP3    H229793   5.573   3.460   0.755 -1.3761  0.2559 -1.7800
 2768TIP3   OH229794   5.046   4.141  14.479  0.0278 -0.1648  0.1218
 2768TIP3    H129795   5.072   4.055  14.512 -1.6622 -1.0027 -0.6683
 2768TIP3    H229796   5.028   4.126  14.386  0.3293  1.1842 -0.1671
 2769TIP3   OH229797   3.952   6.768  11.439 -0.2760  0.5918 -0.4138
 2769TIP3    H129798   3.918   6.837  11.496 -1.9540  0.3504 -1.1037
 2769TIP3    H229799   3.875   6.718  11.414  0.7901 -0.8644 -0.8232
 2770TIP3   OH229800   5.182   0.248  12.689 -0.2811  0.6412  0.3131
 2770TIP3    H129801   5.157   0.166  12.646  0.6104 -0.3441  1.6541
 2770TIP3    H229802   5.267   0.269  12.651  1.3852 -1.2080  2.8534
 2771TIP3   OH229803   1.362   5.994  11.781  0.3483 -0.4205 -0.3697
 2771TIP3    H129804   1.335   6.086  11.785  0.2941 -0.4015 -1.0565
 2771TIP3    H229805   1.296   5.947  11.832  0.7113 -0.0042  0.4812
 2772TIP3   OH229806   2.813   2.959  16.767  0.3601  0.2885  0.2797
 2772TIP3    H129807   2.790   2.932  16.679 -1.4652  1.7501  0.2818
 2772TIP3    H229808   2.732   2.953  16.817  0.9712  1.1794  1.4290
 2773TIP3   OH229809   0.365   4.052  10.670 -0.4661  0.0343 -0.5023
 2773TIP3    H129810   0.361   4.015  10.582  0.5123 -0.7721 -0.2089
 2773TIP3    H229811   0.364   3.976  10.728 -0.7889  0.5532  0.1865
 2774TIP3   OH229812   3.119   5.125  15.024 -0.1409  0.1959  0.7372
 2774TIP3    H129813   3.195   5.102  14.971 -0.4961  1.3696 -0.2879
 2774TIP3    H229814   3.059   5.051  15.012  0.4456 -0.2990  0.8140
 2775TIP3   OH229815   0.282   6.320  15.124  0.4636 -0.5556 -0.3109
 2775TIP3    H129816   0.201   6.359  15.157  1.2651  2.8010 -2.0600
 2775TIP3    H229817   0.343   6.324  15.197  0.7419  2.2286 -0.6566
 2776TIP3   OH229818   3.637   4.318   3.386  0.0493  0.1969  0.7033
 2776TIP3    H129819   3.692   4.391   3.356 -0.2005  0.5533  1.1039
 2776TIP3    H229820   3.578   4.357   3.450 -0.5946 -0.2088  0.3650
 2777TIP3   OH229821   2.643   2.812   2.545  0.4029  0.1386 -0.1085
 2777TIP3    H129822   2.647   2.721   2.516  0.8589  0.1715 -0.1610
 2777TIP3    H229823   2.649   2.863   2.464 -1.5594  0.2075 -0.2318
 2778TIP3   OH229824   3.666   6.015   6.475 -0.5653  0.0340  0.0989
 2778TIP3    H129825   3.610   5.952   6.431  0.9431 -1.5615  0.3969
 2778TIP3    H229826   3.748   5.967   6.492  1.4765  2.7344 -1.7108
 2779TIP3   OH229827   3.153   3.537   2.628 -0.1777 -0.1304 -0.3029
 2779TIP3    H129828   3.072   3.587   2.635 -0.5243 -0.3260 -2.6070
 2779TIP3    H229829   3.216   3.597   2.588 -0.1279 -0.9854 -1.5457
 2780TIP3   OH229830   1.341   0.032  13.108  0.5051  0.0038  0.3714
 2780TIP3    H129831   1.274  -0.016  13.058  2.4883 -1.7760 -0.6767
 2780TIP3    H229832   1.370   0.101  13.049 -0.2671  0.6687  0.7618
 2781TIP3   OH229833   3.901   0.208   3.761  0.0378 -0.0146 -0.0233
 2781TIP3    H129834   3.826   0.261   3.788 -0.9611 -0.1024 -2.5237
 2781TIP3    H229835   3.913   0.145   3.833 -0.2728  2.0032  1.8667
 2782TIP3   OH229836   6.708   3.577   1.959 -0.5343 -0.4595 -0.0046
 2782TIP3    H129837   6.802   3.580   1.943 -0.6621  0.2129 -0.6073
 2782TIP3    H229838   6.701   3.545   2.049  0.2863  0.4479  0.3846
 2783TIP3   OH229839   0.595   4.680  12.141  0.2264  0.3588  0.5069
 2783TIP3    H129840   0.611   4.753  12.081 -1.0811 -0.3930 -0.7894
 2783TIP3    H229841   0.634   4.707  12.223 -0.4732  2.6341  0.1031
 2784TIP3   OH229842   1.604   2.481   0.243 -0.3352 -0.0447 -0.6588
 2784TIP3    H129843   1.537   2.545   0.265 -1.0283 -0.9131 -0.2125
 2784TIP3    H229844   1.643   2.457   0.328 -0.9497 -1.1537 -0.6813
 2785TIP3   OH229845   1.090   6.458  12.906 -0.3818  0.1234  0.3044
 2785TIP3    H129846   1.006   6.465  12.861 -0.0395  0.9151 -0.2214
 2785TIP3    H229847   1.137   6.389  12.859 -0.5608  0.0027  0.3038
 2786TIP3   OH229848   6.169   2.031  17.150  0.8087 -0.0177 -0.1307
 2786TIP3    H129849   6.156   1.938  17.132 -0.7328  0.1609 -0.0028
 2786TIP3    H229850   6.158   2.039  17.245 -0.5267  0.5025 -0.3125
 2787TIP3   OH229851   4.194   0.364   1.736 -0.1428  0.7066  0.2044
 2787TIP3    H129852   4.276   0.356   1.785 -0.0509  0.3829 -0.0012
 2787TIP3    H229853   4.142   0.289   1.763  0.9923 -1.0515 -2.2287
 2788TIP3   OH229854   0.431   4.496   5.143 -0.2422 -0.0998  0.2161
 2788TIP3    H129855   0.404   4.577   5.100  0.3338 -0.0185 -0.0015
 2788TIP3    H229856   0.353   4.465   5.188 -0.3143  0.8785  0.7681
 2789TIP3   OH229857   3.852   4.008  12.486 -0.6522  0.0417 -0.5257
 2789TIP3    H129858   3.881   3.923  12.452 -0.6764 -1.1992  2.3508
 2789TIP3    H229859   3.758   4.011  12.468 -0.8356 -0.9923  0.2311
 2790TIP3   OH229860   2.698   5.281  15.737  0.6208 -0.2359  0.4236
 2790TIP3    H129861   2.791   5.275  15.760  0.9270  2.1176 -0.1661
 2790TIP3    H229862   2.690   5.363  15.688 -1.6251 -0.8202 -0.2427
 2791TIP3   OH229863   3.855   3.749  13.881  0.2116 -0.3793  0.5338
 2791TIP3    H129864   3.856   3.762  13.976  0.1692 -0.6614  0.5716
 2791TIP3    H229865   3.768   3.775  13.853 -0.1960 -1.5019  0.7371
 2792TIP3   OH229866   4.287   2.242   2.547 -0.1450  0.8630 -0.1830
 2792TIP3    H129867   4.312   2.156   2.581  0.7850  0.8608 -0.8804
 2792TIP3    H229868   4.194   2.250   2.571  0.0838  0.2046  0.9862
 2793TIP3   OH229869   2.365   2.241   2.923  0.2798 -0.8920 -0.6670
 2793TIP3    H129870   2.437   2.184   2.893 -0.2104 -1.9581  0.1418
 2793TIP3    H229871   2.394   2.273   3.009 -0.1934 -1.3164 -0.3429
 2794TIP3   OH229872   1.908   1.372  14.651  0.6230  0.2162 -0.0427
 2794TIP3    H129873   1.888   1.464  14.667 -0.1647 -0.1772  1.3234
 2794TIP3    H229874   1.823   1.329  14.649  0.9273 -0.3359 -1.6742
 2795TIP3   OH229875   5.014   2.346  11.879  0.6398  0.6130  0.0590
 2795TIP3    H129876   4.935   2.359  11.932 -0.7117  1.9375 -2.2316
 2795TIP3    H229877   5.013   2.253  11.858 -1.1064  0.8545 -1.0926
 2796TIP3   OH229878   5.678   2.439   1.523  0.1778 -0.5074  0.5542
 2796TIP3    H129879   5.606   2.377   1.517 -1.3778  1.2038  0.9409
 2796TIP3    H229880   5.718   2.438   1.436 -0.4111 -1.3432  0.2864
 2797TIP3   OH229881   0.454   0.690  12.854 -0.4951 -0.3564 -0.2944
 2797TIP3    H129882   0.528   0.656  12.905 -0.0954 -0.4296 -0.9202
 2797TIP3    H229883   0.379   0.684  12.913 -0.0817 -0.6857  0.1970
 2798TIP3   OH229884   4.801   5.616  15.533  0.3542 -0.5502 -0.4372
 2798TIP3    H129885   4.781   5.531  15.495 -0.2088 -0.8264  0.4673
 2798TIP3    H229886   4.719   5.645  15.572  0.7856 -0.0178  0.0852
 2799TIP3   OH229887   0.785   4.543   4.707 -0.1407  0.5343 -0.4361
 2799TIP3    H129888   0.812   4.575   4.621 -0.8865  0.8565 -0.5490
 2799TIP3    H229889   0.692   4.524   4.698 -0.1241  0.1579  0.1787
 2800TIP3   OH229890   1.047   5.307   2.008  0.0626 -0.1465 -0.4142
 2800TIP3    H129891   1.016   5.386   2.051  0.6599 -0.4873  0.6905
 2800TIP3    H229892   1.070   5.248   2.080  0.8107 -0.8526 -1.2101
 2801TIP3   OH229893   1.722   6.185   4.512 -0.3082  0.0960 -0.1375
 2801TIP3    H129894   1.657   6.170   4.581  0.6145 -1.1078  0.4879
 2801TIP3    H229895   1.671   6.185   4.431 -1.1129 -0.7825  0.3509
 2802TIP3   OH229896   2.108   0.956  17.159  0.2037  0.1127 -0.2303
 2802TIP3    H129897   2.197   0.992  17.156 -0.1095  0.8773 -0.7597
 2802TIP3    H229898   2.052   1.033  17.169 -0.2896 -0.5404  2.2503
 2803TIP3   OH229899   4.107   6.277  14.735  0.3408 -0.1885 -0.1572
 2803TIP3    H129900   4.035   6.309  14.791  1.3432  0.9717  0.4924
 2803TIP3    H229901   4.119   6.186  14.762  0.0190  0.0095  0.6799
 2804TIP3   OH229902   2.575   0.695  13.869  0.6574  0.1318  0.4071
 2804TIP3    H129903   2.646   0.640  13.902  0.6304 -0.5477 -0.6332
 2804TIP3    H229904   2.556   0.660  13.782  0.4232  1.5923 -0.1468
 2805TIP3   OH229905   6.339   4.960   5.100 -0.7524 -0.3083 -0.5686
 2805TIP3    H129906   6.311   5.014   5.174 -1.4271 -0.0158 -1.0344
 2805TIP3    H229907   6.258   4.936   5.055 -0.3799 -0.8503 -0.9649
 2806TIP3   OH229908   5.906   0.102   2.088 -0.1165  0.4462  0.3571
 2806TIP3    H129909   5.932   0.107   1.996  1.4608  1.5512  0.8420
 2806TIP3    H229910   5.877   0.011   2.100  0.9909 -0.0857 -0.8796
 2807TIP3   OH229911   5.273   4.964  11.004  0.0309  0.4246 -0.5724
 2807TIP3    H129912   5.279   4.874  10.970  1.3704 -0.0514  0.8786
 2807TIP3    H229913   5.344   5.011  10.960  1.9167 -0.2504  1.6837
 2808TIP3   OH229914   2.541   0.464  15.863  0.8170 -0.4105  0.0594
 2808TIP3    H129915   2.480   0.392  15.846  0.1094  0.2725 -0.3443
 2808TIP3    H229916   2.558   0.501  15.776  1.4445 -0.3176  0.2254
 2809TIP3   OH229917   2.570   4.139   0.960 -0.8907 -0.2956 -0.1229
 2809TIP3    H129918   2.593   4.211   1.019 -0.2968 -1.1039  0.6435
 2809TIP3    H229919   2.476   4.125   0.975 -0.8040 -0.3087  0.4221
 2810TIP3   OH229920   3.722   5.337  17.271 -0.4959 -0.3462  0.4192
 2810TIP3    H129921   3.702   5.427  17.296  1.0239  0.4938 -1.2867
 2810TIP3    H229922   3.637   5.297  17.254 -1.1698  0.8451  0.9504
 2811TIP3   OH229923   0.825   1.778  15.689  0.2225 -0.7526  0.0730
 2811TIP3    H129924   0.788   1.700  15.730 -0.9945 -0.6533 -0.8193
 2811TIP3    H229925   0.818   1.846  15.756 -1.6721 -0.6101 -0.2407
 2812TIP3   OH229926   0.914   1.522   4.685  0.7117 -0.7748  0.0253
 2812TIP3    H129927   0.917   1.448   4.745 -4.2743 -1.9899 -1.0485
 2812TIP3    H229928   0.889   1.596   4.740 -1.2153 -1.3423 -0.0708
 2813TIP3   OH229929   5.448   2.097   1.131  0.2797  0.4099 -0.0300
 2813TIP3    H129930   5.354   2.099   1.148 -0.0782 -0.5138 -1.8324
 2813TIP3    H229931   5.479   2.020   1.177 -0.0196  0.1324 -0.2918
 2814TIP3   OH229932   3.047   2.764  14.588  0.1292  0.3967  0.3562
 2814TIP3    H129933   3.131   2.799  14.618 -0.0171  0.2627  0.9060
 2814TIP3    H229934   3.056   2.669  14.597 -0.1563  0.3943  0.6000
 2815TIP3   OH229935   0.391   3.878   2.609  0.2395  0.9468 -0.2850
 2815TIP3    H129936   0.307   3.837   2.588  0.5203  0.4518 -0.4479
 2815TIP3    H229937   0.399   3.951   2.549 -0.1078  1.0360 -0.2221
 2816TIP3   OH229938   2.735   4.603   0.908 -0.0386  0.7363  0.1175
 2816TIP3    H129939   2.653   4.626   0.865 -0.4081  0.8616  0.8766
 2816TIP3    H229940   2.781   4.549   0.844 -0.4839  1.0990 -0.5132
 2817TIP3   OH229941   3.882   1.099  15.603 -0.1806 -0.2470  0.1381
 2817TIP3    H129942   3.865   1.020  15.655  0.5609  0.3490  1.3202
 2817TIP3    H229943   3.844   1.170  15.654 -0.1780  0.2512 -0.5493
 2818TIP3   OH229944   5.879   0.483  11.671 -0.0655 -0.2067  0.0253
 2818TIP3    H129945   5.916   0.521  11.591 -0.2261 -0.6937 -0.2809
 2818TIP3    H229946   5.944   0.418  11.699 -1.2529 -1.9819 -1.2154
 2819TIP3   OH229947   3.067   3.008   3.199 -0.0243 -0.3517  0.0318
 2819TIP3    H129948   3.042   3.007   3.291 -0.9375 -0.4732 -0.2157
 2819TIP3    H229949   3.130   2.936   3.191  1.1361  0.5365  0.8433
 2820TIP3   OH229950   3.041   5.568  14.950  0.2276  0.5206 -0.1373
 2820TIP3    H129951   2.989   5.488  14.957  1.1694 -0.0661  0.3736
 2820TIP3    H229952   3.085   5.560  14.865  0.9998  0.0539  0.2904
 2821TIP3   OH229953   1.820   3.602   5.785  0.4148  0.3345  0.2109
 2821TIP3    H129954   1.833   3.596   5.880  0.8384  1.6652  0.2596
 2821TIP3    H229955   1.812   3.512   5.755  3.2810 -0.2616  1.1103
 2822TIP3   OH229956   1.074   5.219  13.364 -0.2334 -0.0729  0.0719
 2822TIP3    H129957   0.995   5.226  13.310 -0.1327 -1.4200 -0.2689
 2822TIP3    H229958   1.065   5.135  13.407  0.6270  0.1477  0.6783
 2823TIP3   OH229959   5.972   5.265   6.537 -0.3167 -0.9174 -0.3016
 2823TIP3    H129960   6.004   5.206   6.606 -0.8310  0.8883  1.5049
 2823TIP3    H229961   6.052   5.291   6.490  0.1245 -1.5663  0.0769
 2824TIP3   OH229962   2.184   0.908   5.685  0.5315 -0.4538  0.2975
 2824TIP3    H129963   2.277   0.925   5.700  0.2411  0.6241  0.9343
 2824TIP3    H229964   2.139   0.961   5.750 -0.5520 -0.6143 -0.3052
 2825TIP3   OH229965   0.136   5.965  15.002 -0.3145 -0.3139 -0.1449
 2825TIP3    H129966   0.148   5.987  15.095  1.0847 -1.8929  0.0702
 2825TIP3    H229967   0.153   6.048  14.957  2.0873 -0.2005  0.8426
 2826TIP3   OH229968   0.719   6.808   0.552 -0.1728  0.6281  0.0128
 2826TIP3    H129969   0.736   6.901   0.534  0.5135 -0.0016 -2.8968
 2826TIP3    H229970   0.767   6.761   0.483  0.3649 -1.9486  2.0840
 2827TIP3   OH229971   3.677   2.696  12.027  0.0526  0.3246  0.1883
 2827TIP3    H129972   3.738   2.770  12.028 -0.5532  0.8521 -0.6613
 2827TIP3    H229973   3.613   2.720  11.960 -0.4251 -0.7541  0.2605
 2828TIP3   OH229974   5.720   3.308  16.156  0.0548  0.2330 -0.1024
 2828TIP3    H129975   5.771   3.381  16.190  0.1715 -0.0691  0.3818
 2828TIP3    H229976   5.696   3.334  16.068 -0.8186  1.3163  0.4445
 2829TIP3   OH229977   6.191   1.292   2.134  0.2489  0.1716 -0.5076
 2829TIP3    H129978   6.181   1.387   2.146  1.3875  0.0336  1.9579
 2829TIP3    H229979   6.105   1.262   2.106 -0.1307  1.9236 -1.2716
 2830TIP3   OH229980   0.872   6.015  15.061  0.3382 -0.4522 -0.2300
 2830TIP3    H129981   0.797   6.035  15.004  2.2922 -0.1282 -2.7574
 2830TIP3    H229982   0.923   6.096  15.063  0.1880 -0.3706  2.2365
 2831TIP3   OH229983   5.263   2.480   0.033 -0.2136 -0.0106  0.5302
 2831TIP3    H129984   5.256   2.572   0.006 -0.1911 -0.0734  0.3107
 2831TIP3    H229985   5.177   2.460   0.069  0.5965  0.8924  3.0845
 2832TIP3   OH229986   4.844   0.187   3.054  0.5505 -0.4406  0.4525
 2832TIP3    H129987   4.931   0.164   3.086  0.6688 -0.1149  0.3732
 2832TIP3    H229988   4.798   0.103   3.048  1.0912 -0.7039 -0.1811
 2833TIP3   OH229989   6.129   1.683   0.539  0.1739 -0.2548 -0.0797
 2833TIP3    H129990   6.122   1.696   0.633 -0.0476 -1.8564  0.1348
 2833TIP3    H229991   6.059   1.621   0.517  1.2125 -1.1242 -1.0279
 2834TIP3   OH229992   2.739   4.544   5.472 -0.6360 -0.0747  0.1407
 2834TIP3    H129993   2.705   4.547   5.383 -0.1461 -0.6516 -0.0687
 2834TIP3    H229994   2.720   4.631   5.508 -2.8734 -0.5668  0.2378
 2835TIP3   OH229995   4.823   0.938   4.793 -0.2845  0.5997 -0.3541
 2835TIP3    H129996   4.821   0.899   4.880 -2.4856 -0.0311 -0.6594
 2835TIP3    H229997   4.868   1.022   4.806  0.6909 -0.1223  1.0966
 2836TIP3   OH229998   5.779   2.184   0.533  0.0257 -0.4987 -0.0234
 2836TIP3    H129999   5.795   2.134   0.613 -1.8048 -0.5837  0.3198
 2836TIP3    H230000   5.717   2.251   0.559  0.3519  0.2387 -1.1109
 2837TIP3   OH230001   0.970   3.214  12.500 -0.1028 -0.6483  0.1214
 2837TIP3    H130002   0.894   3.270  12.484 -1.4633 -2.4773 -0.0986
 2837TIP3    H230003   0.957   3.140  12.440  2.2209 -0.6706 -0.4033
 2838TIP3   OH230004   3.570   2.985   5.985 -0.1344 -0.6091 -0.1245
 2838TIP3    H130005   3.641   3.008   6.044 -0.0611  0.9437 -0.7950
 2838TIP3    H230006   3.507   3.056   5.995 -1.1962 -1.5204 -0.1972
 2839TIP3   OH230007   0.854   1.298  11.522 -0.0351  0.2859  0.2252
 2839TIP3    H130008   0.911   1.245  11.466 -0.6259 -1.5064  1.2696
 2839TIP3    H230009   0.766   1.274  11.496 -0.3184 -0.5041  1.8291
 2840TIP3   OH230010   2.199   1.722   4.804 -0.3941  0.2438  0.6023
 2840TIP3    H130011   2.220   1.724   4.897  0.5148 -0.7341  0.4336
 2840TIP3    H230012   2.241   1.801   4.769  0.5344 -0.1637  0.7779
 2841TIP3   OH230013   5.634   0.260   0.352 -0.8522 -0.4724 -0.0514
 2841TIP3    H130014   5.728   0.246   0.365 -0.8687  0.4988  1.2031
 2841TIP3    H230015   5.628   0.315   0.275 -0.3080  0.5583  0.6289
 2842TIP3   OH230016   6.111   1.629  14.288  0.6078 -0.3147 -0.1882
 2842TIP3    H130017   6.185   1.643  14.230  0.7484  1.2456  0.3570
 2842TIP3    H230018   6.148   1.632  14.376 -0.3537  2.1987  0.1546
 2843TIP3   OH230019   6.654   5.253  15.809  0.0977  0.0337 -0.1882
 2843TIP3    H130020   6.633   5.281  15.719  1.3177 -0.5305 -0.6646
 2843TIP3    H230021   6.728   5.194  15.798  0.7054  0.5105  1.2725
 2844TIP3   OH230022   2.640   2.162   3.272 -0.0987  0.3663  0.0030
 2844TIP3    H130023   2.642   2.236   3.332  0.1975 -0.7790  1.4268
 2844TIP3    H230024   2.550   2.131   3.275  0.5199 -1.3392  1.9330
 2845TIP3   OH230025   0.469   4.725   5.955  0.4679 -0.2307 -0.1438
 2845TIP3    H130026   0.468   4.747   6.048  2.1260 -1.3116  0.1504
 2845TIP3    H230027   0.377   4.715   5.932  0.0951 -1.6545  1.8046
 2846TIP3   OH230028   0.933   6.570   2.907 -0.0455 -0.2365  0.4387
 2846TIP3    H130029   0.840   6.593   2.919 -1.0253 -3.1244 -1.1444
 2846TIP3    H230030   0.962   6.624   2.834 -0.7736 -0.0293  0.2976
 2847TIP3   OH230031   5.396   4.810  14.287 -0.2429  0.1938  0.0202
 2847TIP3    H130032   5.364   4.816  14.377 -0.6610 -0.0006 -0.1162
 2847TIP3    H230033   5.319   4.790  14.235  0.2934 -1.4450 -0.1610
 2848TIP3   OH230034   1.103   6.343   4.276  0.0952 -0.1535 -0.0802
 2848TIP3    H130035   1.040   6.361   4.346  1.5204 -1.6836  1.6543
 2848TIP3    H230036   1.076   6.260   4.239  1.6532 -1.3474  1.3788
 2849TIP3   OH230037   0.721   6.227   5.242  0.7632  0.4793  0.8363
 2849TIP3    H130038   0.747   6.194   5.328 -0.4192 -0.5947  0.8037
 2849TIP3    H230039   0.700   6.148   5.192 -1.2433  1.2264  0.4492
 2850TIP3   OH230040   5.665   5.302  12.592 -0.9050  0.3451 -0.1731
 2850TIP3    H130041   5.602   5.337  12.529 -1.0858 -1.9408 -1.3093
 2850TIP3    H230042   5.616   5.298  12.674 -1.3317  1.3373 -0.3749
 2851TIP3   OH230043   1.944   4.246  17.270  0.1056  0.1789  0.0805
 2851TIP3    H130044   2.025   4.214  17.312  1.4622 -0.8963 -3.1774
 2851TIP3    H230045   1.874   4.214  17.327  1.8520 -1.4324  1.4181
 2852TIP3   OH230046   3.008   2.328  16.220 -0.0405  0.2652 -0.5579
 2852TIP3    H130047   2.938   2.349  16.281  1.3940  0.3984  1.0955
 2852TIP3    H230048   3.028   2.411  16.177  1.1600  0.9313  1.2079
 2853TIP3   OH230049   6.576   1.902   2.002 -0.0490 -0.1284  0.2434
 2853TIP3    H130050   6.565   1.976   1.943 -2.3675 -0.3837  0.3102
 2853TIP3    H230051   6.533   1.929   2.083 -0.7234 -1.4464  0.3449
 2854TIP3   OH230052   4.596   2.701   4.019  0.0604 -0.2990  0.3923
 2854TIP3    H130053   4.547   2.701   4.101 -1.7922  0.9652 -0.6922
 2854TIP3    H230054   4.535   2.665   3.955  1.2104 -0.4754 -0.6192
 2855TIP3   OH230055   3.690   6.095  12.312  0.1924  0.2679 -0.6118
 2855TIP3    H130056   3.763   6.093  12.251  0.6162 -0.4087 -0.0869
 2855TIP3    H230057   3.701   6.017  12.366 -0.8835  0.1855 -0.4951
 2856TIP3   OH230058   0.771   2.328  15.065 -0.1589  0.3578  0.1106
 2856TIP3    H130059   0.727   2.410  15.088  0.5053  0.7699 -0.0777
 2856TIP3    H230060   0.748   2.268  15.136 -0.6372  0.7095  0.2557
 2857TIP3   OH230061   1.606   2.133  14.791  0.1811 -0.0489 -0.2742
 2857TIP3    H130062   1.667   2.121  14.863 -0.6264  0.0407  0.4351
 2857TIP3    H230063   1.532   2.180  14.829  0.3118  1.1343 -1.4560
 2858TIP3   OH230064   1.305   5.773   1.426 -0.3274  0.1176 -0.4108
 2858TIP3    H130065   1.241   5.724   1.478  1.2158 -1.8138 -0.2455
 2858TIP3    H230066   1.382   5.716   1.424  1.6685  2.7130  0.0539
 2859TIP3   OH230067   3.615   6.731   0.436 -0.3993  0.5344 -0.0407
 2859TIP3    H130068   3.652   6.753   0.522 -0.0945 -1.3846  0.3451
 2859TIP3    H230069   3.540   6.675   0.456  1.1339 -1.9968 -1.0514
 2860TIP3   OH230070   4.945   3.934  15.617 -0.2194  0.0854 -0.0670
 2860TIP3    H130071   4.881   3.946  15.688 -0.5427 -1.5535 -0.0676
 2860TIP3    H230072   4.920   3.852  15.575  1.6509 -0.3850 -0.3151
 2861TIP3   OH230073   5.724   6.805   4.417 -0.0011 -0.3993 -0.2972
 2861TIP3    H130074   5.785   6.845   4.480  0.9526 -0.1379 -1.3836
 2861TIP3    H230075   5.658   6.873   4.402  0.1924 -0.1819 -0.1628
 2862TIP3   OH230076   4.779   3.942  11.662  0.2706 -0.7309 -0.2321
 2862TIP3    H130077   4.840   3.877  11.627  0.6804 -0.2022 -0.5101
 2862TIP3    H230078   4.765   3.916  11.753  1.4586 -0.4572  0.0402
 2863TIP3   OH230079   0.466   5.143   0.452  0.3251 -0.3681 -0.0691
 2863TIP3    H130080   0.388   5.176   0.408 -0.0943 -0.8608  0.2978
 2863TIP3    H230081   0.435   5.065   0.500  0.7594  0.1718  1.1069
 2864TIP3   OH230082   0.351   4.293  14.473  0.0750 -0.5977 -0.2449
 2864TIP3    H130083   0.351   4.378  14.518  0.1923 -0.5773 -0.2826
 2864TIP3    H230084   0.404   4.308  14.395  1.0041 -1.0003  0.2949
 2865TIP3   OH230085   1.635   6.519  12.565  0.1004 -0.7771  0.8876
 2865TIP3    H130086   1.626   6.442  12.621 -1.5893 -0.9000  0.4989
 2865TIP3    H230087   1.554   6.520  12.514  0.1866  1.1571  0.7554
 2866TIP3   OH230088   6.124   5.457   0.375 -0.3302  0.4523  0.3509
 2866TIP3    H130089   6.108   5.363   0.377  0.8611  0.2641  1.2309
 2866TIP3    H230090   6.040   5.495   0.347 -1.0933 -0.7926  0.9151
 2867TIP3   OH230091   4.585   5.452   2.019 -0.2604 -0.7128  0.1767
 2867TIP3    H130092   4.502   5.487   1.986  0.4929 -1.9914 -3.3898
 2867TIP3    H230093   4.652   5.509   1.981  0.6209 -1.7710  0.1188
 2868TIP3   OH230094   6.015   4.228  13.275  0.3046 -0.3976  0.5549
 2868TIP3    H130095   6.044   4.302  13.223  0.4017 -0.4149  0.5859
 2868TIP3    H230096   6.094   4.197  13.320  0.2927 -0.6059  0.4352
 2869TIP3   OH230097   0.410   5.422  16.885  0.5567  0.3900 -0.5512
 2869TIP3    H130098   0.414   5.326  16.882  0.2086  0.3883 -1.0151
 2869TIP3    H230099   0.356   5.446  16.809  1.3142  0.9957 -0.8999
 2870TIP3   OH230100   3.851   1.271  14.615  0.4301  0.4481 -0.0279
 2870TIP3    H130101   3.784   1.335  14.634  1.7190  1.6939  0.4206
 2870TIP3    H230102   3.809   1.186  14.632 -1.0531  1.1936  0.0772
 2871TIP3   OH230103   5.399   3.990  12.881  0.6715  0.5037  0.3215
 2871TIP3    H130104   5.380   4.011  12.972 -0.4692 -1.6530  0.6051
 2871TIP3    H230105   5.487   3.951  12.883  0.0827 -0.8249  0.7047
 2872TIP3   OH230106   2.098   3.899   3.193  0.0706  0.0553  0.0614
 2872TIP3    H130107   2.158   3.838   3.150 -1.5134 -0.5837 -1.3086
 2872TIP3    H230108   2.111   3.982   3.147  1.6724  0.5867  1.4191
 2873TIP3   OH230109   6.783   1.073  14.836 -0.5321 -0.6883 -0.0293
 2873TIP3    H130110   6.710   1.086  14.776  0.6441  0.7151 -1.1843
 2873TIP3    H230111   6.846   1.020  14.786 -0.3716 -1.1551  0.6538
 2874TIP3   OH230112   5.617   2.111   5.003  0.5220 -0.2251  0.6947
 2874TIP3    H130113   5.568   2.088   4.924  0.9383  0.3028  0.2759
 2874TIP3    H230114   5.562   2.081   5.075 -0.6804  0.8456  0.2489
 2875TIP3   OH230115   0.083   3.347   1.828  0.0769  0.1713 -0.3085
 2875TIP3    H130116   0.088   3.405   1.904 -0.9212  0.3767 -0.3862
 2875TIP3    H230117   0.142   3.275   1.849  1.0937  1.0516 -0.0728
 2876TIP3   OH230118   4.433   2.155  17.072 -0.6594 -0.1134 -0.2040
 2876TIP3    H130119   4.355   2.207  17.091 -0.8705 -0.3801 -0.3264
 2876TIP3    H230120   4.491   2.214  17.024 -0.1854  0.5140  1.1158
 2877TIP3   OH230121   2.025   3.735   5.075 -0.1832 -0.3728  0.5000
 2877TIP3    H130122   1.991   3.767   4.992  2.8042  1.3704 -0.1506
 2877TIP3    H230123   1.954   3.750   5.138 -2.6081 -2.0734 -1.7476
 2878TIP3   OH230124   0.078   3.236  16.896  0.1250 -0.2204  0.1352
 2878TIP3    H130125   0.010   3.301  16.914  0.4953 -0.0577  0.9581
 2878TIP3    H230126   0.031   3.157  16.872 -0.4196 -0.7789  2.9102
 2879TIP3   OH230127   5.464   5.108   2.730 -0.2247 -0.0252 -0.3092
 2879TIP3    H130128   5.389   5.062   2.691 -0.3294  0.4773 -0.7063
 2879TIP3    H230129   5.429   5.148   2.809 -0.1655 -0.5180 -0.0308
 2880TIP3   OH230130   3.878   5.189  16.021  0.8237  0.4629  0.3881
 2880TIP3    H130131   3.786   5.215  16.011  0.7383 -0.4990 -1.4317
 2880TIP3    H230132   3.920   5.215  15.939  2.0274  0.1802  0.9012
 2881TIP3   OH230133   2.061   1.302   6.386 -0.1336 -0.1187 -0.2132
 2881TIP3    H130134   1.998   1.233   6.409 -2.1934  1.0110 -2.2427
 2881TIP3    H230135   2.024   1.382   6.423  0.1408  0.5391 -1.3281
 2882TIP3   OH230136   3.657   5.029   1.808 -0.0444  0.5721  0.7126
 2882TIP3    H130137   3.720   5.033   1.880 -0.7292  0.6963  1.3140
 2882TIP3    H230138   3.579   4.988   1.847  0.0262 -0.5656 -0.2928
 2883TIP3   OH230139   2.480   6.304  16.469  0.2453 -0.0365  0.2473
 2883TIP3    H130140   2.404   6.265  16.513  0.4310 -0.6972 -0.0139
 2883TIP3    H230141   2.540   6.230  16.455  1.5155  0.7251  1.6637
 2884TIP3   OH230142   2.457   2.101   3.960 -0.2427  0.1499  0.2488
 2884TIP3    H130143   2.401   2.179   3.956 -0.7988 -0.2526  0.1165
 2884TIP3    H230144   2.512   2.114   4.037 -1.2358  0.0740  0.9797
 2885TIP3   OH230145   2.897   2.593  15.916 -0.6152 -0.8034  0.3390
 2885TIP3    H130146   2.963   2.662  15.923 -0.4888 -0.8743 -0.1449
 2885TIP3    H230147   2.849   2.598  15.998 -0.5651 -0.1757  0.3348
 2886TIP3   OH230148   4.073   1.530  13.921 -0.2354  0.6761 -0.0762
 2886TIP3    H130149   4.135   1.477  13.872 -0.6747  0.7235 -0.6782
 2886TIP3    H230150   3.989   1.515  13.879 -0.6537  0.5346  0.7995
 2887TIP3   OH230151   0.348   4.893  11.951 -0.0355  0.0825  0.0172
 2887TIP3    H130152   0.408   4.965  11.969 -0.0973  0.1109  0.1077
 2887TIP3    H230153   0.373   4.825  12.015  1.1756 -0.6415 -1.2005
 2888TIP3   OH230154   5.013   4.075   0.960 -0.2943  0.9261  0.0967
 2888TIP3    H130155   4.943   4.021   0.921  0.7551 -1.0675  0.9374
 2888TIP3    H230156   5.094   4.037   0.927  0.5096  1.2255  1.6862
 2889TIP3   OH230157   0.454   2.300  11.669 -0.5594 -0.0057 -0.0634
 2889TIP3    H130158   0.400   2.255  11.604  1.2655  0.0773 -1.6510
 2889TIP3    H230159   0.537   2.252  11.670 -0.8227 -0.5388  2.8360
 2890TIP3   OH230160   4.878   0.063   2.443  0.2841 -0.2493 -0.2707
 2890TIP3    H130161   4.788   0.070   2.413 -0.0589  0.5176  0.9147
 2890TIP3    H230162   4.920   0.144   2.414  0.3216 -0.1409  0.0821
 2891TIP3   OH230163   0.003   0.718   1.902 -0.1025  0.4596 -0.1566
 2891TIP3    H130164  -0.058   0.648   1.880  0.2239 -0.1075  0.7420
 2891TIP3    H230165  -0.052   0.796   1.908 -0.4676  0.2830 -1.1348
 2892TIP3   OH230166   1.659   0.519   1.511  0.4322 -0.5154 -0.1260
 2892TIP3    H130167   1.653   0.438   1.461  1.7137 -0.2401 -0.7520
 2892TIP3    H230168   1.615   0.499   1.594 -3.2313 -0.4350 -1.9562
 2893TIP3   OH230169   5.302   3.110  13.482  0.1840  0.2686 -0.0883
 2893TIP3    H130170   5.280   3.030  13.529  2.4024 -0.6344 -0.5733
 2893TIP3    H230171   5.364   3.156  13.539  0.0849  0.9176 -0.4920
 2894TIP3   OH230172   4.067   2.234   5.762  0.1651 -0.2182 -0.0979
 2894TIP3    H130173   4.074   2.185   5.844 -1.4132 -0.8020 -0.2973
 2894TIP3    H230174   4.055   2.325   5.790  2.8866  0.0517  0.2721
 2895TIP3   OH230175   2.776   4.509   0.648  0.7278 -0.2632 -0.7143
 2895TIP3    H130176   2.866   4.542   0.649  0.9619 -0.9251 -0.0261
 2895TIP3    H230177   2.785   4.414   0.647  0.0348 -0.3303 -0.8114
 2896TIP3   OH230178   0.124   1.749   4.798  0.3086 -0.4275  0.2610
 2896TIP3    H130179   0.050   1.716   4.748  1.1665  0.7492 -1.8240
 2896TIP3    H230180   0.157   1.672   4.846 -0.6684 -1.5139 -0.7833
 2897TIP3   OH230181   5.783   0.618   6.154 -0.0526 -0.1314 -0.3266
 2897TIP3    H130182   5.718   0.555   6.183  0.4110 -0.1047  0.8108
 2897TIP3    H230183   5.773   0.692   6.214  0.9805 -0.1048 -0.1704
 2898TIP3   OH230184   2.997   0.664  13.315  0.1372 -0.0122  0.5596
 2898TIP3    H130185   3.093   0.656  13.318  0.0998 -0.0583  1.8451
 2898TIP3    H230186   2.967   0.580  13.281  0.5030 -0.3516  1.0756
 2899TIP3   OH230187   5.747   4.620  13.853  0.4247 -0.4452 -0.5419
 2899TIP3    H130188   5.803   4.625  13.930 -1.2785 -3.0157  0.9227
 2899TIP3    H230189   5.729   4.712  13.830  3.0447  0.3798  0.5014
 2900TIP3   OH230190   4.261   5.131   4.203 -0.1366 -0.6465 -0.0778
 2900TIP3    H130191   4.180   5.083   4.187  0.5371 -2.0962  0.8218
 2900TIP3    H230192   4.326   5.064   4.221  1.8491  0.3441 -3.1328
 2901TIP3   OH230193   0.947   3.444   0.360 -0.4678 -0.7413  0.0504
 2901TIP3    H130194   0.939   3.457   0.455  1.1740 -1.5473  0.3140
 2901TIP3    H230195   1.035   3.476   0.339 -1.7545  1.8298 -1.6409
 2902TIP3   OH230196   1.337   2.343  16.350  0.1492  0.4513  0.2628
 2902TIP3    H130197   1.399   2.355  16.421  0.3546  0.6654  0.0482
 2902TIP3    H230198   1.252   2.333  16.393  0.2766  0.5679  0.5363
 2903TIP3   OH230199   0.442   0.546  12.609  0.1147  0.1031  0.5835
 2903TIP3    H130200   0.484   0.612  12.664 -1.6376  0.1934  1.8624
 2903TIP3    H230201   0.463   0.463  12.650  0.8934 -0.0222 -0.0539
 2904TIP3   OH230202   3.836   4.445   4.512 -0.5919  0.0475 -0.1367
 2904TIP3    H130203   3.800   4.433   4.425 -2.3996  1.0401  0.4329
 2904TIP3    H230204   3.793   4.379   4.566  1.6887 -1.6036 -0.2811
 2905TIP3   OH230205   3.973   1.843   6.278 -0.0022  0.0861  0.0996
 2905TIP3    H130206   4.052   1.897   6.278  0.8382 -1.1109  1.0135
 2905TIP3    H230207   4.002   1.758   6.311 -1.7249 -0.2852  0.7250
 2906TIP3   OH230208   1.240   1.678  14.038 -0.1645 -0.0501  0.4689
 2906TIP3    H130209   1.159   1.698  13.992  0.2749  1.0036  0.1347
 2906TIP3    H230210   1.290   1.626  13.975 -0.2739 -0.0631  0.3905
 2907TIP3   OH230211   6.095   3.871  13.077  0.1331 -0.1191 -0.1145
 2907TIP3    H130212   6.131   3.835  12.996  0.1912 -2.5170  0.9188
 2907TIP3    H230213   6.171   3.908  13.122 -0.0526  2.0732 -1.5529
 2908TIP3   OH230214   6.333   4.927  16.890  0.0881  0.1142 -0.5566
 2908TIP3    H130215   6.259   4.905  16.947 -0.1372 -0.7674 -1.1755
 2908TIP3    H230216   6.406   4.940  16.949  0.2945 -2.5702 -0.1342
 2909TIP3   OH230217   3.676   3.709   5.491  0.4431 -0.0157 -0.4478
 2909TIP3    H130218   3.648   3.626   5.529 -0.3948 -0.1275 -1.2925
 2909TIP3    H230219   3.643   3.707   5.401  3.1191 -0.1358 -1.4940
 2910TIP3   OH230220   5.980   4.485   4.274  0.2845 -0.0406  0.0762
 2910TIP3    H130221   5.893   4.488   4.313  0.3689  1.7920  0.1876
 2910TIP3    H230222   6.036   4.531   4.337  0.9473  0.5655 -0.9380
 2911TIP3   OH230223   3.104   5.196  11.878 -0.2962 -0.6101  0.6378
 2911TIP3    H130224   3.174   5.150  11.831 -0.8954 -0.3532 -0.5341
 2911TIP3    H230225   3.057   5.128  11.926 -0.4757 -1.0680 -0.1786
 2912TIP3   OH230226   5.939   5.250   5.945 -0.2788 -0.6453  0.3161
 2912TIP3    H130227   5.855   5.284   5.975 -0.8285 -0.9493 -0.8588
 2912TIP3    H230228   5.987   5.232   6.025 -1.5458 -1.0050  1.0091
 2913TIP3   OH230229   5.619   4.549   6.282  0.5241 -0.5494 -0.0364
 2913TIP3    H130230   5.648   4.638   6.263  2.0249 -1.2149 -0.9968
 2913TIP3    H230231   5.530   4.544   6.246  0.2258  0.7004  0.4992
 2914TIP3   OH230232   0.931   0.428   1.251  0.4459 -0.3171  0.0025
 2914TIP3    H130233   0.940   0.379   1.333  0.1457  1.9355  1.4504
 2914TIP3    H230234   0.838   0.447   1.245  0.6180  0.4631 -0.2636
 2915TIP3   OH230235   5.781   5.639  13.549  0.0250 -0.4831 -0.3483
 2915TIP3    H130236   5.692   5.623  13.580 -0.3632 -2.0068 -2.1606
 2915TIP3    H230237   5.771   5.706  13.482  0.3629 -0.0662  0.0136
 2916TIP3   OH230238   3.740   6.561  10.805 -0.4222  0.8353 -0.0358
 2916TIP3    H130239   3.650   6.584  10.780 -0.2294  0.7399 -0.8304
 2916TIP3    H230240   3.774   6.640  10.847 -1.4644  0.2937  1.9199
 2917TIP3   OH230241   1.536   3.984  11.979  0.6955 -0.2856  0.0229
 2917TIP3    H130242   1.562   3.947  11.895  1.0729  0.4358 -0.1840
 2917TIP3    H230243   1.598   3.948  12.042  0.1835 -1.1236  0.0601
 2918TIP3   OH230244   4.553   5.122   0.776  0.0236 -0.4686 -0.4474
 2918TIP3    H130245   4.608   5.093   0.703 -1.4045 -1.2906 -1.2286
 2918TIP3    H230246   4.478   5.062   0.775  1.3827 -2.3581  3.5580
 2919TIP3   OH230247   1.073   5.768   3.398  0.4981  0.2802  0.1138
 2919TIP3    H130248   1.073   5.850   3.448 -0.0303 -0.1265  0.8066
 2919TIP3    H230249   1.147   5.776   3.338  0.6714  1.1121  0.4262
 2920TIP3   OH230250   0.166   6.535  11.551 -0.2605 -0.7908 -0.3361
 2920TIP3    H130251   0.257   6.562  11.556 -0.0667 -1.5630  0.4063
 2920TIP3    H230252   0.118   6.615  11.533  0.4779 -0.2396  0.1400
 2921TIP3   OH230253   4.895   6.257   0.960 -0.2040 -0.4881 -0.3317
 2921TIP3    H130254   4.840   6.282   1.035  0.1601  0.2956 -0.3195
 2921TIP3    H230255   4.859   6.306   0.886 -1.1254 -1.9546 -0.8678
 2922TIP3   OH230256   5.695   0.829   2.143  0.2737 -0.3515  0.4420
 2922TIP3    H130257   5.766   0.810   2.204  0.6813  1.3506  0.5265
 2922TIP3    H230258   5.738   0.840   2.058 -0.2174 -2.0750 -0.0492
 2923TIP3   OH230259   1.560   5.222   5.709 -0.3604 -0.0343 -0.5142
 2923TIP3    H130260   1.530   5.185   5.792 -0.7920 -0.8098 -1.0086
 2923TIP3    H230261   1.502   5.297   5.695 -1.7870 -1.2218 -1.2111
 2924TIP3   OH230262   3.514   0.301  10.679 -0.1453 -0.1152  0.2732
 2924TIP3    H130263   3.453   0.228  10.689  0.3890 -0.4762  0.9363
 2924TIP3    H230264   3.575   0.292  10.753  0.1582  0.7731  0.1376
 2925TIP3   OH230265   3.173   4.907  14.174 -0.5683  0.1444 -0.3643
 2925TIP3    H130266   3.233   4.931  14.104  0.5332  1.0465  0.8476
 2925TIP3    H230267   3.179   4.812  14.180  1.0162  0.2533 -0.0468
 2926TIP3   OH230268   4.370   5.779  15.780  0.2029  0.1657  0.4349
 2926TIP3    H130269   4.387   5.721  15.706  0.3614 -0.9259  1.3152
 2926TIP3    H230270   4.408   5.863  15.755  1.3125 -0.5290 -0.2157
 2927TIP3   OH230271   1.107   3.256   0.013  0.3071 -0.5488 -0.1242
 2927TIP3    H130272   1.160   3.244  -0.066 -1.2507 -0.4827 -1.2135
 2927TIP3    H230273   1.035   3.194   0.003  1.0292 -1.7842  2.1167
 2928TIP3   OH230274   5.531   5.628  15.242  0.0855 -0.2809  0.1593
 2928TIP3    H130275   5.588   5.556  15.214  0.5517 -0.5730  1.8548
 2928TIP3    H230276   5.529   5.622  15.337 -0.9361  1.1514  0.2404
 2929TIP3   OH230277   6.193   6.733  16.314 -0.0913 -0.1619 -0.3034
 2929TIP3    H130278   6.240   6.700  16.390  0.6102  1.4871 -0.0105
 2929TIP3    H230279   6.101   6.709  16.330  0.2711 -1.0844  0.3685
 2930TIP3   OH230280   3.945   5.280   6.727 -0.4457 -0.6086  0.3961
 2930TIP3    H130281   3.851   5.294   6.736 -0.7646 -1.6242 -1.2896
 2930TIP3    H230282   3.979   5.362   6.690 -0.6187 -0.2038  1.1045
 2931TIP3   OH230283   5.596   1.636  10.351  0.7912 -0.0356  0.0980
 2931TIP3    H130284   5.520   1.688  10.376  0.8204 -0.0155  0.1451
 2931TIP3    H230285   5.603   1.570  10.419  1.5197  0.6888  0.7346
 2932TIP3   OH230286   0.843   6.206  13.877 -0.1822  0.7027  0.5946
 2932TIP3    H130287   0.841   6.220  13.782  0.7611  1.7493  0.7193
 2932TIP3    H230288   0.919   6.149  13.891 -0.8386 -0.1690  0.6380
 2933TIP3   OH230289   0.598   1.467  14.721 -0.1714  0.7064 -0.0073
 2933TIP3    H130290   0.601   1.472  14.625 -1.1559  4.2542  0.1010
 2933TIP3    H230291   0.689   1.474  14.749  0.0129  0.8229 -0.6294
 2934TIP3   OH230292   5.171   1.913   5.736  0.2015 -0.4615 -0.2644
 2934TIP3    H130293   5.161   1.915   5.831  0.6867 -0.2538 -0.2165
 2934TIP3    H230294   5.247   1.857   5.721 -1.4362 -2.6731 -0.6530
 2935TIP3   OH230295   2.381   1.956   5.971 -0.1594 -0.5700  0.3025
 2935TIP3    H130296   2.370   1.878   5.917 -0.8047  1.2851 -2.4075
 2935TIP3    H230297   2.345   2.027   5.917  3.4012  2.1144  1.2554
 2936TIP3   OH230298   1.967   6.725  15.494 -0.0518  0.1564  0.1290
 2936TIP3    H130299   1.985   6.743  15.587 -0.5776  0.6280  0.1386
 2936TIP3    H230300   2.044   6.759  15.448 -0.4146  1.1615  0.2711
 2937TIP3   OH230301   5.775   2.796   1.643  0.2764 -0.3918 -0.3590
 2937TIP3    H130302   5.755   2.710   1.680  1.0130 -1.3611 -2.1869
 2937TIP3    H230303   5.694   2.846   1.655 -0.2017 -1.3581  0.5953
 2938TIP3   OH230304   0.514   1.003   5.889  0.9844 -0.7384 -0.1558
 2938TIP3    H130305   0.568   1.023   5.812  0.6368 -0.9671 -0.4598
 2938TIP3    H230306   0.506   1.086   5.935 -0.6525 -0.1094 -1.5305
 2939TIP3   OH230307   5.854   0.591  15.038 -0.2420  0.3049  0.2396
 2939TIP3    H130308   5.838   0.538  15.116  2.3912 -0.4595  0.3356
 2939TIP3    H230309   5.862   0.528  14.967 -1.4872  0.9122 -0.4452
 2940TIP3   OH230310   4.320   5.885   2.567 -0.0881  0.2791 -0.3662
 2940TIP3    H130311   4.272   5.820   2.515  0.4073 -1.6075  1.4769
 2940TIP3    H230312   4.412   5.870   2.545 -0.0787  1.6379 -1.3375
 2941TIP3   OH230313   6.072   6.136   5.233 -0.4168  0.3768  0.0863
 2941TIP3    H130314   6.037   6.208   5.182 -0.5283 -1.3151 -2.3149
 2941TIP3    H230315   6.023   6.059   5.205  2.0010 -1.2408  0.0471
 2942TIP3   OH230316   3.873   2.182  16.896 -0.2800 -0.1757 -0.2770
 2942TIP3    H130317   3.922   2.220  16.969 -0.7303  0.0182 -0.0756
 2942TIP3    H230318   3.834   2.257  16.852 -0.3452 -0.3244 -0.4729
 2943TIP3   OH230319   0.669   0.621   4.547 -0.3090 -0.4727 -0.2959
 2943TIP3    H130320   0.657   0.617   4.642  1.6254  1.2595  0.0721
 2943TIP3    H230321   0.718   0.542   4.526  1.7262  0.5180  0.5993
 2944TIP3   OH230322   3.784   4.652   5.489 -0.4436 -0.5229  0.4000
 2944TIP3    H130323   3.773   4.558   5.503  1.7529 -0.7060  1.0251
 2944TIP3    H230324   3.869   4.673   5.529 -2.0315  2.2060  2.5536
 2945TIP3   OH230325   0.801   4.257   2.189  0.0760  0.2843  0.6866
 2945TIP3    H130326   0.862   4.318   2.147 -0.2702  1.2443  1.5826
 2945TIP3    H230327   0.722   4.308   2.203 -1.1171 -1.0903 -0.8902
 2946TIP3   OH230328   0.680   6.164   5.986 -0.1410  0.5607  0.3416
 2946TIP3    H130329   0.651   6.073   5.977 -0.6043  0.5625  1.7554
 2946TIP3    H230330   0.614   6.205   6.041 -0.3795  1.9799 -0.9850
 2947TIP3   OH230331   0.056   1.019   4.871 -0.6086  0.8052 -0.5455
 2947TIP3    H130332  -0.024   1.070   4.883 -0.1708  1.4900 -0.5605
 2947TIP3    H230333   0.039   0.938   4.919 -1.2102  1.0546 -0.3298
 2948TIP3   OH230334   2.018   1.702  17.156 -0.2185 -0.0937 -0.2462
 2948TIP3    H130335   1.959   1.777  17.162 -0.1144 -0.1081  1.0771
 2948TIP3    H230336   2.103   1.737  17.183  0.0320 -0.4695 -0.5525
 2949TIP3   OH230337   1.562   0.401   2.286  0.0908  0.0231 -0.1018
 2949TIP3    H130338   1.630   0.365   2.230  1.1577  0.7095  0.7470
 2949TIP3    H230339   1.600   0.404   2.373 -1.1377  0.0943  0.4500
 2950TIP3   OH230340   2.912   3.588  15.037 -0.6945  0.3148 -0.4744
 2950TIP3    H130341   2.947   3.545  14.960 -1.9814 -0.5229 -0.6118
 2950TIP3    H230342   2.911   3.520  15.104 -0.2963  0.8365  0.0699
 2951TIP3   OH230343   1.756   2.943   1.877  0.2333  0.5073  0.5782
 2951TIP3    H130344   1.670   2.903   1.871 -0.1600  1.5942 -1.0972
 2951TIP3    H230345   1.762   2.974   1.968  0.2157 -2.5313  1.6721
 2952TIP3   OH230346   0.797   6.387   3.139 -0.2525  0.2369 -0.1613
 2952TIP3    H130347   0.885   6.378   3.105  0.0667 -1.6338  1.0815
 2952TIP3    H230348   0.742   6.406   3.063  0.8281 -1.1953 -1.2924
 2953TIP3   OH230349   0.423   0.015   2.491 -0.1855  0.8087  0.3131
 2953TIP3    H130350   0.368  -0.057   2.460 -2.1438  2.8928 -1.1938
 2953TIP3    H230351   0.511  -0.006   2.459 -0.9726 -0.2657 -1.2036
 2954TIP3   OH230352   2.972   1.698  15.656 -0.2057 -0.0062  0.5561
 2954TIP3    H130353   2.998   1.673  15.745  0.7134  1.2630  0.6665
 2954TIP3    H230354   2.988   1.793  15.653 -1.6160  0.2103 -0.4938
 2955TIP3   OH230355   1.067   1.317   3.236 -0.6048  0.2564 -0.1627
 2955TIP3    H130356   0.989   1.262   3.223  1.1110 -2.0266 -1.0795
 2955TIP3    H230357   1.118   1.305   3.156  1.9076 -0.3067  1.4792
 2956TIP3   OH230358   4.172   6.193   3.262 -0.1553  0.1211 -0.4490
 2956TIP3    H130359   4.213   6.192   3.348 -0.5065  1.0721 -0.2667
 2956TIP3    H230360   4.087   6.235   3.275 -0.2107  0.2804 -1.2527
 2957TIP3   OH230361   4.991   0.582  15.427 -0.1083  0.0563  0.0056
 2957TIP3    H130362   4.903   0.572  15.392 -0.0930  4.0819 -1.3867
 2957TIP3    H230363   5.021   0.492  15.443 -5.0181 -1.3692  2.0615
 2958TIP3   OH230364   3.065   0.501   5.992  0.8938  0.2042  0.0674
 2958TIP3    H130365   3.038   0.519   5.902  1.0517  0.8274  0.1390
 2958TIP3    H230366   3.060   0.586   6.036  0.3761 -0.1771  0.7672
 2959TIP3   OH230367   5.417   5.666  13.899  0.2522 -0.2309  0.1621
 2959TIP3    H130368   5.470   5.599  13.857 -1.0306 -1.3661  0.3091
 2959TIP3    H230369   5.465   5.690  13.978  1.2598 -0.1730 -0.4665
 2960TIP3   OH230370   1.442   3.710   2.330 -0.2583  0.4200  0.4249
 2960TIP3    H130371   1.450   3.623   2.371  3.3240 -0.2355 -1.4087
 2960TIP3    H230372   1.482   3.769   2.394 -0.9756  0.4474  0.8533
 2961TIP3   OH230373   3.019   0.985   0.245  0.2117 -0.8649 -0.0029
 2961TIP3    H130374   3.090   0.988   0.309  2.0165 -0.4249 -1.9514
 2961TIP3    H230375   3.054   1.034   0.170 -2.3108 -0.3238 -0.8511
 2962TIP3   OH230376   0.582   5.707  11.106  0.2307 -0.8878  0.2404
 2962TIP3    H130377   0.629   5.624  11.111  0.4004 -1.0179 -2.5562
 2962TIP3    H230378   0.647   5.774  11.127  1.0177 -1.2560 -0.9492
 2963TIP3   OH230379   0.924   3.057   1.466 -0.1999  0.1359  0.0869
 2963TIP3    H130380   0.901   2.988   1.529 -1.3533  0.9241  0.5216
 2963TIP3    H230381   0.879   3.135   1.497  0.6773  0.9765 -0.7111
 2964TIP3   OH230382   4.213   1.647  14.914  0.4015 -0.1548 -0.5210
 2964TIP3    H130383   4.255   1.562  14.901 -1.2024 -1.3144  1.6054
 2964TIP3    H230384   4.284   1.705  14.940  1.2753 -1.2423 -0.4429
 2965TIP3   OH230385   2.299   3.430   0.139  0.3205 -0.1447  0.5918
 2965TIP3    H130386   2.343   3.398   0.218  1.1599 -0.5699 -0.0424
 2965TIP3    H230387   2.267   3.352   0.095  0.6955  0.0184  0.0186
 2966TIP3   OH230388   2.243   2.203  16.670 -0.0041 -0.0069 -0.2988
 2966TIP3    H130389   2.254   2.110  16.692  2.9341  0.4015  0.1405
 2966TIP3    H230390   2.189   2.202  16.591 -1.7779 -1.9874  0.8955
 2967TIP3   OH230391   3.625   5.333  13.162  0.1832  0.0320 -0.6413
 2967TIP3    H130392   3.571   5.337  13.083  0.0151 -0.8115 -0.5726
 2967TIP3    H230393   3.566   5.306  13.231  0.9028 -2.0064 -0.7858
 2968TIP3   OH230394   2.367   3.236  12.799 -0.0864  0.4837 -0.0650
 2968TIP3    H130395   2.345   3.304  12.734 -2.1152 -0.9402 -0.9373
 2968TIP3    H230396   2.429   3.179  12.754  0.8606  1.2093  0.3215
 2969TIP3   OH230397   0.998   1.305   1.374  0.4198 -0.0971  0.3863
 2969TIP3    H130398   0.936   1.243   1.413  1.7427 -1.4337  0.4049
 2969TIP3    H230399   1.081   1.257   1.370  1.6899  1.9717  1.1934
 2970TIP3   OH230400   4.695   4.962  15.887  0.4517 -0.4325  0.2036
 2970TIP3    H130401   4.772   4.939  15.835 -0.3998 -1.0923 -0.7692
 2970TIP3    H230402   4.633   4.891  15.872 -0.1905 -0.1317  1.3438
 2971TIP3   OH230403   3.720   5.919  11.524 -0.1057  0.3361 -0.1373
 2971TIP3    H130404   3.733   5.833  11.484  1.6723 -0.1254  1.3654
 2971TIP3    H230405   3.627   5.920  11.548  0.3148 -2.0703  1.8290
 2972TIP3   OH230406   2.133   3.618  10.626 -0.4168  0.2270 -0.3828
 2972TIP3    H130407   2.136   3.658  10.539 -0.3973 -0.0271 -0.4992
 2972TIP3    H230408   2.216   3.644  10.667 -0.3015  0.1128 -0.5429
 2973TIP3   OH230409   3.823   5.464   6.029  0.3240  0.0649  0.3283
 2973TIP3    H130410   3.881   5.389   6.042  0.5708  0.4248  1.3072
 2973TIP3    H230411   3.741   5.438   6.071  0.2114  0.1075  0.1360
 2974TIP3   OH230412   2.512   6.551   0.396  0.4756 -0.0322 -0.0679
 2974TIP3    H130413   2.514   6.588   0.307  2.1826  2.8773  1.1311
 2974TIP3    H230414   2.603   6.532   0.416 -0.0883 -2.4666  0.4257
 2975TIP3   OH230415   3.280   4.976   3.687 -0.7603 -0.1038  0.0742
 2975TIP3    H130416   3.212   4.963   3.753  0.3341 -0.3322  1.1650
 2975TIP3    H230417   3.294   5.071   3.687 -1.5523  0.0213 -0.6423
 2976TIP3   OH230418   5.257   5.991  16.643 -0.0307 -0.3909  0.1377
 2976TIP3    H130419   5.189   5.983  16.576  1.0999 -1.5337 -0.9120
 2976TIP3    H230420   5.335   6.017  16.594  0.0983  1.7822  1.4392
 2977TIP3   OH230421   3.524   5.867   5.532 -0.2595 -0.0886 -0.3767
 2977TIP3    H130422   3.570   5.850   5.615  0.8074 -1.2672 -1.1929
 2977TIP3    H230423   3.498   5.959   5.538  0.6638  0.1093  0.8671
 2978TIP3   OH230424   5.213   1.036   1.260 -0.3142  0.0268  0.0877
 2978TIP3    H130425   5.189   1.010   1.348  0.1514  0.7078  0.4193
 2978TIP3    H230426   5.289   1.093   1.271 -1.3634  1.6129 -0.6040
 2979TIP3   OH230427   3.177   6.560  11.064 -0.6872  0.0501 -0.1830
 2979TIP3    H130428   3.196   6.584  10.973  0.1232  0.4413  0.0803
 2979TIP3    H230429   3.240   6.490  11.084 -1.0397 -0.2178 -0.0104
 2980TIP3   OH230430   2.391   2.274   4.522  0.1205 -0.5936 -0.5061
 2980TIP3    H130431   2.397   2.219   4.443 -1.7535 -3.5170  1.3105
 2980TIP3    H230432   2.306   2.318   4.514 -0.4951 -1.6205  0.3172
 2981TIP3   OH230433   3.151   5.168   6.111 -0.1080 -0.1554  0.0825
 2981TIP3    H130434   3.177   5.085   6.071 -1.5170 -0.1599 -0.8687
 2981TIP3    H230435   3.228   5.197   6.159  1.1236 -0.8965 -1.4318
 2982TIP3   OH230436   1.518   5.633  11.292 -0.2445  0.6658 -0.2301
 2982TIP3    H130437   1.508   5.583  11.373  0.9156 -0.1409 -0.5779
 2982TIP3    H230438   1.429   5.660  11.270 -0.6602  0.2595  0.9152
 2983TIP3   OH230439   4.457   4.314   0.746  0.5244  0.3308 -0.7419
 2983TIP3    H130440   4.437   4.224   0.773 -0.3794  1.0499  1.0204
 2983TIP3    H230441   4.514   4.347   0.815 -1.6571  2.1381  0.2499
 2984TIP3   OH230442   5.430   0.255   6.022  0.1489 -0.2075 -0.1736
 2984TIP3    H130443   5.405   0.338   5.981  0.0832  0.3222  0.9460
 2984TIP3    H230444   5.370   0.191   5.984 -0.1021  0.3263 -0.6922
 2985TIP3   OH230445   3.151   0.978   3.303  0.0264 -0.2111 -0.6480
 2985TIP3    H130446   3.214   0.917   3.340 -0.4239  0.4709  1.3511
 2985TIP3    H230447   3.199   1.059   3.292  0.0178 -0.2566 -1.0062
 2986TIP3   OH230448   6.139   4.253  13.628  0.0228  0.4094 -0.2509
 2986TIP3    H130449   6.231   4.232  13.642  0.1731  0.9410 -0.4281
 2986TIP3    H230450   6.140   4.340  13.588 -0.6256  1.0665  1.1226
 2987TIP3   OH230451   1.441   6.189  13.642  0.5114 -0.3150  0.1358
 2987TIP3    H130452   1.383   6.261  13.663  1.0798  0.8189 -1.9983
 2987TIP3    H230453   1.447   6.138  13.723 -1.3463  0.9963  1.1320
 2988TIP3   OH230454   4.991   4.285   1.470 -0.5045 -0.3325 -0.0675
 2988TIP3    H130455   5.022   4.268   1.381 -2.9393 -0.6608 -0.8806
 2988TIP3    H230456   5.046   4.357   1.501 -0.0255  0.1807 -2.0417
 2989TIP3   OH230457   6.050   2.526   4.576 -0.0116 -0.1808  0.4053
 2989TIP3    H130458   6.003   2.606   4.550 -0.8353 -1.0559 -0.8285
 2989TIP3    H230459   5.998   2.490   4.648  1.5883  1.5732  2.5062
 2990TIP3   OH230460   5.251   1.704   4.099  0.1883  0.5664 -0.2969
 2990TIP3    H130461   5.233   1.797   4.090 -1.0493  0.2636 -1.0597
 2990TIP3    H230462   5.298   1.680   4.019  0.3068  0.4766 -0.2024
 2991TIP3   OH230463   4.824   1.512  11.413 -0.6615  0.2021 -0.1693
 2991TIP3    H130464   4.843   1.604  11.394 -1.6505  0.7330  1.2719
 2991TIP3    H230465   4.893   1.463  11.369  0.5171  1.7105 -0.0265
 2992TIP3   OH230466   6.116   5.829  14.695  0.1232 -0.7211  0.0117
 2992TIP3    H130467   6.043   5.873  14.650  0.2848  1.1018  1.4733
 2992TIP3    H230468   6.076   5.752  14.736 -0.8276 -0.1673  0.1398
 2993TIP3   OH230469   6.052   5.985  11.675 -0.3811 -0.0624 -0.1614
 2993TIP3    H130470   6.066   5.936  11.756 -2.8120 -0.2062  0.2019
 2993TIP3    H230471   6.135   5.976  11.628  0.3170 -1.8431  1.3078
 2994TIP3   OH230472   4.182   0.774   1.710 -0.5666  0.0008  0.3436
 2994TIP3    H130473   4.233   0.722   1.648 -0.8917 -0.4157  0.4237
 2994TIP3    H230474   4.206   0.865   1.690  1.2929 -0.2531  1.3504
 2995TIP3   OH230475   4.835   5.911  13.099  0.1436  0.5770 -0.1731
 2995TIP3    H130476   4.893   5.904  13.023 -1.9849  1.3530 -1.8958
 2995TIP3    H230477   4.814   5.820  13.121  0.7145  0.3541 -0.5271
 2996TIP3   OH230478   0.106   1.771   1.508  0.2330  0.3262 -0.2092
 2996TIP3    H130479   0.132   1.783   1.417  1.3301  1.3949  0.2251
 2996TIP3    H230480   0.070   1.856   1.534  0.6227  0.2562  0.5752
 2997TIP3   OH230481   0.900   5.186  13.628 -0.0822 -0.0367 -0.4633
 2997TIP3    H130482   0.972   5.188  13.691 -0.1918  0.7955 -0.3574
 2997TIP3    H230483   0.926   5.119  13.565  0.2148 -0.5991  0.2476
 2998TIP3   OH230484   6.385   1.516   6.221  0.9311 -0.0773  0.3143
 2998TIP3    H130485   6.418   1.605   6.215  3.1560 -0.8654  0.3171
 2998TIP3    H230486   6.290   1.525   6.227  1.2392  2.3727  2.0072
 2999TIP3   OH230487   5.623   0.164   5.138  0.5816 -0.1313  0.1167
 2999TIP3    H130488   5.560   0.109   5.091 -0.4005  0.3012  0.8975
 2999TIP3    H230489   5.684   0.193   5.071  0.0523 -0.7161 -0.6292
 3000TIP3   OH230490   1.621   2.839   3.660 -0.1371 -0.4095 -0.0534
 3000TIP3    H130491   1.549   2.859   3.720 -0.7840  0.3395 -1.0577
 3000TIP3    H230492   1.699   2.838   3.716 -0.6586  0.7931  0.7255
 3001TIP3   OH230493   1.186   4.422  13.103 -0.1214 -0.0870  0.5951
 3001TIP3    H130494   1.230   4.498  13.142 -1.7242  0.6569  0.9940
 3001TIP3    H230495   1.177   4.360  13.175  0.8701 -0.5333  0.3500
 3002TIP3   OH230496   5.888   1.141   3.661  0.3943 -0.7061 -0.3316
 3002TIP3    H130497   5.969   1.177   3.625  0.1462  0.5331  0.3443
 3002TIP3    H230498   5.819   1.200   3.630 -0.3607 -2.1973 -1.5582
 3003TIP3   OH230499   6.442   5.455  16.768  0.6645 -0.1630  0.1777
 3003TIP3    H130500   6.415   5.367  16.740  1.5347 -0.0073 -1.2058
 3003TIP3    H230501   6.360   5.499  16.792 -0.3539  0.2451 -3.7441
 3004TIP3   OH230502   3.120   0.782  15.321  0.5900  0.1016 -0.2608
 3004TIP3    H130503   3.123   0.762  15.228  2.0321 -2.1126  0.2311
 3004TIP3    H230504   3.031   0.758  15.348  0.7591 -1.0866 -0.7091
 3005TIP3   OH230505   1.284   0.542   6.378 -0.0239 -0.0434  0.1505
 3005TIP3    H130506   1.231   0.621   6.389  0.7669  0.4713  0.2870
 3005TIP3    H230507   1.272   0.494   6.461  0.5087  0.5525  0.5778
 3006TIP3   OH230508   4.225   2.902   2.186  0.1067 -0.3386  0.1060
 3006TIP3    H130509   4.284   2.976   2.203 -0.3698 -0.1571  0.9772
 3006TIP3    H230510   4.284   2.826   2.178  0.5124 -0.0454  0.2970
 3007TIP3   OH230511   4.464   3.562  13.904  0.7750 -0.1452  0.3260
 3007TIP3    H130512   4.456   3.476  13.862  0.6805  0.2555 -0.4779
 3007TIP3    H230513   4.386   3.570  13.958 -0.0626  0.1566 -0.9239
 3008TIP3   OH230514   5.815   0.722  14.745 -0.2945  0.0649 -0.6729
 3008TIP3    H130515   5.779   0.785  14.683 -0.3580  0.1105 -0.5884
 3008TIP3    H230516   5.821   0.769  14.827 -1.6643 -0.4470 -0.2612
 3009TIP3   OH230517   0.213   3.551   1.995  0.2279 -0.2157 -0.1010
 3009TIP3    H130518   0.251   3.617   2.053  2.6005 -0.6538 -1.0999
 3009TIP3    H230519   0.221   3.589   1.908 -2.7238  0.1542 -0.2581
 3010TIP3   OH230520   3.761   6.169   4.061 -0.2368  0.1905 -0.2110
 3010TIP3    H130521   3.818   6.092   4.055 -2.9522 -2.0143  0.8850
 3010TIP3    H230522   3.767   6.196   4.152 -0.1274  0.6403 -0.3480
 3011TIP3   OH230523   1.394   4.326  16.158  0.0370  0.0930 -0.0140
 3011TIP3    H130524   1.428   4.352  16.072  0.5545 -0.8509 -0.0986
 3011TIP3    H230525   1.307   4.292  16.140  0.2902 -0.4484 -0.2120
 3012TIP3   OH230526   4.835   5.955   0.314 -0.4445 -0.3108  0.0141
 3012TIP3    H130527   4.883   5.994   0.241  1.1701  0.1924  1.3139
 3012TIP3    H230528   4.803   5.871   0.280  0.9704 -0.4479 -1.0177
 3013TIP3   OH230529   2.217   4.495   2.432  0.2997  0.4936 -0.4531
 3013TIP3    H130530   2.223   4.410   2.477  0.2542  1.1421  0.8101
 3013TIP3    H230531   2.286   4.548   2.473  0.3139  1.0735 -1.2251
 3014TIP3   OH230532   1.669   4.734  11.627  0.4329 -0.2848 -0.2682
 3014TIP3    H130533   1.681   4.828  11.612  0.5852 -0.2916 -0.1939
 3014TIP3    H230534   1.603   4.707  11.563  0.2859 -0.0995 -0.1930
 3015TIP3   OH230535   6.116   6.695   4.106 -0.1721 -0.3076  0.1090
 3015TIP3    H130536   6.105   6.653   4.191  0.7268  0.9153  0.8361
 3015TIP3    H230537   6.153   6.626   4.051  1.6143 -0.3949  1.3860
 3016TIP3   OH230538   3.268   0.720  14.455 -0.2488 -0.2028  0.1752
 3016TIP3    H130539   3.229   0.756  14.535 -0.7409 -0.1354 -0.0900
 3016TIP3    H230540   3.211   0.753  14.385  0.9334  0.7946 -0.3244
 3017TIP3   OH230541   3.910   0.393   4.953  0.1262 -0.1450 -0.5940
 3017TIP3    H130542   3.942   0.362   5.038 -2.1422 -0.7676  0.0749
 3017TIP3    H230543   3.914   0.316   4.896  0.9416  0.0829 -0.8481
 3018TIP3   OH230544   6.597   0.779   4.290  0.4445  0.2589 -0.1485
 3018TIP3    H130545   6.677   0.831   4.301  1.1216 -1.0216  1.1729
 3018TIP3    H230546   6.571   0.793   4.198  1.4673  1.6917 -0.2237
 3019TIP3   OH230547   0.155   3.521  12.642  0.0186  0.9394  0.1087
 3019TIP3    H130548   0.122   3.484  12.560 -0.3827 -0.1829  0.7712
 3019TIP3    H230549   0.126   3.612  12.641  0.2292  0.9994 -1.1116
 3020TIP3   OH230550   3.096   6.123   4.408 -0.2382  0.2618 -0.7221
 3020TIP3    H130551   3.148   6.047   4.432 -0.1321  0.8775  1.0899
 3020TIP3    H230552   3.140   6.158   4.330  1.7604  0.4446  0.4352
 3021TIP3   OH230553   2.264   4.330  15.875 -0.6041 -0.5083 -0.0504
 3021TIP3    H130554   2.289   4.241  15.898 -0.7779 -0.3032  0.9495
 3021TIP3    H230555   2.335   4.385  15.908 -0.1732 -0.3314 -1.2577
 3022TIP3   OH230556   3.967   1.901  15.094 -0.5176 -0.1435  0.3317
 3022TIP3    H130557   3.904   1.962  15.056 -1.4085 -1.8105 -0.9701
 3022TIP3    H230558   3.920   1.859  15.166 -0.5332 -0.5872  0.0667
 3023TIP3   OH230559   5.069   3.454   5.987  0.1625 -0.0529  0.1966
 3023TIP3    H130560   4.993   3.448   5.929 -0.5543  2.0345  0.9024
 3023TIP3    H230561   5.033   3.471   6.073  1.3156 -1.6868  1.0352
 3024TIP3   OH230562   5.336   1.788  14.254  0.4108 -0.3960 -0.1666
 3024TIP3    H130563   5.373   1.704  14.279 -0.8698 -0.8264  0.3031
 3024TIP3    H230564   5.329   1.784  14.159  1.1187 -0.4865 -0.2209
 3025TIP3   OH230565   1.933   2.705  12.884 -0.0420 -0.0316  0.4811
 3025TIP3    H130566   2.012   2.696  12.939  1.2180  0.8357 -1.1313
 3025TIP3    H230567   1.919   2.618  12.848 -0.5418 -0.4731  1.7124
 3026TIP3   OH230568   0.872   0.828  14.406  0.2221  0.1236 -0.5064
 3026TIP3    H130569   0.912   0.860  14.487  2.0981  0.0253 -1.3681
 3026TIP3    H230570   0.903   0.737  14.398 -0.4825 -0.0762 -0.9895
 3027TIP3   OH230571   0.105   3.946  13.924 -0.1769 -0.3279 -0.2457
 3027TIP3    H130572   0.069   4.034  13.925 -0.0069 -0.2719  1.0456
 3027TIP3    H230573   0.199   3.959  13.910 -0.0478 -0.2635  0.6554
 3028TIP3   OH230574   4.036   6.476  10.623 -0.5929  0.2228  0.6703
 3028TIP3    H130575   4.104   6.456  10.558 -0.1249 -1.4381  1.6323
 3028TIP3    H230576   4.084   6.485  10.706 -1.4554 -0.2936  1.2380
 3029TIP3   OH230577   5.135   4.877   4.005 -0.2404 -0.0551 -0.2876
 3029TIP3    H130578   5.101   4.869   3.915 -0.2934 -1.9385 -0.1221
 3029TIP3    H230579   5.058   4.862   4.060 -0.0765  0.4493  0.0755
 3030TIP3   OH230580   0.990   1.869   6.279  0.0008  0.1592 -0.3022
 3030TIP3    H130581   0.974   1.931   6.350  1.5180 -0.5273  0.6469
 3030TIP3    H230582   0.953   1.787   6.309  0.4909 -0.0940 -0.4000
 3031TIP3   OH230583   5.995   2.929   1.092  0.0409  0.5211 -0.0366
 3031TIP3    H130584   6.014   2.869   1.164  1.0747 -0.8617 -1.4299
 3031TIP3    H230585   5.900   2.927   1.084  0.0867 -1.3860 -0.4054
 3032TIP3   OH230586   3.901   0.297   3.286 -0.2807  0.0247 -0.1996
 3032TIP3    H130587   3.851   0.256   3.357 -0.6552  1.1240  0.1860
 3032TIP3    H230588   3.989   0.306   3.321  0.3147 -2.2389 -1.0079
 3033TIP3   OH230589   2.751   4.726   0.330  0.1068 -0.0370  0.9120
 3033TIP3    H130590   2.826   4.668   0.323 -0.3373 -0.3927 -1.4233
 3033TIP3    H230591   2.677   4.669   0.351  0.1446  0.0546  1.3008
 3034TIP3   OH230592   0.829   6.666   6.666 -0.3246  0.7210  0.3051
 3034TIP3    H130593   0.757   6.645   6.726  0.5561 -0.4179  0.9869
 3034TIP3    H230594   0.903   6.684   6.724  0.7330 -1.1475 -0.4464
 3035TIP3   OH230595   0.962   3.452  15.475 -0.1634 -0.0206  0.1289
 3035TIP3    H130596   0.982   3.420  15.562 -2.2504  1.1488  1.0808
 3035TIP3    H230597   0.925   3.376  15.429  0.4074 -0.4829  0.4258
 3036TIP3   OH230598   5.751   1.550   5.622 -0.2856  0.1452 -0.3413
 3036TIP3    H130599   5.668   1.544   5.670  0.8461 -0.4259  1.6093
 3036TIP3    H230600   5.766   1.461   5.590  0.6810 -0.3110  1.2886
 3037TIP3   OH230601   3.896   1.032   4.198  0.0255  0.1625  0.0451
 3037TIP3    H130602   3.898   0.959   4.136 -2.7989  0.3332 -0.2958
 3037TIP3    H230603   3.910   0.990   4.283  2.6057 -0.2303 -0.5271
 3038TIP3   OH230604   0.211   0.702  13.002  0.0086  0.5771  0.1036
 3038TIP3    H130605   0.174   0.777  12.955  0.7448  1.3296  0.7230
 3038TIP3    H230606   0.156   0.691  13.079 -0.5699 -0.0092 -0.3892
 3039TIP3   OH230607   0.906   6.185  17.282  1.0462 -0.3334  0.2717
 3039TIP3    H130608   0.934   6.185  17.190  1.3148 -0.6838  0.3518
 3039TIP3    H230609   0.812   6.201  17.278  1.1332  0.1143 -0.0395
 3040TIP3   OH230610   6.612   1.206   1.416 -0.9404  0.4467 -0.4700
 3040TIP3    H130611   6.680   1.263   1.380 -1.1235  0.4746 -0.7711
 3040TIP3    H230612   6.619   1.125   1.366 -2.0340  0.9381 -1.4474
 3041TIP3   OH230613   3.677   0.213   4.580  0.9231  0.3453 -0.2674
 3041TIP3    H130614   3.584   0.223   4.599  0.4483 -0.8242 -1.9234
 3041TIP3    H230615   3.713   0.302   4.589 -0.1736  0.6476  1.2398
 3042TIP3   OH230616   3.133   1.443   0.153  0.5859 -0.3171  0.1167
 3042TIP3    H130617   3.223   1.437   0.121  0.9245 -0.4653  1.0783
 3042TIP3    H230618   3.134   1.397   0.237 -0.7441 -1.6368 -0.5708
 3043TIP3   OH230619   3.530   4.666   1.757  0.4625 -0.5257 -0.0772
 3043TIP3    H130620   3.467   4.651   1.827  0.3439  1.7594  0.3377
 3043TIP3    H230621   3.602   4.714   1.798  1.1502 -0.5955 -1.1639
 3044TIP3   OH230622   5.413   3.890   4.567 -0.0001  0.5015 -0.5123
 3044TIP3    H130623   5.355   3.815   4.557  2.5596 -1.6113  0.0170
 3044TIP3    H230624   5.501   3.853   4.564  1.3102  3.3156  1.1281
 3045TIP3   OH230625   6.038   2.361  12.397 -0.0047 -0.1123  0.0415
 3045TIP3    H130626   6.023   2.275  12.359  3.2892 -0.8151  0.1942
 3045TIP3    H230627   6.084   2.410  12.329 -1.0900  1.2638  0.2718
 3046TIP3   OH230628   1.704   6.135  16.144  0.2500  0.2515 -0.3764
 3046TIP3    H130629   1.716   6.230  16.149  0.4280  0.5188 -4.4250
 3046TIP3    H230630   1.784   6.099  16.183  1.1254  1.7834 -0.7188
 3047TIP3   OH230631   1.461   2.082  11.395  1.0323  0.1925  0.6643
 3047TIP3    H130632   1.397   2.089  11.324 -0.0173  0.6382  1.6445
 3047TIP3    H230633   1.415   2.034  11.464  1.8941  0.1493  1.2169
 3048TIP3   OH230634   1.629   5.483  14.031 -0.4381 -0.1722  0.0968
 3048TIP3    H130635   1.636   5.578  14.042  1.1422 -0.5976  3.2078
 3048TIP3    H230636   1.704   5.460  13.976  0.4002  0.1338  1.0985
 3049TIP3   OH230637   0.155   6.041  15.272 -0.2600 -0.3508  0.0460
 3049TIP3    H130638   0.103   6.112  15.307  0.1179 -0.2692  0.4471
 3049TIP3    H230639   0.246   6.071  15.279 -0.1845 -0.2327 -1.2146
 3050TIP3   OH230640   4.806   1.775  15.492  0.4890 -0.2520 -0.3346
 3050TIP3    H130641   4.768   1.709  15.551  0.6077  1.9132  2.2512
 3050TIP3    H230642   4.762   1.761  15.409 -1.0837 -2.1451  0.7636
 3051TIP3   OH230643   5.411   1.232  11.458  0.1932  0.4962 -0.3472
 3051TIP3    H130644   5.406   1.315  11.411 -1.2328  1.1045  0.8526
 3051TIP3    H230645   5.364   1.248  11.540 -1.1124 -1.8210 -0.6046
 3052TIP3   OH230646   0.395   2.782  12.634 -0.2711 -0.1186 -0.2359
 3052TIP3    H130647   0.438   2.826  12.561 -2.3736  1.3165 -0.6825
 3052TIP3    H230648   0.353   2.705  12.595  1.0740 -0.9897  0.0227
 3053TIP3   OH230649   6.062   6.658   4.868 -0.2834 -0.3409  0.1298
 3053TIP3    H130650   5.999   6.594   4.901 -0.3811  0.3563  1.3300
 3053TIP3    H230651   6.010   6.737   4.852  0.6700  1.0584  3.5742
 3054TIP3   OH230652   3.472   6.192   1.846 -0.0779 -0.3474  0.7836
 3054TIP3    H130653   3.467   6.164   1.755 -0.4146  0.5655  0.5163
 3054TIP3    H230654   3.526   6.126   1.889 -0.7913 -1.3484  0.1505
 3055TIP3   OH230655   0.956   3.846   0.330 -0.3977 -0.0496  0.1891
 3055TIP3    H130656   1.039   3.856   0.378 -1.0246 -1.5493  1.6154
 3055TIP3    H230657   0.928   3.936   0.314 -0.1299  0.4993  2.6112
 3056TIP3   OH230658   5.850   6.716   2.815 -0.3912  0.4616 -0.2993
 3056TIP3    H130659   5.898   6.783   2.863 -0.7325  0.3432  0.2096
 3056TIP3    H230660   5.905   6.698   2.738 -0.4949  1.6048 -0.6543
 3057TIP3   OH230661   6.430   2.829   1.550  0.1705  0.0937 -0.6078
 3057TIP3    H130662   6.342   2.842   1.587 -0.0222 -1.3109 -0.5669
 3057TIP3    H230663   6.464   2.752   1.595  2.2212  1.7599  0.8125
 3058TIP3   OH230664   1.936   2.314   3.063 -0.4642 -0.2898 -0.1093
 3058TIP3    H130665   2.028   2.322   3.036 -0.5406  0.3721 -0.1703
 3058TIP3    H230666   1.924   2.381   3.129 -1.0636  0.0266 -0.5340
 3059TIP3   OH230667   2.875   5.305   5.152  0.3689 -0.0583  0.1003
 3059TIP3    H130668   2.898   5.384   5.201 -1.4681  0.4655  0.1441
 3059TIP3    H230669   2.782   5.314   5.134  0.8823 -0.4906 -3.0652
 3060TIP3   OH230670   1.518   3.695  11.620 -0.1383  0.5139  0.0802
 3060TIP3    H130671   1.426   3.724  11.619  0.6892  3.5089  2.5416
 3060TIP3    H230672   1.521   3.627  11.687 -0.9360 -1.0873 -1.4790
 3061TIP3   OH230673   3.885   1.821   3.029 -0.5445  0.1854 -0.4165
 3061TIP3    H130674   3.913   1.896   3.083 -1.9566 -0.1773  0.8666
 3061TIP3    H230675   3.912   1.844   2.940  2.1239  0.6670  0.4557
 3062TIP3   OH230676   2.260   5.104   5.740  0.2668 -0.3543 -0.0010
 3062TIP3    H130677   2.290   5.193   5.763 -0.6215 -0.5080  1.8364
 3062TIP3    H230678   2.257   5.104   5.645  1.2081  1.2898 -0.0612
 3063TIP3   OH230679   0.674   3.385  11.429 -0.0728  0.6218  0.0508
 3063TIP3    H130680   0.589   3.418  11.400  0.2414  0.8874 -0.5886
 3063TIP3    H230681   0.701   3.323  11.360  1.0285  1.8288 -0.6278
 3064TIP3   OH230682   3.059   1.791  14.128  0.4011  0.1589  0.0721
 3064TIP3    H130683   3.095   1.842  14.201  1.1962 -0.0779 -0.1451
 3064TIP3    H230684   2.985   1.843  14.097  0.3815  0.5196  0.7130
 3065TIP3   OH230685   5.374   3.568  16.151 -0.6779 -0.1456  0.1441
 3065TIP3    H130686   5.426   3.568  16.070  0.8662 -0.8613  1.1250
 3065TIP3    H230687   5.333   3.482  16.153 -2.4611  0.6455 -0.9552
 3066TIP3   OH230688   2.300   5.087  13.242  0.1257  0.0685  0.2253
 3066TIP3    H130689   2.321   5.164  13.189  0.4814 -0.2930 -0.1663
 3066TIP3    H230690   2.291   5.016  13.178 -2.8554  0.2931  0.3100
 3067TIP3   OH230691   0.722   0.881  17.050 -0.0170 -0.9529  0.1417
 3067TIP3    H130692   0.752   0.790  17.052  0.1199 -0.9821 -2.2878
 3067TIP3    H230693   0.802   0.932  17.037 -0.3075 -0.5956 -0.2474
 3068TIP3   OH230694   3.760   4.132  14.671 -0.1810  0.6263  0.0212
 3068TIP3    H130695   3.751   4.039  14.691  1.7967  1.0571  3.1604
 3068TIP3    H230696   3.694   4.175  14.725 -0.6728  1.1168 -0.9557
 3069TIP3   OH230697   1.058   3.473  14.411  0.2312 -0.1096  0.3063
 3069TIP3    H130698   1.073   3.536  14.482 -0.8413  1.0254 -0.4577
 3069TIP3    H230699   1.003   3.405  14.451  0.5161 -0.0293  0.8439
 3070TIP3   OH230700   4.471   1.603  15.898 -0.3208  0.4772  0.3446
 3070TIP3    H130701   4.412   1.555  15.840  1.9704  0.0470 -1.6900
 3070TIP3    H230702   4.450   1.695  15.882  0.1711  0.3603 -1.0700
 3071TIP3   OH230703   4.499   5.025  14.567  0.1100 -0.0980  0.2772
 3071TIP3    H130704   4.439   5.070  14.508 -0.2736  2.7899  2.7990
 3071TIP3    H230705   4.583   5.025  14.521 -0.6490  0.2922 -1.1165
 3072TIP3   OH230706   3.813   4.249   1.692 -0.0103 -0.1727 -0.0503
 3072TIP3    H130707   3.897   4.222   1.728 -0.5024 -2.5186 -0.5760
 3072TIP3    H230708   3.784   4.320   1.750  1.8533 -0.0220  0.7233
 3073TIP3   OH230709   0.556   1.231  11.848  0.6203  0.1717  0.9511
 3073TIP3    H130710   0.601   1.253  11.929 -1.1853 -1.0275  2.3173
 3073TIP3    H230711   0.570   1.307  11.792 -0.2812  2.1672  3.3334
 3074TIP3   OH230712   3.617   3.109  16.229  0.5274  0.7420  0.1164
 3074TIP3    H130713   3.593   3.119  16.136  0.7044  0.0630 -0.0047
 3074TIP3    H230714   3.626   3.198  16.261  0.7649  0.9801 -0.6026
 3075TIP3   OH230715   3.275   1.231  12.650  0.3234  0.6338  0.4619
 3075TIP3    H130716   3.276   1.217  12.555  0.3701  0.4021  0.4953
 3075TIP3    H230717   3.316   1.317  12.662  0.6378  0.5101  0.2969
 3076TIP3   OH230718   5.696   6.529   0.815 -0.1722  0.3487  0.3048
 3076TIP3    H130719   5.680   6.518   0.722  0.5105  0.4914  0.1670
 3076TIP3    H230720   5.746   6.611   0.821  0.5434 -0.1235  0.7172
 3077TIP3   OH230721   5.357   3.662  10.751  0.2353  0.2614 -0.0097
 3077TIP3    H130722   5.269   3.625  10.748 -0.4582  1.9471 -1.2118
 3077TIP3    H230723   5.401   3.625  10.674 -0.1192  1.1181 -0.6228
 3078TIP3   OH230724   6.127   4.178  11.656 -0.1883  0.4608  0.3498
 3078TIP3    H130725   6.091   4.208  11.740 -0.5517  1.4340 -0.1491
 3078TIP3    H230726   6.051   4.145  11.608  0.1081 -0.6400  0.6245
 3079TIP3   OH230727   0.701   3.825  14.707 -0.0759  0.2858  0.0893
 3079TIP3    H130728   0.754   3.759  14.662 -1.8286 -1.4133  0.4529
 3079TIP3    H230729   0.705   3.902  14.651 -0.0940 -0.9500 -1.6593
 3080TIP3   OH230730   6.061   0.526   1.184 -0.2534  0.4860 -0.1510
 3080TIP3    H130731   6.046   0.619   1.168  1.4523  0.7026 -0.6060
 3080TIP3    H230732   6.048   0.515   1.278  0.8467  1.4583  0.1295
 3081TIP3   OH230733   3.964   2.651  14.516  0.3696 -0.4921 -0.2670
 3081TIP3    H130734   4.055   2.625  14.503  0.2720 -1.4831  0.9534
 3081TIP3    H230735   3.968   2.721  14.581  0.2910 -0.2059 -0.5678
 3082TIP3   OH230736   2.344   1.679  14.344 -0.4542 -0.6432 -0.3813
 3082TIP3    H130737   2.250   1.668  14.363 -0.4416 -0.4721 -0.2119
 3082TIP3    H230738   2.369   1.597  14.302 -0.7241 -0.6136 -0.6043
 3083TIP3   OH230739   6.740   6.210   2.927 -0.2086 -0.0615 -0.5642
 3083TIP3    H130740   6.655   6.179   2.959  1.0363 -2.0375  0.8987
 3083TIP3    H230741   6.741   6.303   2.952 -0.8355 -0.6543  1.8780
 3084TIP3   OH230742   5.234   5.094   0.653 -0.2252 -0.3366  0.0688
 3084TIP3    H130743   5.164   5.160   0.643  1.3954  1.3715 -0.2536
 3084TIP3    H230744   5.289   5.127   0.724  1.6388 -0.4003 -1.3119
 3085TIP3   OH230745   3.063   4.021  11.834  0.5164  0.3511 -0.4823
 3085TIP3    H130746   2.973   4.033  11.805 -0.0705  0.5713  1.3888
 3085TIP3    H230747   3.104   3.970  11.764 -1.5972 -1.5246 -0.3994
 3086TIP3   OH230748   3.532   0.367   1.450  1.1841 -0.4709 -0.1957
 3086TIP3    H130749   3.529   0.432   1.380  3.1176 -0.1881 -0.0529
 3086TIP3    H230750   3.529   0.418   1.531 -1.7623 -0.8352 -0.0260
 3087TIP3   OH230751   1.300   0.956  16.330 -0.1786  0.1274  0.5404
 3087TIP3    H130752   1.378   0.903  16.345 -1.1074 -0.9338  1.6834
 3087TIP3    H230753   1.303   0.977  16.237  2.2803  1.3975  0.8669
 3088TIP3   OH230754   4.893   1.834   5.095 -0.4069 -0.0176 -0.0132
 3088TIP3    H130755   4.877   1.846   5.189  0.0420 -1.1188  0.2066
 3088TIP3    H230756   4.813   1.796   5.062 -0.2691 -0.3812  0.0721
 3089TIP3   OH230757   0.931   2.706  12.379 -0.4598  0.0364  0.1459
 3089TIP3    H130758   0.921   2.644  12.307 -0.9400 -1.5849  1.5889
 3089TIP3    H230759   1.019   2.689  12.413 -0.4823  0.3384  0.3593
 3090TIP3   OH230760   5.692   0.134  13.003  0.2649 -0.3620 -0.0091
 3090TIP3    H130761   5.628   0.199  12.973  0.7578 -1.3501 -3.3441
 3090TIP3    H230762   5.639   0.063  13.038 -0.3602  0.3528  0.5119
 3091TIP3   OH230763   0.275   1.705  16.410 -0.0747 -0.0293  0.5093
 3091TIP3    H130764   0.198   1.759  16.392  0.0992 -0.4332 -1.5439
 3091TIP3    H230765   0.257   1.667  16.496 -1.6495  0.7655  0.5627
 3092TIP3   OH230766   1.844   4.886   5.013 -0.5839  0.1963  0.2630
 3092TIP3    H130767   1.913   4.844   4.961 -0.1107  2.1087 -0.6999
 3092TIP3    H230768   1.830   4.826   5.086  0.5214 -1.3178 -0.7168
 3093TIP3   OH230769   1.438   6.444   3.410 -0.6834  0.0579  0.3428
 3093TIP3    H130770   1.521   6.459   3.456 -0.5087 -1.0186  0.3986
 3093TIP3    H230771   1.371   6.460   3.477 -0.4577 -0.7056  0.7575
 3094TIP3   OH230772   2.925   4.902  14.922  0.1426 -0.3106  0.4641
 3094TIP3    H130773   2.859   4.894  14.853 -0.1697 -0.2666  0.7570
 3094TIP3    H230774   2.968   4.816  14.924  0.7918 -0.0082 -0.4296
 3095TIP3   OH230775   0.543   0.270   1.447 -0.2488  0.6092  0.0674
 3095TIP3    H130776   0.492   0.190   1.459 -0.1658  0.3791 -1.0640
 3095TIP3    H230777   0.484   0.328   1.399  0.2727  0.6310 -0.5452
 3096TIP3   OH230778   6.413   6.439  16.936  0.3347  0.3828 -0.0792
 3096TIP3    H130779   6.336   6.466  16.887  0.0127  2.0970  1.3100
 3096TIP3    H230780   6.379   6.416  17.023  1.4724  2.1798  0.8882
 3097TIP3   OH230781   0.467   3.912   1.625 -0.3905  0.4863  0.1686
 3097TIP3    H130782   0.561   3.927   1.637  0.0009 -1.4772 -0.3218
 3097TIP3    H230783   0.448   3.835   1.679 -1.4058 -0.0578 -0.9392
 3098TIP3   OH230784   6.574   3.847  17.018  0.2370  0.1420  0.0685
 3098TIP3    H130785   6.651   3.879  16.971  1.0811 -1.3452  0.3950
 3098TIP3    H230786   6.550   3.767  16.972 -2.2574  1.5369 -1.1586
 3099TIP3   OH230787   3.132   3.956   6.585 -0.0443 -0.2909 -0.1063
 3099TIP3    H130788   3.088   4.042   6.585 -0.8636 -0.6902  1.2463
 3099TIP3    H230789   3.207   3.968   6.644 -2.6945 -1.6847  3.8143
 3100TIP3   OH230790   0.276   2.572   5.612 -0.2957 -0.3872 -0.4830
 3100TIP3    H130791   0.194   2.532   5.644  0.2361 -1.8836 -0.9492
 3100TIP3    H230792   0.277   2.551   5.518 -0.3472  1.3551 -0.8877
 3101TIP3   OH230793   5.913   0.038  12.621  0.6773  0.0929  0.3009
 3101TIP3    H130794   5.949   0.084  12.545 -3.0697 -0.7670 -2.1606
 3101TIP3    H230795   5.920  -0.055  12.598  0.3071 -0.2021  1.3747
 3102TIP3   OH230796   2.875   5.929  12.453  0.6700  0.4138 -0.1245
 3102TIP3    H130797   2.959   5.928  12.499  1.0258 -0.1682 -0.7716
 3102TIP3    H230798   2.882   6.001  12.391  0.4605  0.7429  0.2277
 3103TIP3   OH230799   1.388   5.335  13.774 -0.0986  0.5601 -0.4390
 3103TIP3    H130800   1.433   5.418  13.788 -2.4190  1.7101  0.6125
 3103TIP3    H230801   1.392   5.320  13.680  2.7766  0.4062 -0.3202
 3104TIP3   OH230802   0.253   5.636  16.398  0.2092 -0.2029  0.1498
 3104TIP3    H130803   0.183   5.680  16.351  0.4004 -2.1207 -2.0435
 3104TIP3    H230804   0.333   5.661  16.351  0.7385  0.1070  1.1953
 3105TIP3   OH230805   6.497   0.563  14.134 -0.0165 -0.3478  0.2620
 3105TIP3    H130806   6.586   0.554  14.168  1.3089  1.8265 -2.3513
 3105TIP3    H230807   6.445   0.590  14.209  2.1634  1.2540  1.2642
 3106TIP3   OH230808   5.601   0.371  15.175  0.5601 -0.0403  0.6530
 3106TIP3    H130809   5.688   0.376  15.214  0.6202  0.7521  0.4162
 3106TIP3    H230810   5.542   0.406  15.242  0.4314 -0.4903  0.7778
 3107TIP3   OH230811   5.113   6.592  16.785  0.0456 -0.4921 -0.3618
 3107TIP3    H130812   5.182   6.614  16.847 -2.4550  1.4442  1.8703
 3107TIP3    H230813   5.133   6.645  16.708  0.1127  1.3976  0.9237
 3108TIP3   OH230814   1.203   0.308   1.364 -0.3633  0.1718 -0.2510
 3108TIP3    H130815   1.237   0.221   1.382  1.4314  0.8401 -0.3249
 3108TIP3    H230816   1.176   0.304   1.272 -1.4120 -0.6458  0.0786
 3109TIP3   OH230817   0.764   0.185  11.983  0.1487  0.7306  0.1467
 3109TIP3    H130818   0.739   0.265  12.030 -1.4925  0.6764 -0.6128
 3109TIP3    H230819   0.852   0.165  12.016  1.2589  3.7313 -0.7979
 3110TIP3   OH230820   0.091   6.612   0.847 -0.0118  0.3799 -0.1610
 3110TIP3    H130821   0.008   6.660   0.839 -0.3444 -0.0246  0.8192
 3110TIP3    H230822   0.081   6.537   0.788 -0.6620 -0.1007  0.5498
 3111TIP3   OH230823   0.282   3.809  14.550  0.1064 -0.1036 -0.0380
 3111TIP3    H130824   0.229   3.889  14.555  1.2287  0.6981 -0.7631
 3111TIP3    H230825   0.365   3.832  14.591  1.2985 -0.1688 -2.3321
 3112TIP3   OH230826   6.425   4.585   1.650  0.1781 -0.3169  0.8326
 3112TIP3    H130827   6.420   4.607   1.743 -0.7947 -2.3834  1.2928
 3112TIP3    H230828   6.514   4.551   1.638  0.5740  0.7160  0.8300
 3113TIP3   OH230829   2.896   4.181  10.514 -0.2261  0.5279 -0.2602
 3113TIP3    H130830   2.858   4.114  10.457  0.2192 -0.3000  0.4048
 3113TIP3    H230831   2.962   4.134  10.565  0.0192  1.4581  0.2787
 3114TIP3   OH230832   4.723   2.363  11.880 -0.1999  0.2388 -0.1861
 3114TIP3    H130833   4.683   2.309  11.948 -0.5601  0.3693 -0.2932
 3114TIP3    H230834   4.698   2.321  11.798 -0.8990  0.8467 -0.2902
 3115TIP3   OH230835   6.163   5.931  14.955  0.0187  0.2830 -0.3250
 3115TIP3    H130836   6.203   6.014  14.931 -0.4206  0.5919  0.0069
 3115TIP3    H230837   6.128   5.896  14.873 -0.5290  0.8178 -0.3160
 3116TIP3   OH230838   4.208   1.003  11.575  0.2565 -0.2759 -0.0196
 3116TIP3    H130839   4.289   1.052  11.592 -0.1930 -0.3295  2.5403
 3116TIP3    H230840   4.166   0.997  11.661 -2.0225 -1.0560 -1.1581
 3117TIP3   OH230841   2.931   1.039   3.142  0.3077  0.0126 -0.5463
 3117TIP3    H130842   3.016   1.001   3.164 -0.1189 -1.2300 -0.9973
 3117TIP3    H230843   2.870   0.966   3.150 -0.6925  0.8698 -0.3694
 3118TIP3   OH230844   0.324   3.623   3.062  0.2679  0.7248  0.1106
 3118TIP3    H130845   0.351   3.713   3.081  1.9549  0.4064 -0.6349
 3118TIP3    H230846   0.275   3.630   2.980  0.1407  1.0044  0.2092
 3119TIP3   OH230847   4.556   3.893   5.462  0.8112  0.0311  0.4023
 3119TIP3    H130848   4.612   3.885   5.539 -0.0453  0.7529  1.1191
 3119TIP3    H230849   4.613   3.872   5.388  1.9411  0.4729  1.1365
 3120TIP3   OH230850   4.021   0.618   0.927 -0.2397 -0.0951  0.2315
 3120TIP3    H130851   3.998   0.526   0.927  0.5727 -0.3067  0.2837
 3120TIP3    H230852   4.008   0.647   0.836  0.0043 -0.3944  0.1010
 3121TIP3   OH230853   0.474   3.566  12.282 -1.1637  0.2432 -0.1497
 3121TIP3    H130854   0.528   3.520  12.346 -0.7055 -0.6528 -1.1650
 3121TIP3    H230855   0.535   3.592  12.213 -1.8395  0.1681 -0.7885
 3122TIP3   OH230856   0.042   6.434  15.240 -0.8620 -0.1465 -0.0310
 3122TIP3    H130857   0.034   6.505  15.304  1.1631  0.1909 -0.1296
 3122TIP3    H230858   0.039   6.354  15.293 -0.9921  0.0717  0.2938
 3123TIP3   OH230859   3.182   1.478  11.154  0.0766 -0.0872  0.4332
 3123TIP3    H130860   3.152   1.492  11.065 -1.2100 -0.3692  0.8188
 3123TIP3    H230861   3.203   1.565  11.187 -0.1700  0.0929  0.1044
 3124TIP3   OH230862   1.996   5.803   2.076  0.4020  0.0448 -0.2554
 3124TIP3    H130863   1.982   5.877   2.135  1.0048 -0.5396  0.6239
 3124TIP3    H230864   1.994   5.842   1.988  1.4115  1.2281  0.2220
 3125TIP3   OH230865   0.141   2.121  10.432 -0.8306  0.2020  0.0844
 3125TIP3    H130866   0.213   2.088  10.486 -1.3051  0.3277  0.8021
 3125TIP3    H230867   0.160   2.214  10.421 -0.2741 -0.0039 -0.6953
 3126TIP3   OH230868   6.177   0.747   1.788  0.0299 -0.7273 -0.2039
 3126TIP3    H130869   6.172   0.843   1.796 -1.2624 -0.7674 -0.5599
 3126TIP3    H230870   6.268   0.731   1.762  0.9512  0.2370  2.2726
 3127TIP3   OH230871   6.789   2.295  14.030 -0.1090 -0.4334  0.3800
 3127TIP3    H130872   6.832   2.322  14.111  1.2079 -0.2896 -0.3431
 3127TIP3    H230873   6.796   2.372  13.973  1.7617 -1.5290 -0.9460
 3128TIP3   OH230874   2.308   2.804   0.017  0.2686  0.1929 -0.1218
 3128TIP3    H130875   2.393   2.846   0.032  1.2140 -1.3630 -0.9492
 3128TIP3    H230876   2.311   2.724   0.068  0.0461 -0.7828 -1.5913
 3129TIP3   OH230877   4.968   2.074  11.901  0.2918  0.6252 -0.3933
 3129TIP3    H130878   4.914   2.018  11.958  1.9128 -0.4386  0.1325
 3129TIP3    H230879   4.949   2.043  11.812 -0.0667  0.3466 -0.2202
 3130TIP3   OH230880   6.142   2.338  14.264  0.3129  1.0758  0.3771
 3130TIP3    H130881   6.096   2.357  14.182  2.2383  0.2346 -0.9590
 3130TIP3    H230882   6.098   2.259  14.297  0.2439  0.7467 -0.4610
 3131TIP3   OH230883   5.289   0.071   5.846 -0.5195  0.5430  0.1365
 3131TIP3    H130884   5.365   0.070   5.788 -0.1294  1.5260  0.6045
 3131TIP3    H230885   5.215   0.087   5.788 -0.3505 -0.2783 -0.3063
 3132TIP3   OH230886   2.500   0.279   2.339  0.5419  0.6655  0.7215
 3132TIP3    H130887   2.449   0.233   2.273  0.6020  0.2874  0.9388
 3132TIP3    H230888   2.466   0.368   2.338 -1.0453  0.0851  1.7964
 3133TIP3   OH230889   1.494   1.376   5.957  0.6656 -0.7551 -0.3564
 3133TIP3    H130890   1.406   1.339   5.953  1.4501 -2.4806 -2.1799
 3133TIP3    H230891   1.492   1.448   5.894  0.3763 -0.3335  0.1238
 3134TIP3   OH230892   5.161   2.724   2.539 -0.5044  0.2496  0.0767
 3134TIP3    H130893   5.240   2.768   2.508 -0.3454  0.1558  0.3483
 3134TIP3    H230894   5.126   2.782   2.607 -0.0969 -0.2242  0.6859
 3135TIP3   OH230895   2.981   0.828  14.675 -0.1071  0.2333 -0.4164
 3135TIP3    H130896   2.972   0.763  14.745  2.6764  0.3499  0.1261
 3135TIP3    H230897   3.029   0.900  14.715 -0.2144  1.1709 -1.9239
 3136TIP3   OH230898   5.306   6.692  11.265  0.4283 -0.4393 -0.3800
 3136TIP3    H130899   5.245   6.756  11.302 -0.0545 -0.8183 -0.5097
 3136TIP3    H230900   5.307   6.711  11.171  0.4290 -0.5064 -0.3931
 3137TIP3   OH230901   3.837   0.491   0.565 -0.0005  0.4986  0.5597
 3137TIP3    H130902   3.882   0.552   0.623 -1.9202  2.5384 -0.0291
 3137TIP3    H230903   3.769   0.451   0.619 -0.4169  0.8072  0.2622
 3138TIP3   OH230904   5.713   3.711   3.632 -0.1300  0.1050  0.0093
 3138TIP3    H130905   5.740   3.672   3.715  0.2480 -0.9007 -0.5830
 3138TIP3    H230906   5.749   3.653   3.565  0.9827  1.7989 -0.9082
 3139TIP3   OH230907   5.202   0.337  14.233 -0.2235 -0.4981  0.0656
 3139TIP3    H130908   5.208   0.361  14.326 -0.8558 -0.6590  0.1495
 3139TIP3    H230909   5.276   0.279  14.219  1.2577  1.3670 -0.1098
 3140TIP3   OH230910   0.129   4.820  16.179  0.9455  0.6215 -0.5474
 3140TIP3    H130911   0.120   4.895  16.119 -0.0850  1.2873  0.4259
 3140TIP3    H230912   0.101   4.854  16.264  0.4093 -0.8988 -0.1146
 3141TIP3   OH230913   6.314   4.027   4.281  0.2860  0.3192 -0.1197
 3141TIP3    H130914   6.236   4.056   4.329 -1.2726 -1.3255 -1.6019
 3141TIP3    H230915   6.368   3.983   4.347 -0.9187 -0.1862  0.5378
 3142TIP3   OH230916   0.257   4.255  14.985  0.0315 -0.6714 -0.0569
 3142TIP3    H130917   0.167   4.246  14.955  0.5898 -0.7622 -1.8173
 3142TIP3    H230918   0.287   4.165  14.997  0.2974 -0.6972 -0.8386
 3143TIP3   OH230919   0.636   2.558  12.351 -0.0480  0.1872  0.1032
 3143TIP3    H130920   0.596   2.503  12.284 -1.3392  1.1054  0.1042
 3143TIP3    H230921   0.730   2.549  12.337 -0.3111  1.6535 -2.8823
 3144TIP3   OH230922   3.160   1.385  16.972 -0.1339 -0.3398  0.5675
 3144TIP3    H130923   3.231   1.332  17.008  2.0329  3.1047  1.5508
 3144TIP3    H230924   3.114   1.419  17.048  0.2774  1.4811  0.0375
 3145TIP3   OH230925   2.563   6.187  12.327 -0.3788  0.3416  0.0370
 3145TIP3    H130926   2.656   6.178  12.349 -0.3617 -0.0384 -0.1811
 3145TIP3    H230927   2.533   6.097  12.315 -1.1094  0.3837  1.4678
 3146TIP3   OH230928   0.407   0.044   1.453 -0.1615  0.0615 -0.5212
 3146TIP3    H130929   0.447   0.029   1.368 -1.2134 -0.5694 -0.9067
 3146TIP3    H230930   0.355  -0.034   1.470 -2.6372  1.6008 -0.8088
 3147TIP3   OH230931   1.917   4.593   2.341 -0.2314  0.1844 -0.0339
 3147TIP3    H130932   1.848   4.564   2.401  0.3910 -1.1677  0.0464
 3147TIP3    H230933   1.961   4.664   2.388 -1.3003  0.7895  0.0779
 3148TIP3   OH230934   3.747   6.714  16.155  0.0559 -0.7752 -0.5391
 3148TIP3    H130935   3.746   6.626  16.116 -0.0442 -0.9534 -0.1437
 3148TIP3    H230936   3.674   6.713  16.217 -0.9882  0.1527 -1.7429
 3149TIP3   OH230937   5.446   4.173  12.694  0.2000 -0.4761  0.1765
 3149TIP3    H130938   5.416   4.092  12.736 -0.7188  0.2954  1.0456
 3149TIP3    H230939   5.440   4.239  12.763 -0.3619  0.6154 -0.9037
 3150TIP3   OH230940   2.608   1.407   4.475 -0.3749 -0.5674 -0.2492
 3150TIP3    H130941   2.558   1.488   4.468  1.0015  0.5292  1.8746
 3150TIP3    H230942   2.566   1.359   4.546 -1.3881 -1.8895 -1.7179
 3151TIP3   OH230943   1.083   2.135  15.848 -0.4972 -0.2676 -0.0831
 3151TIP3    H130944   1.098   2.141  15.754  3.5550 -2.0581  0.3411
 3151TIP3    H230945   1.120   2.216  15.884  0.1867 -0.6796  0.1606
 3152TIP3   OH230946   4.863   4.353   5.808  0.0712  0.0601 -1.1250
 3152TIP3    H130947   4.826   4.352   5.896 -0.5817  0.9027 -1.3816
 3152TIP3    H230948   4.793   4.321   5.751  0.4467 -0.3574 -1.3541
 3153TIP3   OH230949   3.640   3.543   2.607 -0.1248 -0.1897 -0.8378
 3153TIP3    H130950   3.591   3.506   2.680  0.6716  0.5858  0.0965
 3153TIP3    H230951   3.578   3.601   2.564 -0.9770 -1.5941 -1.5349
 3154TIP3   OH230952   3.879   6.291  13.871  0.1090 -0.1053  0.0263
 3154TIP3    H130953   3.972   6.288  13.891  0.2277 -0.7724 -0.6125
 3154TIP3    H230954   3.864   6.380  13.839  0.7849 -0.3889 -1.1112
 3155TIP3   OH230955   6.336   4.484  11.219 -0.0931 -0.1866  0.4279
 3155TIP3    H130956   6.354   4.473  11.126 -0.0312 -1.3079  0.5627
 3155TIP3    H230957   6.270   4.553  11.224  0.1108  0.0725 -0.4204
 3156TIP3   OH230958   5.943   5.555   5.553 -0.1848  0.3193  0.2244
 3156TIP3    H130959   5.898   5.499   5.616 -1.1271  0.5257 -0.2572
 3156TIP3    H230960   6.000   5.610   5.607 -0.3658 -0.0728  0.8243
 3157TIP3   OH230961   6.471   1.961  11.454 -0.7042  0.3349 -0.6400
 3157TIP3    H130962   6.545   2.003  11.410  0.7851 -1.5256  0.0395
 3157TIP3    H230963   6.510   1.893  11.508 -2.8706 -0.2582  0.2460
 3158TIP3   OH230964   2.213   0.747   0.419 -0.0929  0.1024 -0.3374
 3158TIP3    H130965   2.170   0.800   0.352  0.8932  1.8648  0.3877
 3158TIP3    H230966   2.209   0.658   0.386 -0.6007  0.8126 -2.2184
 3159TIP3   OH230967   2.212   5.461   5.661 -0.7044 -0.3092 -0.4267
 3159TIP3    H130968   2.235   5.529   5.598 -0.9416  0.6299  0.5037
 3159TIP3    H230969   2.151   5.405   5.613 -0.7048  0.2658 -1.1115
 3160TIP3   OH230970   2.941   3.233   6.682 -0.9100 -0.1441 -0.1740
 3160TIP3    H130971   2.950   3.321   6.717 -0.5539 -0.5068  0.6406
 3160TIP3    H230972   3.029   3.209   6.654 -0.6013 -1.0511  1.5353
 3161TIP3   OH230973   2.090   2.720   2.416 -0.4613 -0.3003 -0.1756
 3161TIP3    H130974   2.168   2.768   2.443  1.0565 -2.4434 -0.6471
 3161TIP3    H230975   2.040   2.707   2.497  0.9420 -1.1854  0.5522
 3162TIP3   OH230976   5.226   4.608   5.833 -0.0196  0.2624  0.5995
 3162TIP3    H130977   5.163   4.638   5.767  0.0867 -1.6617 -0.4066
 3162TIP3    H230978   5.303   4.664   5.819 -0.1918  0.2226 -0.5640
 3163TIP3   OH230979   4.497   3.743  10.734 -0.0606  0.1614 -1.0176
 3163TIP3    H130980   4.541   3.684  10.674 -0.3824 -1.0543 -0.0907
 3163TIP3    H230981   4.523   3.831  10.706  1.5103 -0.4693 -1.5826
 3164TIP3   OH230982   6.359   6.390  16.052 -0.0992  0.4754 -0.6733
 3164TIP3    H130983   6.397   6.381  16.140 -0.2064  0.3538 -0.6387
 3164TIP3    H230984   6.320   6.478  16.053  0.9878  0.9735 -1.0268
 3165TIP3   OH230985   4.077   6.436   2.871 -0.2214  0.0437 -0.1994
 3165TIP3    H130986   4.025   6.377   2.925 -2.3019  1.4538 -0.6216
 3165TIP3    H230987   4.159   6.447   2.919 -0.3785 -1.9864  0.5993
 3166TIP3   OH230988   0.569   1.667  16.042 -0.0663 -0.0154 -0.2251
 3166TIP3    H130989   0.646   1.711  16.006 -0.0012 -1.0238 -1.3872
 3166TIP3    H230990   0.577   1.577  16.010 -1.3155 -0.3218  0.3101
 3167TIP3   OH230991   6.701   3.419   2.179  0.1545 -0.2333 -0.7461
 3167TIP3    H130992   6.668   3.340   2.222  0.1419 -1.4174 -2.8823
 3167TIP3    H230993   6.753   3.462   2.247 -0.7600 -1.4772  0.7970
 3168TIP3   OH230994   5.591   4.012  14.934  0.2534  0.4280  0.4053
 3168TIP3    H130995   5.521   3.948  14.950  0.3116  0.3730  0.4423
 3168TIP3    H230996   5.641   4.012  15.016  0.3400  0.4127  0.3513
 3169TIP3   OH230997   2.024   3.007  11.434 -0.0844 -0.3927  0.7656
 3169TIP3    H130998   2.094   3.059  11.473  0.8005 -0.8241 -0.2294
 3169TIP3    H230999   2.067   2.927  11.403 -0.6583  0.1170 -1.4553
 3170TIP3   OH231000   2.319   0.887   4.647 -0.5858  0.4254  0.2115
 3170TIP3    H131001   2.313   0.793   4.629  0.8221 -0.0392  2.0219
 3170TIP3    H231002   2.294   0.895   4.739  1.5415  1.4961  0.7376
 3171TIP3   OH231003   0.265   3.243   0.892 -0.2208  0.2120  0.2616
 3171TIP3    H131004   0.198   3.312   0.891 -0.1715  0.2517 -0.2423
 3171TIP3    H231005   0.243   3.187   0.818  2.1958  2.0330 -1.9195
 3172TIP3   OH231006   6.257   5.879  11.905 -0.5823  0.3866  0.0413
 3172TIP3    H131007   6.202   5.849  11.977 -0.8586  2.5624  0.7610
 3172TIP3    H231008   6.330   5.923  11.946 -0.2680  0.8535 -0.9945
 3173TIP3   OH231009   2.456   5.388  14.676  0.0103  0.0053 -0.2216
 3173TIP3    H131010   2.379   5.427  14.716 -0.4156  1.1060 -2.0727
 3173TIP3    H231011   2.523   5.456  14.681  0.5233 -0.5322  0.3299
 3174TIP3   OH231012   6.011   1.743  16.853  0.1496 -0.3973  0.4101
 3174TIP3    H131013   6.064   1.668  16.876  0.7010 -0.1892 -0.1517
 3174TIP3    H231014   6.075   1.813  16.834 -0.3329  0.0129  0.2747
 3175TIP3   OH231015   6.581   6.744  15.130  0.0760 -1.1071 -0.6253
 3175TIP3    H131016   6.614   6.697  15.053 -0.8787 -1.1807 -0.9909
 3175TIP3    H231017   6.561   6.831  15.097  2.1711 -0.2995  0.1284
 3176TIP3   OH231018   4.636   1.959  13.209  0.5798  0.0329  0.1603
 3176TIP3    H131019   4.564   1.968  13.146  0.5027 -1.2361  0.0568
 3176TIP3    H231020   4.670   1.871  13.194  1.3426  0.1669  1.0762
 3177TIP3   OH231021   6.558   2.389  15.835  0.0026  0.0698  0.4951
 3177TIP3    H131022   6.592   2.300  15.847 -0.1616  0.0944  1.1927
 3177TIP3    H231023   6.515   2.388  15.750 -0.5335 -0.7023  0.7688
 3178TIP3   OH231024   4.770   0.361  15.370 -0.5716 -0.2246  0.5614
 3178TIP3    H131025   4.785   0.268  15.387  1.0044 -0.0925 -0.0517
 3178TIP3    H231026   4.733   0.394  15.452  1.8245 -0.7375  1.8829
 3179TIP3   OH231027   4.550   0.859  15.482  0.3216  0.2252  0.8802
 3179TIP3    H131028   4.579   0.948  15.499 -1.1466  1.0916 -0.9374
 3179TIP3    H231029   4.461   0.869  15.448  0.6765 -1.8200 -0.7843
 3180TIP3   OH231030   4.019   0.553   5.285  0.2804 -0.1932  0.4787
 3180TIP3    H131031   4.039   0.462   5.260  0.2171  0.0535 -0.4915
 3180TIP3    H231032   3.925   0.561   5.271  0.6927  0.7966 -2.0436
 3181TIP3   OH231033   0.047   4.780   3.677  0.8159 -0.5361 -0.3818
 3181TIP3    H131034   0.055   4.737   3.762  2.7436 -1.1605 -0.8479
 3181TIP3    H231035  -0.034   4.745   3.639  0.4583 -0.9842  0.7771
 3182TIP3   OH231036   0.342   1.889  12.489 -0.4907  0.4710  0.0565
 3182TIP3    H131037   0.385   1.928  12.565 -3.0160 -0.6692  2.1598
 3182TIP3    H231038   0.349   1.955  12.420  2.4017  1.2568  1.0684
 3183TIP3   OH231039   0.429   5.819   5.198 -0.0203  0.4872  0.4115
 3183TIP3    H131040   0.412   5.893   5.140  2.6694  1.9085  1.3090
 3183TIP3    H231041   0.525   5.814   5.202 -0.1608 -1.0738  2.8042
 3184TIP3   OH231042   3.627   0.330   5.460 -0.0437  0.5680 -0.4539
 3184TIP3    H131043   3.647   0.325   5.366  0.4607  2.3143 -0.4672
 3184TIP3    H231044   3.546   0.281   5.470  0.4482 -0.5276 -1.6259
 3185TIP3   OH231045   0.944   4.330  16.148  0.1526 -0.1426 -0.0258
 3185TIP3    H131046   0.857   4.307  16.115  0.0247  1.1013 -0.5753
 3185TIP3    H231047   0.948   4.291  16.235  0.1329 -2.6651 -1.1187
 3186TIP3   OH231048   3.576   0.280   0.015  0.4111  0.7672  0.3505
 3186TIP3    H131049   3.484   0.278  -0.009  0.3386 -1.0799  0.6837
 3186TIP3    H231050   3.578   0.248   0.105  1.0949  3.6454  1.4024
 3187TIP3   OH231051   6.168   5.427   3.244 -0.1025  0.1278 -0.3534
 3187TIP3    H131052   6.259   5.420   3.274  0.0240  1.8943 -0.2386
 3187TIP3    H231053   6.176   5.447   3.151 -0.2999  2.5732  0.1311
 3188TIP3   OH231054   5.655   0.213   5.789 -0.0244 -0.1497 -0.0586
 3188TIP3    H131055   5.587   0.264   5.834 -0.5299 -0.3857 -0.5438
 3188TIP3    H231056   5.663   0.133   5.840 -1.1943 -0.7883 -0.8359
 3189TIP3   OH231057   3.604   4.129  15.353  0.1639  0.0824 -0.0778
 3189TIP3    H131058   3.518   4.147  15.313  0.2542 -0.8858 -0.7253
 3189TIP3    H231059   3.622   4.038  15.330  0.5584 -0.2684  1.5807
 3190TIP3   OH231060   4.533   1.118   4.983 -0.6308 -0.4124  0.2192
 3190TIP3    H131061   4.539   1.142   5.075  1.4187 -1.3055  0.3570
 3190TIP3    H231062   4.516   1.200   4.938 -0.8474  0.1527  1.3157
 3191TIP3   OH231063   2.499   5.293   1.816  0.5120  0.2626 -0.4066
 3191TIP3    H131064   2.525   5.315   1.906 -2.7206 -0.6634  0.8273
 3191TIP3    H231065   2.556   5.221   1.791  1.1957  0.2878  1.0400
 3192TIP3   OH231066   1.782   1.072   5.808 -0.0981  0.0609  0.1916
 3192TIP3    H131067   1.866   1.055   5.851  0.2819 -0.1399 -0.6176
 3192TIP3    H231068   1.806   1.097   5.719 -0.9115 -0.3197 -0.1382
 3193TIP3   OH231069   1.770   0.832   3.590  0.0561  0.1534  0.0180
 3193TIP3    H131070   1.690   0.885   3.594  0.5517  1.0158 -1.1931
 3193TIP3    H231071   1.834   0.890   3.549  0.8289 -1.1282 -0.5863
 3194TIP3   OH231072   6.314   2.026   1.298  0.1440  0.1743  0.0302
 3194TIP3    H131073   6.327   2.076   1.217 -2.5782  1.1367  0.1162
 3194TIP3    H231074   6.397   1.981   1.313  1.6134  2.2081 -1.7708
 3195TIP3   OH231075   5.861   6.571   3.678 -0.2779 -0.4044  0.5669
 3195TIP3    H131076   5.861   6.526   3.593  3.2972 -2.4955  1.5455
 3195TIP3    H231077   5.929   6.638   3.669 -0.0131 -0.5113  1.6950
 3196TIP3   OH231078   3.604   4.575  17.046 -0.7447  0.0399 -0.0658
 3196TIP3    H131079   3.522   4.612  17.014 -1.2489 -0.1779  0.9526
 3196TIP3    H231080   3.629   4.630  17.120 -0.8159 -0.8562  0.6341
 3197TIP3   OH231081   4.054   4.939   0.476  0.1639  0.7207 -0.2766
 3197TIP3    H131082   4.141   4.911   0.505  0.1434  1.1909  0.2384
 3197TIP3    H231083   4.060   4.940   0.380  1.2170  2.2865 -0.2001
 3198TIP3   OH231084   1.756   5.303   2.810 -0.0846  0.1666  0.1432
 3198TIP3    H131085   1.746   5.391   2.773 -1.6451 -0.6688 -1.4959
 3198TIP3    H231086   1.677   5.289   2.862 -0.5113 -0.8049 -0.7550
 3199TIP3   OH231087   5.472   1.547   2.698  0.3181  0.8268 -0.2311
 3199TIP3    H131088   5.474   1.498   2.616 -0.4876  0.3186  0.0552
 3199TIP3    H231089   5.526   1.496   2.758 -1.5596 -0.4030  0.4476
 3200TIP3   OH231090   3.183   0.023   1.360  0.8053 -0.3552 -0.0009
 3200TIP3    H131091   3.203   0.002   1.451  0.2271  0.2965  0.2853
 3200TIP3    H231092   3.218  -0.050   1.310 -1.2068 -2.0204  0.9657
 3201TIP3   OH231093   0.216   6.012   5.866  0.6597  0.1104  0.2014
 3201TIP3    H131094   0.283   6.081   5.867  0.1905  0.5742  0.1399
 3201TIP3    H231095   0.259   5.935   5.903  2.0295 -0.3480 -2.2606
 3202TIP3   OH231096   0.487   5.499  15.289  0.7013 -0.6549  0.0559
 3202TIP3    H131097   0.525   5.578  15.250 -0.1457 -0.4362 -0.3200
 3202TIP3    H231098   0.475   5.439  15.215  0.6402 -0.8617  0.2321
 3203TIP3   OH231099   4.822   6.461   3.279  0.3322  0.1428  0.0620
 3203TIP3    H131100   4.822   6.365   3.281 -1.2671  0.0638 -1.8122
 3203TIP3    H231101   4.914   6.485   3.290  1.0061 -1.6864 -1.2308
 3204TIP3   OH231102   4.021   0.377   6.499 -0.4789  0.6465 -0.2754
 3204TIP3    H131103   4.111   0.346   6.495 -1.0679 -0.9583 -1.5362
 3204TIP3    H231104   4.028   0.467   6.533  1.3689 -0.2984  1.9639
 3205TIP3   OH231105   5.395   2.933  11.631  0.1793 -0.6738  0.1495
 3205TIP3    H131106   5.417   2.895  11.547 -0.0255 -0.0900 -0.1730
 3205TIP3    H231107   5.319   2.883  11.661 -0.9948  0.4109 -0.9438
 3206TIP3   OH231108   5.168   0.424  13.979  0.2862  0.5986  0.6736
 3206TIP3    H131109   5.187   0.416  14.073 -0.4057  0.4268  0.8018
 3206TIP3    H231110   5.250   0.453  13.940  0.8304 -0.2106  1.2106
 3207TIP3   OH231111   6.695   2.175   1.302  0.0464  0.5814  0.6237
 3207TIP3    H131112   6.707   2.132   1.387 -0.6298 -1.7664 -0.4383
 3207TIP3    H231113   6.630   2.244   1.320  1.0111  1.0789  2.3182
 3208TIP3   OH231114   4.973   6.190   1.268  0.2662  0.9805 -0.3108
 3208TIP3    H131115   4.960   6.282   1.248 -1.3403  0.6549 -0.8306
 3208TIP3    H231116   4.955   6.144   1.186  0.3038  0.1535  0.1363
 3209TIP3   OH231117   6.171   1.505   3.478 -0.3356 -0.0170 -0.2083
 3209TIP3    H131118   6.237   1.462   3.424 -0.7739 -0.0371 -0.7357
 3209TIP3    H231119   6.217   1.579   3.518  0.2091 -0.4974  0.0636
 3210TIP3   OH231120   3.866   4.087  17.216  0.2655  0.1512 -0.2628
 3210TIP3    H131121   3.919   4.020  17.173 -1.1972 -0.7096 -0.7504
 3210TIP3    H231122   3.776   4.057  17.205 -0.1817  0.3041  2.7478
 3211TIP3   OH231123   0.845   4.300   1.733  0.4363  0.3450  0.6198
 3211TIP3    H131124   0.932   4.327   1.762  0.1321  1.5451  0.4331
 3211TIP3    H231125   0.821   4.364   1.666 -0.7032  0.1802  0.8681
 3212TIP3   OH231126   3.695   0.705  16.932  0.0756  0.2648  0.0016
 3212TIP3    H131127   3.660   0.723  16.845 -0.6938 -3.2444 -0.4860
 3212TIP3    H231128   3.763   0.639  16.917  1.0400  0.7876  1.8962
 3213TIP3   OH231129   6.639   4.605   5.623 -0.7299 -1.1902  0.1099
 3213TIP3    H131130   6.639   4.649   5.538 -0.2217 -0.5898  0.4176
 3213TIP3    H231131   6.562   4.547   5.620 -1.6843  0.0727 -0.1137
 3214TIP3   OH231132   3.665   4.415  14.792  0.3343 -0.1536  0.3484
 3214TIP3    H131133   3.611   4.462  14.729  0.0032  0.2287  0.9155
 3214TIP3    H231134   3.755   4.442  14.773  0.3126 -0.6610 -0.4855
 3215TIP3   OH231135   3.024   5.444  16.670 -0.0426  0.1856 -0.5815
 3215TIP3    H131136   2.976   5.500  16.730  2.1228  1.6208 -0.1417
 3215TIP3    H231137   2.999   5.355  16.694 -1.3062  0.8488  0.5956
 3216TIP3   OH231138   4.806   5.035  10.643 -1.0115 -0.2471 -0.1616
 3216TIP3    H131139   4.808   4.999  10.731 -2.1656  0.2373  0.0626
 3216TIP3    H231140   4.718   5.071  10.633 -0.8347 -0.1492 -1.4473
 3217TIP3   OH231141   2.600   2.130  10.826 -0.3482  0.5223 -0.2901
 3217TIP3    H131142   2.518   2.153  10.869 -0.1294 -0.4762  0.6711
 3217TIP3    H231143   2.662   2.197  10.855 -1.0054  1.8050 -1.7170
 3218TIP3   OH231144   2.650   4.769  11.902  0.0179 -0.1454 -0.0626
 3218TIP3    H131145   2.621   4.735  11.817 -3.0666 -0.7137  1.1579
 3218TIP3    H231146   2.598   4.848  11.915  2.1237  1.2272  0.3198
 3219TIP3   OH231147   2.896   5.537   5.624 -0.4767  0.2012  0.4476
 3219TIP3    H131148   2.895   5.633   5.622  1.5985  0.2732  1.6322
 3219TIP3    H231149   2.823   5.514   5.682 -2.4446  0.9662 -1.6792
 3220TIP3   OH231150   3.098   5.819  16.157  0.0243  0.4914 -0.6845
 3220TIP3    H131151   3.063   5.854  16.075  0.7732  1.1354 -0.7460
 3220TIP3    H231152   3.189   5.849  16.158 -0.3831  1.7730  1.0838
 3221TIP3   OH231153   2.005   4.712   3.865 -0.1526 -0.3052 -0.2937
 3221TIP3    H131154   2.009   4.616   3.856  0.5812 -0.1716 -1.4553
 3221TIP3    H231155   1.918   4.728   3.902 -0.1244 -1.4489  0.3000
 3222TIP3   OH231156   1.627   1.152  12.762  0.0273 -0.4997  0.5092
 3222TIP3    H131157   1.707   1.118  12.722 -0.0261  0.8983 -0.8343
 3222TIP3    H231158   1.655   1.232  12.807 -0.8014  0.6386 -0.9573
 3223TIP3   OH231159   0.421   1.998   1.482  0.3608 -0.1371 -0.1065
 3223TIP3    H131160   0.329   2.017   1.463  0.5455  2.0420  1.0626
 3223TIP3    H231161   0.455   1.966   1.398 -1.3925 -0.7650 -0.6186
 3224TIP3   OH231162   6.091   6.575  17.101  0.4906  0.3466 -0.0806
 3224TIP3    H131163   6.008   6.616  17.125  0.9785  1.5609 -0.4604
 3224TIP3    H231164   6.079   6.548  17.010  0.0542 -0.6838  0.2682
 3225TIP3   OH231165   4.847   0.942  15.842 -0.1978 -0.0867  0.1826
 3225TIP3    H131166   4.907   0.973  15.910 -1.7922  1.2109  1.0501
 3225TIP3    H231167   4.821   1.022  15.796 -0.6680 -0.7295 -0.6751
 3226TIP3   OH231168   4.445   6.396   2.291 -0.2584 -0.0407 -0.3112
 3226TIP3    H131169   4.352   6.402   2.270 -0.0174 -1.2548 -1.7597
 3226TIP3    H231170   4.483   6.342   2.222  1.4888  0.2239  0.3963
 3227TIP3   OH231171   4.584   5.757  12.026 -0.4643  0.5668 -0.4802
 3227TIP3    H131172   4.670   5.719  12.007  0.3355  2.3939 -0.6594
 3227TIP3    H231173   4.522   5.686  12.010  0.9386 -0.5224 -1.2041
 3228TIP3   OH231174   4.878   1.913  13.717 -0.1500 -0.2742 -0.3247
 3228TIP3    H131175   4.966   1.927  13.681  0.6883  0.8353  2.0421
 3228TIP3    H231176   4.824   1.982  13.680  0.4539  0.2436 -0.2344
 3229TIP3   OH231177   5.321   1.651  12.639 -0.2980  0.0189 -0.3608
 3229TIP3    H131178   5.272   1.719  12.592  0.3160 -0.0095 -1.0356
 3229TIP3    H231179   5.409   1.687  12.649 -0.3992 -0.0113  0.6979
 3230TIP3   OH231180   1.239   4.127  10.690 -0.0975  0.1089 -0.6363
 3230TIP3    H131181   1.309   4.063  10.705  0.1015 -0.4943 -3.7917
 3230TIP3    H231182   1.176   4.081  10.635 -1.0574  1.9039 -1.0604
 3231TIP3   OH231183   6.796   2.671  13.502  0.4471 -0.3432 -0.4420
 3231TIP3    H131184   6.846   2.594  13.530  0.5475 -0.4817 -0.9905
 3231TIP3    H231185   6.776   2.654  13.409 -2.8535 -1.5384  0.4092
 3232TIP3   OH231186   2.712   0.591  15.125 -0.5015  0.5953  0.1068
 3232TIP3    H131187   2.710   0.498  15.104  0.3521  1.1487 -2.5508
 3232TIP3    H231188   2.624   0.623  15.102 -0.1510  0.8311 -0.9408
 3233TIP3   OH231189   4.487   2.853  14.506  0.3701  0.1145  0.0377
 3233TIP3    H131190   4.471   2.778  14.563 -0.5114  0.4743  0.2714
 3233TIP3    H231191   4.562   2.827  14.452 -0.9239 -1.5878 -1.0100
 3234TIP3   OH231192   3.542   0.763  12.339  0.4154 -0.1954 -0.3939
 3234TIP3    H131193   3.538   0.690  12.278  0.6282 -2.6351  2.4239
 3234TIP3    H231194   3.463   0.814  12.322 -0.0796 -1.4654 -1.9125
 3235TIP3   OH231195   1.346   1.237   2.439  0.3732  0.6960 -0.0773
 3235TIP3    H131196   1.438   1.236   2.412  0.5789 -0.8429  0.6545
 3235TIP3    H231197   1.326   1.330   2.452  1.7866  1.0462 -0.3622
 3236TIP3   OH231198   5.826   3.224   4.308 -0.0949  0.4082 -0.2844
 3236TIP3    H131199   5.825   3.303   4.254 -0.2752  1.5912  1.4065
 3236TIP3    H231200   5.890   3.244   4.377 -0.9164 -0.5185  0.7518
 3237TIP3   OH231201   0.461   5.044  13.473 -0.2519  0.0541 -0.0082
 3237TIP3    H131202   0.504   5.128  13.488  0.1250  0.1162 -1.3470
 3237TIP3    H231203   0.368   5.063  13.481 -0.1574  0.5479 -0.0534
 3238TIP3   OH231204   6.018   3.885  15.253 -0.0457  0.4847  0.2698
 3238TIP3    H131205   5.968   3.808  15.282 -0.2338  0.9450  1.1973
 3238TIP3    H231206   6.011   3.884  15.158  0.8637 -1.2699  0.2010
 3239TIP3   OH231207   3.031   1.280  12.781 -0.2205 -0.5181  0.1196
 3239TIP3    H131208   3.062   1.227  12.854  0.1322 -2.4051 -1.3518
 3239TIP3    H231209   3.101   1.274  12.716 -1.3776 -0.5311 -1.1536
 3240TIP3   OH231210   4.899   1.130   2.288  0.2640 -0.4618  0.2471
 3240TIP3    H131211   4.805   1.123   2.303  0.2848 -0.1087  0.5594
 3240TIP3    H231212   4.913   1.092   2.201 -0.4936  1.5931 -0.8026
 3241TIP3   OH231213   6.671   5.107   1.692 -0.2944 -0.8212  0.3547
 3241TIP3    H131214   6.710   5.169   1.631  2.6811 -0.0307  2.9649
 3241TIP3    H231215   6.578   5.104   1.667 -0.3411  3.9405 -0.4621
 3242TIP3   OH231216   3.342   1.166  12.388 -0.1053 -0.3647  0.4856
 3242TIP3    H131217   3.411   1.139  12.327 -2.4018 -1.8229 -1.5598
 3242TIP3    H231218   3.283   1.220  12.335 -1.7710 -1.0672  1.5608
 3243TIP3   OH231219   3.088   4.060  10.641  0.1560  0.4267 -0.9466
 3243TIP3    H131220   3.091   4.035  10.733 -0.3972 -0.5785 -1.1995
 3243TIP3    H231221   3.167   4.113  10.628 -0.1825  1.2784  0.3006
 3244TIP3   OH231222   1.612   5.037   3.104  0.4663 -0.0034 -0.4019
 3244TIP3    H131223   1.538   5.076   3.058  0.0305  0.0518  0.3435
 3244TIP3    H231224   1.623   4.951   3.062 -1.8510 -1.2159  1.3674
 3245TIP3   OH231225   1.062   0.794   5.535  0.1803 -0.5976  0.4722
 3245TIP3    H131226   0.990   0.809   5.597 -0.4113  0.5029 -0.4523
 3245TIP3    H231227   1.096   0.881   5.517 -0.0838 -0.8310 -1.2448
 3246TIP3   OH231228   4.370   2.294  15.942 -0.0015  0.2941  0.0281
 3246TIP3    H131229   4.440   2.260  15.998  0.3464 -0.0892 -0.6214
 3246TIP3    H231230   4.393   2.261  15.855  0.3006  2.1746 -0.6089
 3247TIP3   OH231231   4.424   1.256   3.226 -0.6948  0.6987 -0.0259
 3247TIP3    H131232   4.478   1.178   3.231 -0.9925  0.4547 -0.5687
 3247TIP3    H231233   4.346   1.234   3.277 -1.8593 -0.2564 -2.1293
 3248TIP3   OH231234   6.223   0.612   5.803  0.4677 -0.1983 -0.6938
 3248TIP3    H131235   6.210   0.594   5.710 -0.2952  1.8284 -1.0220
 3248TIP3    H231236   6.298   0.671   5.806 -0.6732  1.2846 -0.2332
 3249TIP3   OH231237   3.605   6.171  14.832  0.3236  0.6214  0.4438
 3249TIP3    H131238   3.676   6.127  14.786  1.2406  1.5315  0.9647
 3249TIP3    H231239   3.600   6.127  14.917  1.1155  1.3694  0.8926
 3250TIP3   OH231240   1.431   1.172  12.578 -0.3522 -0.2925  0.4891
 3250TIP3    H131241   1.510   1.162  12.631  0.2082  1.2710 -0.0200
 3250TIP3    H231242   1.382   1.241  12.621 -1.0001 -0.6110  0.2675
 3251TIP3   OH231243   5.405   3.093  11.943  0.0121  0.1688  0.0868
 3251TIP3    H131244   5.468   3.026  11.968 -1.7275 -1.2107  0.8292
 3251TIP3    H231245   5.332   3.045  11.904 -0.9432  1.6833 -0.0525
 3252TIP3   OH231246   0.661   3.939  15.206 -0.2497 -0.7664 -0.1981
 3252TIP3    H131247   0.614   4.013  15.243  1.6568  0.0231  0.7289
 3252TIP3    H231248   0.628   3.863  15.255  0.0116 -0.1186  1.0057
 3253TIP3   OH231249   6.033   5.060   5.469 -0.0903 -0.1131 -0.2869
 3253TIP3    H131250   6.033   4.991   5.535 -1.4358  0.6233  0.4977
 3253TIP3    H231251   6.040   5.141   5.519 -1.2654  0.4597 -1.0344
 3254TIP3   OH231252   3.403   6.714   4.764 -0.2267  0.6442 -0.2280
 3254TIP3    H131253   3.450   6.685   4.686  1.1520 -0.4098  0.9583
 3254TIP3    H231254   3.346   6.640   4.787 -0.4177  0.8381 -0.0670
 3255TIP3   OH231255   4.254   5.412   0.011  0.2089  0.6758 -0.3049
 3255TIP3    H131256   4.203   5.370  -0.058 -1.1694  1.6993  0.0892
 3255TIP3    H231257   4.270   5.501  -0.022  1.7367  0.3793 -0.4180
 3256TIP3   OH231258   4.111   2.388  14.209  0.5720 -0.3404  0.1379
 3256TIP3    H131259   4.146   2.341  14.285 -0.3532 -0.1927  0.6634
 3256TIP3    H231260   4.043   2.444  14.245  1.4923  1.2139 -0.5254
 3257TIP3   OH231261   1.205   1.594   4.973  0.1969  0.3002 -0.2229
 3257TIP3    H131262   1.152   1.560   4.901 -0.3700 -1.3352  0.9531
 3257TIP3    H231263   1.289   1.615   4.933 -0.3878  0.1964 -1.5293
 3258TIP3   OH231264   1.563   6.583   3.195 -0.4217 -0.2967 -0.1602
 3258TIP3    H131265   1.516   6.544   3.268  0.4303  1.1551  1.1932
 3258TIP3    H231266   1.569   6.676   3.217  1.0874 -0.0845 -1.3803
 3259TIP3   OH231267   4.055   6.014   6.285 -0.2264 -0.6375 -0.1354
 3259TIP3    H131268   4.148   6.020   6.266 -0.6556  1.1576 -1.8220
 3259TIP3    H231269   4.051   6.014   6.381  1.4670  0.1913 -0.0350
 3260TIP3   OH231270   0.943   3.267   3.538  0.4036  0.1992  0.0373
 3260TIP3    H131271   0.875   3.204   3.515 -0.9033  0.3343  3.1974
 3260TIP3    H231272   0.894   3.344   3.569  1.9939  2.0822 -1.9435
 3261TIP3   OH231273   1.532   1.889   4.892  0.3117  0.4492  0.1789
 3261TIP3    H131274   1.615   1.882   4.938 -0.4104 -2.3923  1.1310
 3261TIP3    H231275   1.542   1.832   4.816 -0.8357 -0.0962  0.4268
 3262TIP3   OH231276   4.008   2.010   5.933 -0.2371 -0.4871 -0.1024
 3262TIP3    H131277   3.990   1.920   5.959 -0.0730  0.3752  3.2887
 3262TIP3    H231278   3.938   2.061   5.974  1.8013  1.3098  1.2697
 3263TIP3   OH231279   1.322   5.350  17.086 -0.2143 -0.1626 -0.9289
 3263TIP3    H131280   1.352   5.439  17.065 -2.5152  0.5748 -1.1622
 3263TIP3    H231281   1.366   5.295  17.021  2.0755  0.6440 -0.1147
 3264TIP3   OH231282   1.167   0.617  13.741  0.2419  0.1611  0.0671
 3264TIP3    H131283   1.106   0.632  13.669 -1.0390  0.2674  1.1508
 3264TIP3    H231284   1.252   0.607  13.699 -0.7350 -1.4108 -1.5812
 3265TIP3   OH231285   3.590   6.169   4.575 -0.1354  0.4988 -0.4476
 3265TIP3    H131286   3.525   6.216   4.523 -0.6604  0.1529 -0.1126
 3265TIP3    H231287   3.538   6.121   4.640  0.1364 -2.7569 -2.5069
 3266TIP3   OH231288   1.395   1.725  11.847 -0.7123  0.0268 -0.1391
 3266TIP3    H131289   1.460   1.746  11.779 -0.4538 -0.1198  0.0625
 3266TIP3    H231290   1.418   1.781  11.921  0.1528 -1.1393  0.5021
 3267TIP3   OH231291   0.141   0.646  14.072 -0.2129  0.0759  0.2484
 3267TIP3    H131292   0.071   0.671  14.011 -0.9157  0.3949  1.1687
 3267TIP3    H231293   0.208   0.713  14.059  0.2490 -0.6428 -1.1585
 3268TIP3   OH231294   3.272   6.561   1.802  0.0159  0.0975 -0.3653
 3268TIP3    H131295   3.275   6.626   1.733 -1.8787 -0.5147 -1.0690
 3268TIP3    H231296   3.362   6.533   1.814  0.4997  1.0347 -1.7894
 3269TIP3   OH231297   2.107   3.570   5.985 -0.3954 -0.6749  0.4677
 3269TIP3    H131298   2.125   3.480   6.009 -1.7837 -0.5755  1.9328
 3269TIP3    H231299   2.025   3.591   6.029 -1.6123  0.3875 -2.2179
 3270TIP3   OH231300   1.371   0.981   6.225 -0.2859  1.1204  0.1367
 3270TIP3    H131301   1.328   1.061   6.254 -1.8867  0.2649  0.1863
 3270TIP3    H231302   1.390   0.933   6.306  0.5758  1.4130  0.1025
 3271TIP3   OH231303   4.604   3.615   2.139 -0.6970 -0.0138 -0.1706
 3271TIP3    H131304   4.646   3.611   2.053 -0.4894  1.1635 -0.1343
 3271TIP3    H231305   4.526   3.561   2.131 -2.2816  2.4566 -1.9985
 3272TIP3   OH231306   1.244   2.516  15.099 -0.1930  0.5067 -0.3747
 3272TIP3    H131307   1.228   2.482  15.011  0.5125 -1.0678  0.0727
 3272TIP3    H231308   1.245   2.437  15.154  0.8854  1.3316  0.7972
 3273TIP3   OH231309   2.206   6.606   6.314  0.0919  0.2844 -0.1534
 3273TIP3    H131310   2.192   6.699   6.292 -0.8217  0.2799  0.3833
 3273TIP3    H231311   2.121   6.565   6.299  0.5319 -0.5088 -0.5452
 3274TIP3   OH231312   0.029   0.309   2.474 -0.2343 -0.3788  0.2273
 3274TIP3    H131313   0.000   0.300   2.384  0.9646 -0.0069 -0.1980
 3274TIP3    H231314  -0.028   0.249   2.524  0.7214 -2.4449 -1.0947
 3275TIP3   OH231315   0.748   6.565  11.662  0.1243  0.1551  0.1571
 3275TIP3    H131316   0.799   6.618  11.601 -0.2162  0.7542  0.3797
 3275TIP3    H231317   0.742   6.479  11.621 -0.8252  0.7833 -1.0697
 3276TIP3   OH231318   2.700   5.740   4.499 -0.1835  0.0354 -0.0570
 3276TIP3    H131319   2.619   5.700   4.530  0.4416 -0.5909  0.7742
 3276TIP3    H231320   2.737   5.677   4.438 -0.2542  0.2708 -0.3483
 3277TIP3   OH231321   4.512   0.156   5.977 -0.4970  0.3818 -0.6037
 3277TIP3    H131322   4.493   0.067   5.947  1.1655  0.5716 -2.3004
 3277TIP3    H231323   4.561   0.144   6.059 -0.2027 -0.2784 -0.8722
 3278TIP3   OH231324   6.072   2.649   0.375 -0.3206  0.6118  0.5476
 3278TIP3    H131325   6.136   2.617   0.438  0.2232 -1.6604 -1.1161
 3278TIP3    H231326   6.058   2.576   0.315 -2.1201  2.1371 -0.9591
 3279TIP3   OH231327   0.753   1.245  14.010 -0.2571  0.1628  0.0979
 3279TIP3    H131328   0.756   1.279  14.099 -0.9102 -1.0668  0.6021
 3279TIP3    H231329   0.676   1.288  13.971 -2.2015 -2.0907  1.3257
 3280TIP3   OH231330   2.103   0.077  12.449  0.4239 -0.2751  0.0882
 3280TIP3    H131331   2.017   0.049  12.420  1.0944 -2.6180  0.2708
 3280TIP3    H231332   2.114   0.164  12.411 -1.6385 -0.3229 -0.6691
 3281TIP3   OH231333   0.592   1.824  13.926 -0.2433 -0.7295 -1.2705
 3281TIP3    H131334   0.576   1.752  13.865 -2.3495 -1.9107  0.5906
 3281TIP3    H231335   0.660   1.792  13.984 -0.5068 -0.8651 -1.0331
 3282TIP3   OH231336   5.539   6.149   0.255  0.5018 -0.4987 -0.5628
 3282TIP3    H131337   5.609   6.129   0.192 -0.6965 -1.0179 -1.7527
 3282TIP3    H231338   5.470   6.188   0.203 -0.0272  0.1987  0.6445
 3283TIP3   OH231339   0.951   0.194  16.936  0.0669 -0.0044 -0.1426
 3283TIP3    H131340   0.962   0.200  16.841  0.3024 -0.4164 -0.1373
 3283TIP3    H231341   1.022   0.137  16.965 -0.2302 -0.1795  0.2369
 3284TIP3   OH231342   5.685   1.725   3.435  0.2971  0.4983  0.1146
 3284TIP3    H131343   5.687   1.811   3.478  0.8913  0.0522  1.0105
 3284TIP3    H231344   5.776   1.695   3.438  0.0637 -0.2328 -0.0393
 3285TIP3   OH231345   1.240   4.937  15.322  0.0115  0.0219  0.3599
 3285TIP3    H131346   1.167   4.876  15.306 -1.3452  2.0010 -1.2531
 3285TIP3    H231347   1.206   4.999  15.386  0.4712  0.6154  0.0339
 3286TIP3   OH231348   5.053   4.518   3.647  0.0138  0.1237  0.1274
 3286TIP3    H131349   5.080   4.609   3.660  1.2100 -0.2918  0.6226
 3286TIP3    H231350   5.134   4.472   3.624 -0.6090 -0.7829 -0.2607
 3287TIP3   OH231351   4.285   5.869  17.040 -0.1748  0.3314  0.5447
 3287TIP3    H131352   4.190   5.875  17.038 -0.1258  1.5656  1.2735
 3287TIP3    H231353   4.315   5.959  17.024  0.9237 -0.5868 -2.8749
 3288TIP3   OH231354   2.665   2.395   1.200  0.2967  0.0050  0.0121
 3288TIP3    H131355   2.694   2.305   1.187 -1.2412 -0.1786 -2.4183
 3288TIP3    H231356   2.738   2.449   1.170 -0.1551 -0.4527 -1.9736
 3289TIP3   OH231357   1.156   5.912  11.107  0.2419  0.0828  0.1543
 3289TIP3    H131358   1.203   5.978  11.056 -1.0767 -0.0786 -1.3205
 3289TIP3    H231359   1.095   5.873  11.044  1.1969 -2.7434  0.9236
 3290TIP3   OH231360   3.226   0.992   0.419  0.3462 -0.1930  0.1266
 3290TIP3    H131361   3.256   0.922   0.477  0.1324 -1.2394 -0.9974
 3290TIP3    H231362   3.299   1.005   0.359 -1.4894 -3.0248 -2.8816
 3291TIP3   OH231363   5.489   3.188  13.695  0.0687 -0.1555  0.3090
 3291TIP3    H131364   5.468   3.188  13.789  0.8043  0.5995  0.4789
 3291TIP3    H231365   5.582   3.168  13.691 -0.0587 -0.6617 -0.2988
 3292TIP3   OH231366   1.397   0.565  13.592  0.1188  0.3544 -0.8098
 3292TIP3    H131367   1.393   0.622  13.516 -0.0840  3.8469  1.6817
 3292TIP3    H231368   1.457   0.608  13.652 -1.0175 -1.3833  1.7121
 3293TIP3   OH231369   2.734   5.949   0.540 -0.0393 -0.5306 -0.0554
 3293TIP3    H131370   2.662   5.913   0.488 -0.4381 -0.7700  0.6555
 3293TIP3    H231371   2.720   6.044   0.537 -0.5280 -0.5879  0.2825
 3294TIP3   OH231372   4.855   6.276   1.833  0.3429 -0.1310 -0.6402
 3294TIP3    H131373   4.881   6.263   1.742  0.6256  0.9750 -0.7294
 3294TIP3    H231374   4.816   6.193   1.859  0.9540 -0.7146 -1.5364
 3295TIP3   OH231375   6.434   1.890  13.489  0.1972 -0.1934  0.3052
 3295TIP3    H131376   6.523   1.870  13.517  0.3250 -0.1134 -0.0452
 3295TIP3    H231377   6.406   1.813  13.440 -0.5046 -0.8915  1.7688
 3296TIP3   OH231378   1.011   1.733   5.117 -0.2282  0.2042  0.2109
 3296TIP3    H131379   1.053   1.700   5.038  0.3872 -1.3350  1.1565
 3296TIP3    H231380   1.080   1.732   5.183 -0.5181  2.2992  0.5556
 3297TIP3   OH231381   4.618   0.171  12.938 -0.2465 -0.0893  1.0151
 3297TIP3    H131382   4.577   0.132  12.861 -0.9970 -0.6307  1.6793
 3297TIP3    H231383   4.577   0.257  12.946 -1.3493 -0.6654  1.7326
 3298TIP3   OH231384   3.845   5.088   1.413  0.0784  0.8539 -0.1935
 3298TIP3    H131385   3.829   5.126   1.326  0.3364  0.3560 -0.4638
 3298TIP3    H231386   3.886   5.003   1.394  0.7563  1.0434  0.4369
 3299TIP3   OH231387   4.219   1.490  12.445 -0.3951  0.0004 -0.5811
 3299TIP3    H131388   4.294   1.515  12.391 -0.0578 -0.9156 -0.5467
 3299TIP3    H231389   4.237   1.528  12.531  0.6265 -1.2285 -0.2367
 3300TIP3   OH231390   5.022   3.055   1.078  0.2466 -0.7861  0.0759
 3300TIP3    H131391   4.935   3.056   1.117 -0.5816 -0.3162 -1.7642
 3300TIP3    H231392   5.044   2.962   1.072  0.0602 -0.8903  0.9141
 3301TIP3   OH231393   5.339   0.428  12.323 -0.2356  0.1628 -0.6061
 3301TIP3    H131394   5.258   0.471  12.350  1.4459  2.3012  1.2551
 3301TIP3    H231395   5.358   0.466  12.237 -1.0264 -0.1390 -0.9237
 3302TIP3   OH231396   2.935   5.550  13.970 -0.0357 -0.0742 -0.6163
 3302TIP3    H131397   3.015   5.563  13.920  0.5519  1.9086  0.7773
 3302TIP3    H231398   2.867   5.595  13.920  0.2406  0.5053 -0.4769
 3303TIP3   OH231399   0.318   0.018  16.187  0.8941  0.1224  0.2834
 3303TIP3    H131400   0.267  -0.007  16.110  3.0980 -1.4948 -0.7244
 3303TIP3    H231401   0.297  -0.048  16.253 -0.4785  1.1171  0.8544
 3304TIP3   OH231402   3.530   0.031  13.693  0.7120 -0.0893  0.6272
 3304TIP3    H131403   3.616   0.066  13.718  0.9345 -0.6898  0.6930
 3304TIP3    H231404   3.508   0.079  13.613  1.4079 -0.4133  0.2404
 3305TIP3   OH231405   3.319   4.006   2.617 -0.1697 -0.5052  0.0580
 3305TIP3    H131406   3.300   3.932   2.559  0.5120 -0.7184  0.1075
 3305TIP3    H231407   3.342   3.965   2.701 -0.1915 -0.2248  0.1994
 3306TIP3   OH231408   2.812   5.559   0.862 -0.0123  0.4739 -0.1441
 3306TIP3    H131409   2.784   5.500   0.933  0.6579  1.1514  0.6966
 3306TIP3    H231410   2.906   5.546   0.857 -0.2033 -0.3885 -1.6800
 3307TIP3   OH231411   0.508   3.568  17.074 -0.5294  0.0232 -1.1030
 3307TIP3    H131412   0.446   3.508  17.034 -0.6719 -0.3776 -0.2924
 3307TIP3    H231413   0.474   3.656  17.054 -0.5833 -0.1710 -1.8670
 3308TIP3   OH231414   4.727   3.873  15.092  0.0056  0.4700  0.4378
 3308TIP3    H131415   4.633   3.887  15.101 -0.0116 -0.0032  1.0282
 3308TIP3    H231416   4.755   3.937  15.027 -0.9297 -0.2012 -0.6449
 3309TIP3   OH231417   3.066   5.926  14.431  0.3035 -0.2601  0.1379
 3309TIP3    H131418   3.079   5.834  14.454  0.0919  0.1608  2.0686
 3309TIP3    H231419   3.040   5.968  14.514 -1.4800  1.1771 -1.1107
 3310TIP3   OH231420   5.629   0.788   3.932  0.0419 -0.2295 -0.1038
 3310TIP3    H131421   5.574   0.767   4.007 -0.7123 -2.2206 -1.1746
 3310TIP3    H231422   5.571   0.780   3.856  0.7628  1.8353 -0.9231
 3311TIP3   OH231423   2.509   5.369  16.249 -0.1417  0.2671 -0.0046
 3311TIP3    H131424   2.537   5.460  16.248  1.2864 -0.1526 -0.5690
 3311TIP3    H231425   2.544   5.335  16.332  1.8045 -0.4816 -1.1029
 3312TIP3   OH231426   6.700   5.600  14.491  0.0486 -0.1985  0.1904
 3312TIP3    H131427   6.648   5.552  14.427  1.0295 -0.9138 -0.0938
 3312TIP3    H231428   6.681   5.692  14.473 -0.6654 -0.4331 -0.2850
 3313TIP3   OH231429   2.072   0.168  16.400  0.0928 -0.1699  0.0772
 3313TIP3    H131430   2.035   0.155  16.488 -0.5399  0.0324 -0.1595
 3313TIP3    H231431   2.060   0.261  16.382  0.4304 -0.1669 -0.1348
 3314TIP3   OH231432   1.190   5.164  11.236 -0.1479 -0.0962  0.3302
 3314TIP3    H131433   1.095   5.148  11.237  0.0334 -1.1828  2.2681
 3314TIP3    H231434   1.227   5.088  11.192 -0.0441 -0.4528  1.0347
 3315TIP3   OH231435   6.283   3.486   3.469  0.8542 -0.5962 -0.7537
 3315TIP3    H131436   6.269   3.579   3.453 -0.2805 -0.8726 -1.4251
 3315TIP3    H231437   6.249   3.471   3.557  2.2163 -0.1311 -0.1334
 3316TIP3   OH231438   2.357   0.852   0.774 -0.1885 -0.0942 -0.6531
 3316TIP3    H131439   2.398   0.775   0.813 -0.3727 -0.4836 -1.2169
 3316TIP3    H231440   2.423   0.921   0.780 -0.2404 -0.1253  0.4055
 3317TIP3   OH231441   5.245   4.193   4.021 -0.1177  0.0952 -0.4600
 3317TIP3    H131442   5.285   4.279   4.014 -0.9268  0.5314  0.2075
 3317TIP3    H231443   5.224   4.169   3.931  0.3961  0.4477 -0.6785
 3318TIP3   OH231444   2.108   3.748  13.931 -0.2652 -0.5507  0.1701
 3318TIP3    H131445   2.203   3.739  13.924 -0.2359  0.2624 -0.7341
 3318TIP3    H231446   2.091   3.839  13.904 -1.4209 -1.1055 -1.0282
 3319TIP3   OH231447   0.305   3.598  13.912 -0.1512 -0.2280 -0.4355
 3319TIP3    H131448   0.343   3.604  13.999 -3.6815  3.5857  1.0355
 3319TIP3    H231449   0.260   3.513  13.911 -1.1232  0.2203  1.9536
 3320TIP3   OH231450   5.255   0.445  15.192 -0.1259 -0.1073  0.0775
 3320TIP3    H131451   5.238   0.366  15.141 -0.8457  0.7706 -1.0647
 3320TIP3    H231452   5.230   0.421  15.282 -2.4260 -0.5100 -0.6354
 3321TIP3   OH231453   5.765   3.644   5.602  0.1300  0.7260 -0.1888
 3321TIP3    H131454   5.724   3.709   5.546 -0.9491  1.2949  1.2476
 3321TIP3    H231455   5.694   3.611   5.658  0.8613 -0.9456 -0.2003
 3322TIP3   OH231456   2.305   6.428   0.524  0.0910  0.2044 -0.1129
 3322TIP3    H131457   2.373   6.489   0.495  1.4941 -0.8561  0.8859
 3322TIP3    H231458   2.313   6.353   0.465  0.3370 -0.2615  0.5016
 3323TIP3   OH231459   1.815   0.485  15.742  0.0630  0.0245  0.4310
 3323TIP3    H131460   1.740   0.486  15.802  0.8509 -2.5170  1.5184
 3323TIP3    H231461   1.873   0.554  15.774  0.0337 -0.6720  2.0284
 3324TIP3   OH231462   4.973   0.915  13.682 -0.5386  0.5548  0.2935
 3324TIP3    H131463   4.946   0.998  13.644  1.3201  0.7810 -0.5810
 3324TIP3    H231464   5.069   0.919  13.684 -0.5017 -0.6414  2.3265
 3325TIP3   OH231465   0.304   5.825   2.303 -0.2016 -0.4795 -0.2176
 3325TIP3    H131466   0.312   5.816   2.208  1.2989  0.3058 -0.1939
 3325TIP3    H231467   0.368   5.762   2.338 -1.5380 -1.5698  0.3090
 3326TIP3   OH231468   1.135   5.215  13.820 -0.4542 -0.0584  0.1868
 3326TIP3    H131469   1.218   5.262  13.823  0.3332 -1.3200 -1.0696
 3326TIP3    H231470   1.147   5.141  13.881 -1.0570  0.3680  0.8321
 3327TIP3   OH231471   3.065   6.546  16.190  0.1409 -0.1645  0.2360
 3327TIP3    H131472   2.978   6.555  16.151  0.5719  1.9570 -0.2947
 3327TIP3    H231473   3.053   6.569  16.282  0.5584  2.4993 -0.3459
 3328TIP3   OH231474   0.339   5.769   2.014  0.1869  0.4240 -0.1145
 3328TIP3    H131475   0.327   5.745   1.922  3.2195 -1.4596 -0.0795
 3328TIP3    H231476   0.434   5.777   2.024  0.4088 -4.6768  4.0447
 3329TIP3   OH231477   4.910   3.693  13.250  0.2773 -0.7160  0.4848
 3329TIP3    H131478   4.869   3.653  13.327  2.2944  0.4770  2.2422
 3329TIP3    H231479   4.989   3.642  13.235  1.3508  0.7549  0.9525
 3330TIP3   OH231480   3.503   2.126   3.075  0.3117  0.0242 -0.1476
 3330TIP3    H131481   3.561   2.059   3.112  2.0314  2.3275  1.5070
 3330TIP3    H231482   3.558   2.175   3.014 -0.6126  0.6400 -0.4998
 3331TIP3   OH231483   4.234   5.889   1.616  0.1828 -0.7373  0.8224
 3331TIP3    H131484   4.277   5.930   1.541 -1.1167 -0.3582  0.2691
 3331TIP3    H231485   4.141   5.910   1.605  0.0141 -0.4334  2.6932
 3332TIP3   OH231486   3.241   6.634   3.421  0.4636  0.2065  0.2352
 3332TIP3    H131487   3.167   6.689   3.400  0.8031  0.2832 -0.7722
 3332TIP3    H231488   3.313   6.695   3.438  0.2612  0.1405  1.3961
 3333TIP3   OH231489   1.318   0.054   6.248  0.6894 -0.9247 -0.1540
 3333TIP3    H131490   1.358  -0.033   6.249  1.0357 -0.7623  0.4090
 3333TIP3    H231491   1.324   0.082   6.156 -0.4843 -1.9688 -0.5532
 3334TIP3   OH231492   1.916   6.574  12.582 -0.2002  0.3697 -0.0599
 3334TIP3    H131493   1.958   6.501  12.537 -1.3881 -1.2990  1.4455
 3334TIP3    H231494   1.823   6.562  12.566 -0.3243  2.5027 -1.1234
 3335TIP3   OH231495   4.398   6.065  15.725 -0.4730 -0.2791  0.4422
 3335TIP3    H131496   4.376   6.106  15.809 -0.3468 -3.5427  2.1594
 3335TIP3    H231497   4.319   6.073  15.673 -0.1616  2.8898  0.3625
 3336TIP3   OH231498   3.312   1.813  11.605  0.2390 -0.0583  0.6548
 3336TIP3    H131499   3.406   1.804  11.614  0.1483 -0.0210  1.7246
 3336TIP3    H231500   3.283   1.847  11.690 -0.6998  0.1955  0.2424
 3337TIP3   OH231501   6.386   1.733  15.322 -0.0709  0.0530  0.2156
 3337TIP3    H131502   6.324   1.739  15.249 -1.6354 -0.2125  1.4994
 3337TIP3    H231503   6.355   1.658  15.373  0.7565  0.5022  1.3839
 3338TIP3   OH231504   2.266   0.052  16.579 -0.5642 -0.0026  0.4067
 3338TIP3    H131505   2.220   0.066  16.497 -1.7532  0.7273  1.1794
 3338TIP3    H231506   2.212   0.097  16.645  0.3261 -0.6258  1.5887
 3339TIP3   OH231507   2.902   2.056  14.220 -0.0339  0.2695 -0.1289
 3339TIP3    H131508   2.855   2.029  14.141 -0.1042 -0.4650  0.1643
 3339TIP3    H231509   2.956   2.130  14.191 -1.3708  1.1191 -0.4623
 3340TIP3   OH231510   3.725   6.706  14.433 -0.1224  0.2848 -0.3572
 3340TIP3    H131511   3.732   6.622  14.478 -3.0075 -0.9355 -2.0226
 3340TIP3    H231512   3.772   6.694  14.351 -1.2888 -0.0393 -0.9923
 3341TIP3   OH231513   5.354   4.596  13.442 -0.3271 -0.9794  0.4719
 3341TIP3    H131514   5.389   4.563  13.525  0.3816 -0.4881  0.3741
 3341TIP3    H231515   5.404   4.676  13.425  0.6624 -1.9211 -1.2291
 3342TIP3   OH231516   6.291   3.671   1.348 -0.2989 -0.4012  0.1780
 3342TIP3    H131517   6.343   3.687   1.426 -2.2869 -0.0352  1.4612
 3342TIP3    H231518   6.297   3.577   1.334  1.2398 -0.2702 -0.0832
 3343TIP3   OH231519   4.605   2.892  16.500 -0.0630 -0.2199  0.5440
 3343TIP3    H131520   4.600   2.859  16.590 -1.5535  0.2332  0.6321
 3343TIP3    H231521   4.676   2.957  16.502 -0.2958  0.0099  1.4631
 3344TIP3   OH231522   3.436   2.511  12.437  0.4570  0.3333  0.6957
 3344TIP3    H131523   3.452   2.594  12.481 -2.6239  0.8151  0.9954
 3344TIP3    H231524   3.396   2.455  12.503  0.2751 -0.5889 -0.1744
 3345TIP3   OH231525   3.578   4.863   3.332  0.2844 -0.3474  0.0346
 3345TIP3    H131526   3.523   4.839   3.257 -1.5530 -1.4912  1.6953
 3345TIP3    H231527   3.516   4.890   3.399  1.7047 -2.0401  2.0853
 3346TIP3   OH231528   5.699   4.485   5.398  0.4241  0.1600 -0.0609
 3346TIP3    H131529   5.669   4.395   5.391  1.3204 -0.0631 -1.1529
 3346TIP3    H231530   5.730   4.507   5.310 -0.9001  1.9278 -0.1191
 3347TIP3   OH231531   4.590   1.703   2.411 -0.4250 -0.3841 -0.7697
 3347TIP3    H131532   4.606   1.609   2.403  0.1314 -0.3946  0.3594
 3347TIP3    H231533   4.500   1.709   2.441 -0.6006 -0.5402 -1.2600
 3348TIP3   OH231534   4.562   3.538   4.934  0.1974 -0.2222 -0.0953
 3348TIP3    H131535   4.566   3.591   4.855  0.7824  1.0546  0.7751
 3348TIP3    H231536   4.630   3.574   4.991 -0.2073 -1.1359  0.9887
 3349TIP3   OH231537   1.963   0.919   2.942  0.1277  0.4129 -0.3893
 3349TIP3    H131538   2.029   0.982   2.971  0.8290 -0.4246 -0.1344
 3349TIP3    H231539   2.014   0.849   2.902 -0.5526 -0.6705  0.6158
 3350TIP3   OH231540   3.399   6.094  11.280 -0.4160  0.3179 -1.0070
 3350TIP3    H131541   3.355   6.018  11.319 -0.0706  0.1000 -1.0419
 3350TIP3    H231542   3.366   6.097  11.191 -0.3857  0.1713 -1.0239
 3351TIP3   OH231543   5.133   1.417  12.953  0.1581  0.2296 -0.2429
 3351TIP3    H131544   5.154   1.372  12.871  1.4141 -0.3058  0.3487
 3351TIP3    H231545   5.111   1.506  12.927 -1.1714 -0.4027 -1.3240
 3352TIP3   OH231546   1.340   2.956  13.526  0.5845  0.3989  0.6043
 3352TIP3    H131547   1.327   2.923  13.437 -1.7641  0.7944  0.7739
 3352TIP3    H231548   1.354   3.050  13.515 -3.1004  1.0523  0.8334
 3353TIP3   OH231549   3.545   2.309   0.127 -0.1599 -0.1853  0.2859
 3353TIP3    H131550   3.539   2.392   0.175 -2.3410  0.2347 -0.6429
 3353TIP3    H231551   3.534   2.333   0.035  0.7625 -1.3316 -0.1304
 3354TIP3   OH231552   4.105   6.004  16.702  0.0082 -0.3944  0.6610
 3354TIP3    H131553   4.027   5.989  16.649 -0.7317  0.3953  1.5188
 3354TIP3    H231554   4.135   5.916  16.725  1.3444 -0.8542 -2.4546
 3355TIP3   OH231555   4.191   5.788  12.361  0.4064  0.4195  0.0600
 3355TIP3    H131556   4.109   5.833  12.383  0.5486  0.7965 -0.1749
 3355TIP3    H231557   4.259   5.837  12.408  0.1960 -1.6609  2.6628
 3356TIP3   OH231558   3.461   6.726  11.632 -0.2838  0.3077 -0.0630
 3356TIP3    H131559   3.494   6.807  11.672 -0.1782 -0.9318  2.4422
 3356TIP3    H231560   3.370   6.747  11.609  0.1042  1.5097 -0.5336
 3357TIP3   OH231561   1.714   6.119  11.185 -0.0674  0.0404 -0.0554
 3357TIP3    H131562   1.688   6.043  11.236 -0.1801 -0.3002 -0.6105
 3357TIP3    H231563   1.737   6.083  11.099 -0.5662  0.6767 -0.4657
 3358TIP3   OH231564   6.376   1.706   2.886 -0.1603 -0.0920 -0.1241
 3358TIP3    H131565   6.341   1.786   2.926  0.1374  0.0283 -0.1010
 3358TIP3    H231566   6.305   1.673   2.831  0.4800  1.4099 -1.9079
 3359TIP3   OH231567   5.881   0.697   2.272  0.0763  0.4409 -0.4079
 3359TIP3    H131568   5.908   0.641   2.199  0.6674  2.1408 -1.5409
 3359TIP3    H231569   5.951   0.689   2.336 -0.4562 -1.0830 -0.0025
 3360TIP3   OH231570   4.835   4.037  11.022 -0.0027 -0.0435 -0.0160
 3360TIP3    H131571   4.825   4.075  10.935 -0.2685  1.0884  0.5067
 3360TIP3    H231572   4.750   3.996  11.040 -0.2931  0.6331  0.1481
 3361TIP3   OH231573   5.746   0.452  16.279 -0.4066 -0.3605 -0.1530
 3361TIP3    H131574   5.809   0.404  16.225  1.3102  1.4944  0.1155
 3361TIP3    H231575   5.757   0.415  16.367 -1.1867 -1.4462 -0.5023
 3362TIP3   OH231576   3.464   1.327   2.815 -0.0116 -0.6717  0.7127
 3362TIP3    H131577   3.507   1.314   2.731  2.2229 -0.1933  1.7606
 3362TIP3    H231578   3.482   1.418   2.838  0.0077 -0.9978  2.0470
 3363TIP3   OH231579   4.463   3.066   4.038  0.5918  0.0473 -0.3616
 3363TIP3    H131580   4.488   3.071   3.946  2.3587 -2.6491 -0.0714
 3363TIP3    H231581   4.483   3.154   4.072  2.1797  0.3621 -1.9926
 3364TIP3   OH231582   3.505   4.310   0.831  0.6486  0.0095  0.1021
 3364TIP3    H131583   3.571   4.253   0.792 -0.8123 -1.4398 -0.3007
 3364TIP3    H231584   3.476   4.263   0.909 -1.6165 -0.5190 -1.0246
 3365TIP3   OH231585   2.125   0.918  12.133 -0.1074  0.1670 -0.0824
 3365TIP3    H131586   2.203   0.863  12.145 -0.5155 -0.5252 -0.5484
 3365TIP3    H231587   2.102   0.946  12.222 -1.3552 -2.4854  0.4917
 3366TIP3   OH231588   1.904   5.971   1.351  0.3306  0.3257  0.4605
 3366TIP3    H131589   1.949   5.888   1.368 -1.3821 -1.1882 -1.9601
 3366TIP3    H231590   1.952   6.009   1.277 -0.1170  0.4740  0.2428
 3367TIP3   OH231591   0.214   0.846   1.784  0.2901  0.0000  0.2145
 3367TIP3    H131592   0.146   0.801   1.834 -1.8652  0.1494 -2.4498
 3367TIP3    H231593   0.179   0.934   1.771  0.8847  0.0011 -1.4093
 3368TIP3   OH231594   1.231   1.891   6.167 -0.6675 -0.5015 -0.1939
 3368TIP3    H131595   1.271   1.805   6.179  0.5261  0.3105  2.0887
 3368TIP3    H231596   1.137   1.876   6.181 -0.6683 -1.7058 -1.4161
 3369TIP3   OH231597   3.145   5.887   6.387 -0.1059  0.4188 -0.1106
 3369TIP3    H131598   3.186   5.851   6.466  1.4980 -1.0985 -1.5559
 3369TIP3    H231599   3.198   5.963   6.365  0.7242 -0.3667 -0.8592
 3370TIP3   OH231600   0.914   6.584   5.207  0.2517  0.0240 -0.0909
 3370TIP3    H131601   0.950   6.501   5.240  1.3256  0.6740  0.3935
 3370TIP3    H231602   0.978   6.650   5.233 -1.1647  1.1708  0.5458
 3371TIP3   OH231603   2.003   4.467  13.090 -0.4663 -0.1440 -0.3424
 3371TIP3    H131604   1.967   4.393  13.042 -0.8700  1.6607 -2.9206
 3371TIP3    H231605   2.082   4.491  13.043 -0.2542  0.9820  0.5465
 3372TIP3   OH231606   4.230   0.737  15.111 -0.3269  0.0871 -0.2437
 3372TIP3    H131607   4.186   0.699  15.187  0.0957 -2.5952 -1.2815
 3372TIP3    H231608   4.158   0.765  15.054 -0.6794 -0.8388 -0.2668
 3373TIP3   OH231609   5.189   0.675   1.863  0.1279  0.6656 -0.0816
 3373TIP3    H131610   5.230   0.665   1.949 -0.1499  1.0888  0.1014
 3373TIP3    H231611   5.148   0.590   1.847  0.8007  0.3502 -0.1216
 3374TIP3   OH231612   2.521   5.069  15.680  0.4605 -0.1829  0.3792
 3374TIP3    H131613   2.461   5.135  15.716  1.0940  0.0079  1.1117
 3374TIP3    H231614   2.608   5.105  15.696  0.8542 -1.6709  1.7520
 3375TIP3   OH231615   4.002   0.240  12.090 -0.6408 -0.1241  0.8698
 3375TIP3    H131616   4.075   0.190  12.125 -0.9620 -1.6487 -0.5541
 3375TIP3    H231617   4.035   0.330  12.083  1.1368 -0.8081  0.1508
 3376TIP3   OH231618   0.479   2.082  16.550 -0.2277  0.2292  0.1831
 3376TIP3    H131619   0.480   2.018  16.479  2.4806  0.5041 -0.0892
 3376TIP3    H231620   0.554   2.139  16.532 -0.4627  1.2949  2.3753
 3377TIP3   OH231621   3.429   3.217  14.108  0.8297  0.6508 -0.7681
 3377TIP3    H131622   3.447   3.161  14.033 -0.3892  0.6745 -1.0724
 3377TIP3    H231623   3.341   3.251  14.093 -0.7265 -1.8226  2.2421
 3378TIP3   OH231624   2.828   2.425  12.683 -0.5920  0.4402 -0.0468
 3378TIP3    H131625   2.751   2.475  12.656  0.2216  1.1861 -1.0502
 3378TIP3    H231626   2.869   2.398  12.601 -0.6423 -1.3198  0.4793
 3379TIP3   OH231627   2.943   1.938   0.583  0.0537  0.1312  0.8597
 3379TIP3    H131628   2.972   1.847   0.587  1.7349  0.5764 -0.6403
 3379TIP3    H231629   3.022   1.988   0.564 -1.3360  1.6005 -1.2549
 3380TIP3   OH231630   5.302   5.866   1.082  0.3044 -0.0781  0.6880
 3380TIP3    H131631   5.368   5.879   1.149  1.1320  2.0752 -0.4983
 3380TIP3    H231632   5.311   5.942   1.024 -1.5352 -1.0104 -0.8837
 3381TIP3   OH231633   2.057   0.462  11.083 -0.1693  0.3598  0.0100
 3381TIP3    H131634   2.119   0.485  11.014  0.5050  3.1572  1.4969
 3381TIP3    H231635   1.975   0.503  11.056  0.4137  2.5363  1.4524
 3382TIP3   OH231636   5.896   6.163   1.143 -0.1350  0.5764 -0.5039
 3382TIP3    H131637   5.933   6.234   1.091  0.6097  0.5924  0.0474
 3382TIP3    H231638   5.960   6.092   1.135 -0.4132  0.2992 -0.2726
 3383TIP3   OH231639   0.369   1.355  10.709 -0.6677 -0.3417  0.3512
 3383TIP3    H131640   0.364   1.266  10.745  1.0438 -1.2171 -1.4587
 3383TIP3    H231641   0.279   1.378  10.688 -1.4693 -0.5331  3.4204
 3384TIP3   OH231642   0.676   4.044   4.159 -0.8241 -0.0169 -0.1655
 3384TIP3    H131643   0.757   4.041   4.108 -0.8479 -1.0785 -0.1553
 3384TIP3    H231644   0.662   3.953   4.188 -1.9869  0.1641 -0.1242
 3385TIP3   OH231645   0.159   2.380   1.383 -0.1909 -0.2126 -0.6090
 3385TIP3    H131646   0.110   2.462   1.388 -2.0651 -1.3384 -0.0641
 3385TIP3    H231647   0.136   2.343   1.297  1.7996  0.5161 -1.4881
 3386TIP3   OH231648   0.570   2.879   0.028  0.0571 -0.3557  0.5770
 3386TIP3    H131649   0.522   2.801   0.054  0.8747 -1.0548 -0.0136
 3386TIP3    H231650   0.633   2.894   0.099  0.6430 -0.8677  0.1687
 3387TIP3   OH231651   3.588   0.574   0.917 -0.1117 -0.1587 -0.0820
 3387TIP3    H131652   3.663   0.524   0.885  0.3749  1.5572 -1.7265
 3387TIP3    H231653   3.626   0.653   0.956 -0.9835  0.1595  0.1419
 3388TIP3   OH231654   1.458   4.627  12.258  0.1048 -0.1740 -0.6373
 3388TIP3    H131655   1.541   4.654  12.219 -0.2397 -1.0960 -2.0806
 3388TIP3    H231656   1.398   4.699  12.237  0.2872  0.0096 -0.5279
 3389TIP3   OH231657   5.432   6.410   2.496 -0.1848 -0.6959 -0.3989
 3389TIP3    H131658   5.465   6.499   2.489 -0.2206 -0.5554  1.1416
 3389TIP3    H231659   5.506   6.359   2.530 -0.6384 -0.9486  0.2169
 3390TIP3   OH231660   4.560   2.808   3.004 -0.6992 -0.4308 -0.0167
 3390TIP3    H131661   4.550   2.732   2.948  2.0493 -0.9950  0.2045
 3390TIP3    H231662   4.542   2.776   3.092  1.3596 -1.0826  0.1926
 3391TIP3   OH231663   5.874   2.059  12.021  0.0819  0.2152  0.3219
 3391TIP3    H131664   5.937   2.063  11.949  2.0743  0.5515  2.0149
 3391TIP3    H231665   5.845   2.149  12.031 -1.3153 -0.0677 -0.9749
 3392TIP3   OH231666   5.456   2.807   2.162  0.3925 -0.1587 -0.0419
 3392TIP3    H131667   5.492   2.894   2.144 -1.2887  0.7129  0.6867
 3392TIP3    H231668   5.400   2.788   2.087  0.2168 -0.3183  0.1283
 3393TIP3   OH231669   0.661   6.078  15.210 -0.2176 -0.4169  0.5311
 3393TIP3    H131670   0.638   6.143  15.143  1.1056 -0.7527 -0.2801
 3393TIP3    H231671   0.746   6.043  15.181  0.6254 -0.2216  2.6443
 3394TIP3   OH231672   2.192   5.225  12.071  0.1322 -0.1544 -0.2946
 3394TIP3    H131673   2.152   5.299  12.116  1.3564 -0.2807  1.0584
 3394TIP3    H231674   2.130   5.153  12.084 -0.5539  0.3565 -0.7003
 3395TIP3   OH231675   4.755   1.087   4.028 -0.2771 -0.4245  0.5786
 3395TIP3    H131676   4.837   1.121   4.065 -0.5616 -0.7119  1.4929
 3395TIP3    H231677   4.784   1.031   3.955  0.3928 -1.0797  1.3259
 3396TIP3   OH231678   5.754   4.634  16.769 -0.0615  0.1704 -0.3021
 3396TIP3    H131679   5.701   4.556  16.787 -1.8452  0.7206 -2.8979
 3396TIP3    H231680   5.788   4.621  16.681  1.8871  1.1164  0.2737
 3397TIP3   OH231681   3.648   6.609  11.104  0.3010 -0.2090 -0.3311
 3397TIP3    H131682   3.710   6.537  11.117 -0.3214 -0.5787  0.5888
 3397TIP3    H231683   3.589   6.577  11.036  0.1003 -0.5195 -0.0127
 3398TIP3   OH231684   4.195   3.352  16.248  0.3860 -0.2475 -0.2815
 3398TIP3    H131685   4.171   3.259  16.246  0.4406 -0.2811  0.5624
 3398TIP3    H231686   4.196   3.374  16.341  0.7020  0.5157 -0.4691
 3399TIP3   OH231687   3.896   0.153   2.680  0.3289 -0.4959 -0.7455
 3399TIP3    H131688   3.872   0.061   2.694 -0.9852 -0.0295  0.2424
 3399TIP3    H231689   3.869   0.171   2.590  0.1491 -0.9543 -0.7863
 3400TIP3   OH231690   4.333   0.715  10.602 -0.0345 -0.6084 -0.5537
 3400TIP3    H131691   4.278   0.655  10.653  0.1657  0.6707  1.2030
 3400TIP3    H231692   4.271   0.768  10.551 -0.4646  0.8885  1.4837
 3401TIP3   OH231693   2.234   6.766   5.086 -0.1988 -0.0565  0.3724
 3401TIP3    H131694   2.197   6.848   5.120  1.1078  0.3176  0.9527
 3401TIP3    H231695   2.326   6.787   5.070 -0.6923 -0.3037 -3.1846
 3402TIP3   OH231696   5.088   3.345  13.059 -0.1510  0.2675 -0.3999
 3402TIP3    H131697   5.096   3.417  13.122 -0.3520 -0.1809  0.1408
 3402TIP3    H231698   4.994   3.340  13.040  0.0685  1.3528 -1.8612
 3403TIP3   OH231699   3.384   4.251   1.701 -0.4469 -0.2397  0.0081
 3403TIP3    H131700   3.298   4.294   1.698 -1.1011 -1.4933  0.2879
 3403TIP3    H231701   3.417   4.271   1.789 -1.2061 -1.1479  0.5154
 3404TIP3   OH231702   2.149   1.391  16.050  0.5125  0.4771 -0.0983
 3404TIP3    H131703   2.219   1.329  16.068 -1.4310 -1.1909  2.0978
 3404TIP3    H231704   2.193   1.474  16.033  3.1308 -1.2569 -2.1298
 3405TIP3   OH231705   2.889   6.361  14.358  0.1929 -0.8056  0.4814
 3405TIP3    H131706   2.829   6.416  14.406  0.0828  1.0383 -1.6675
 3405TIP3    H231707   2.834   6.293  14.319 -0.2519 -0.2285  0.0816
 3406TIP3   OH231708   6.788   6.475  10.841  0.2464  0.0060 -0.0016
 3406TIP3    H131709   6.810   6.563  10.871  0.8977 -0.6527  1.5132
 3406TIP3    H231710   6.860   6.420  10.871 -0.4063 -1.1374 -0.4688
 3407TIP3   OH231711   1.451   1.999  15.363  0.2983  0.5506 -0.1166
 3407TIP3    H131712   1.520   1.952  15.409 -0.1263 -1.2184 -1.2152
 3407TIP3    H231713   1.441   2.081  15.411  1.8515  0.0118  1.1728
 3408TIP3   OH231714   2.083   0.490  12.554  0.2759 -0.2690 -0.0783
 3408TIP3    H131715   2.038   0.490  12.638 -0.1738  0.3924 -0.3083
 3408TIP3    H231716   2.129   0.406  12.550  0.2295 -0.3324  0.7859
 3409TIP3   OH231717   3.800   3.793   6.977 -0.2724 -0.2868  0.0736
 3409TIP3    H131718   3.833   3.739   6.905 -0.3716 -0.9538  0.5252
 3409TIP3    H231719   3.740   3.736   7.025  0.6287 -0.2119  1.3346
 3410TIP3   OH231720   1.266   0.901  15.158 -0.0567 -0.0574 -0.0936
 3410TIP3    H131721   1.227   0.965  15.217  0.4098  0.8198 -0.7008
 3410TIP3    H231722   1.209   0.901  15.081 -0.3442 -0.7651  0.1148
 3411TIP3   OH231723   2.611   0.703   4.511  0.5528 -0.1959 -0.1828
 3411TIP3    H131724   2.656   0.659   4.583  0.0789 -1.6610 -0.7666
 3411TIP3    H231725   2.558   0.770   4.553  2.2391  0.6486  0.6184
 3412TIP3   OH231726   1.158   1.938   5.755  0.0304  0.0410  0.3819
 3412TIP3    H131727   1.129   2.005   5.817 -0.4618  0.4592 -0.2974
 3412TIP3    H231728   1.113   1.859   5.783 -0.0027  0.1730  0.7077
 3413TIP3   OH231729   5.002   3.347   3.203 -0.1499  0.0469 -0.2270
 3413TIP3    H131730   4.940   3.274   3.210 -0.1656  0.1671  0.9510
 3413TIP3    H231731   5.002   3.370   3.110 -2.2227  0.3615 -0.1527
 3414TIP3   OH231732   5.743   3.164  14.014  0.5266 -0.5870 -0.0865
 3414TIP3    H131733   5.713   3.138  13.926 -0.7454  0.2919  0.0705
 3414TIP3    H231734   5.818   3.107  14.031  3.2141  1.7774 -3.2740
 3415TIP3   OH231735   4.798   0.160  16.970  0.1463 -0.0010  0.0986
 3415TIP3    H131736   4.822   0.252  16.958  0.1443  0.1277  1.0669
 3415TIP3    H231737   4.870   0.111  16.930  1.8827  0.3846  2.6221
 3416TIP3   OH231738   3.797   0.765   5.174  0.6232  0.9442 -0.1564
 3416TIP3    H131739   3.888   0.794   5.171  1.2687 -0.8942  0.5112
 3416TIP3    H231740   3.774   0.748   5.082  1.5036 -0.1386 -0.1923
 3417TIP3   OH231741   6.304   3.889  11.170 -0.4068  0.0067  0.7655
 3417TIP3    H131742   6.360   3.812  11.174 -2.5818 -1.7276 -1.0442
 3417TIP3    H231743   6.308   3.926  11.258  2.4501 -0.8487  1.0418
 3418TIP3   OH231744   4.128   5.283  14.337 -0.0263 -0.2478 -0.2086
 3418TIP3    H131745   4.170   5.210  14.291  1.4725 -0.4380  1.4058
 3418TIP3    H231746   4.093   5.338  14.267  0.9739 -1.2507 -1.5352
 3419TIP3   OH231747   6.401   4.273  14.435  0.5428  0.4304  0.5355
 3419TIP3    H131748   6.307   4.258  14.427  0.2962  1.5322  1.1537
 3419TIP3    H231749   6.430   4.292  14.346 -0.1271  1.6406  0.5576
 3420TIP3   OH231750   1.477   1.621   5.275 -0.3771  0.1522 -0.5973
 3420TIP3    H131751   1.509   1.588   5.191 -0.5287  0.9758 -0.9788
 3420TIP3    H231752   1.445   1.709   5.256 -0.6806  0.2325  0.2661
 3421TIP3   OH231753   1.392   2.965   0.942  0.3102 -0.0307 -0.3483
 3421TIP3    H131754   1.387   2.879   0.984 -0.8738  2.1775  4.4098
 3421TIP3    H231755   1.305   2.979   0.906  0.1413 -0.3531 -0.0702
 3422TIP3   OH231756   4.675   5.685   0.802 -0.4953  0.2252  0.1487
 3422TIP3    H131757   4.662   5.762   0.748  1.7360  0.1613 -0.4996
 3422TIP3    H231758   4.760   5.650   0.776 -0.1422 -0.7851  2.4840
 3423TIP3   OH231759   3.797   3.072   2.066  0.0777 -0.0857  0.4416
 3423TIP3    H131760   3.737   3.129   2.115 -0.5348 -1.0667  0.8478
 3423TIP3    H231761   3.766   3.078   1.975 -1.3305 -1.4017  0.8011
 3424TIP3   OH231762   0.415   0.335   3.353  0.0055  0.2976  0.2381
 3424TIP3    H131763   0.435   0.361   3.263 -1.0303  0.3989  0.0274
 3424TIP3    H231764   0.443   0.244   3.359  0.6463  0.4783 -0.0030
 3425TIP3   OH231765   6.252   3.085  12.238 -0.6307  0.4938 -0.3974
 3425TIP3    H131766   6.234   3.155  12.175 -0.5837  0.0733 -0.8839
 3425TIP3    H231767   6.167   3.042  12.250 -0.3288 -0.4427 -1.4206
 3426TIP3   OH231768   3.525   3.392   6.413 -0.2838 -0.2277 -0.5984
 3426TIP3    H131769   3.475   3.455   6.360  2.8967  0.3819 -3.0079
 3426TIP3    H231770   3.480   3.391   6.497 -2.0423  3.2287 -1.3864
 3427TIP3   OH231771   5.456   1.220  12.398 -0.7977  0.4139  0.2087
 3427TIP3    H131772   5.451   1.140  12.346  0.5136  1.3878 -1.4634
 3427TIP3    H231773   5.377   1.268  12.375 -0.7945  0.3229  0.0075
 3428TIP3   OH231774   2.726   2.615   4.696  0.3657  0.4520 -0.4230
 3428TIP3    H131775   2.723   2.520   4.687 -1.2793  0.4992 -0.6223
 3428TIP3    H231776   2.650   2.646   4.646  1.1085  1.9008 -0.6953
 3429TIP3   OH231777   1.839   2.216  13.724 -0.2732  0.1836  0.0428
 3429TIP3    H131778   1.761   2.174  13.687 -0.2863  2.4828 -2.8125
 3429TIP3    H231779   1.806   2.271  13.795 -1.0258 -0.2096 -0.0010
 3430TIP3   OH231780   5.875   0.798   0.423 -0.4571  0.1419 -0.1784
 3430TIP3    H131781   5.925   0.788   0.504  1.6691 -0.7490 -1.5640
 3430TIP3    H231782   5.786   0.771   0.446 -0.4172  1.9604  2.3817
 3431TIP3   OH231783   5.492   0.440  12.037  0.0660  0.0685  0.6162
 3431TIP3    H131784   5.530   0.384  11.970 -0.7744 -0.8065  0.8567
 3431TIP3    H231785   5.398   0.441  12.018 -0.2197 -0.4037  1.9250
 3432TIP3   OH231786   5.628   4.934  16.525  0.2367 -0.3761  0.3745
 3432TIP3    H131787   5.612   4.908  16.615 -1.3127  0.8641  0.4745
 3432TIP3    H231788   5.692   5.005  16.531  1.5631 -1.5518  0.3585
 3433TIP3   OH231789   0.863   3.642   5.400 -0.2922 -0.1511  0.1055
 3433TIP3    H131790   0.937   3.697   5.376 -1.3454  1.3507  0.2448
 3433TIP3    H231791   0.903   3.560   5.429  1.2441  0.1704 -1.0493
 3434TIP3   OH231792   3.925   2.588  13.964  0.3095 -0.3957 -0.0043
 3434TIP3    H131793   3.829   2.586  13.964  0.2418  1.4740 -0.0476
 3434TIP3    H231794   3.948   2.637  14.043  1.2357 -0.7998 -0.0142
 3435TIP3   OH231795   1.213   4.515   2.959 -0.3374  0.0730 -0.1786
 3435TIP3    H131796   1.298   4.493   2.997 -1.7312 -0.3372  2.8694
 3435TIP3    H231797   1.220   4.608   2.938  1.2430 -0.2232 -1.0425
 3436TIP3   OH231798   3.175   0.704   1.317  0.0053  0.6961  0.7562
 3436TIP3    H131799   3.242   0.773   1.311  0.4107  0.3267  1.0702
 3436TIP3    H231800   3.094   0.752   1.335  0.2584  1.1062  0.8175
 3437TIP3   OH231801   5.752   2.860  11.484  0.5137 -0.4029 -0.6506
 3437TIP3    H131802   5.786   2.861  11.574  0.6534 -1.0263 -0.6950
 3437TIP3    H231803   5.680   2.797  11.487 -0.4496  0.6827 -0.6303
 3438TIP3   OH231804   6.571   2.593   1.663 -0.8862  0.1635  0.5209
 3438TIP3    H131805   6.582   2.498   1.667  1.7519  0.4865  1.7112
 3438TIP3    H231806   6.510   2.613   1.734  1.1275 -0.3271  2.4493
 3439TIP3   OH231807   5.705   4.049   1.643 -0.2397  0.1480 -0.3154
 3439TIP3    H131808   5.758   4.028   1.566 -0.3438 -0.1050 -0.3194
 3439TIP3    H231809   5.762   4.104   1.697  0.0479 -0.1651 -0.2958
 3440TIP3   OH231810   5.150   0.314  17.267 -0.4138 -0.0808  0.4453
 3440TIP3    H131811   5.243   0.295  17.277 -0.3657 -0.3883 -0.6381
 3440TIP3    H231812   5.147   0.397  17.219 -0.7179 -0.5137 -0.2757
 3441TIP3   OH231813   5.933   2.209  13.624 -0.0030  0.1303  0.6589
 3441TIP3    H131814   5.953   2.301  13.642 -0.0618  0.0611  1.0929
 3441TIP3    H231815   5.995   2.161  13.679  0.4635 -0.0896 -0.0574
 3442TIP3   OH231816   4.652   2.873   0.661  0.1676 -0.3436 -0.2580
 3442TIP3    H131817   4.597   2.949   0.680  0.8511  0.2106 -0.5054
 3442TIP3    H231818   4.734   2.909   0.629  0.6064 -1.1774 -0.1044
 3443TIP3   OH231819   5.464   2.854   5.040 -0.2589  0.1894  0.6102
 3443TIP3    H131820   5.464   2.777   4.983  0.0912  0.8284 -0.2720
 3443TIP3    H231821   5.548   2.896   5.021 -0.6099  0.9770  0.8273
 3444TIP3   OH231822   3.007   6.633   7.010  0.4797  0.0174 -0.2251
 3444TIP3    H131823   2.947   6.580   7.062  0.1329  0.2055 -0.4250
 3444TIP3    H231824   3.013   6.587   6.926  2.8534 -1.5305  0.7596
 3445TIP3   OH231825   3.471   3.347   3.838  0.2025  0.5260 -0.5554
 3445TIP3    H131826   3.530   3.273   3.826 -1.6654 -0.9197 -0.9257
 3445TIP3    H231827   3.383   3.310   3.834 -0.8033  2.9067 -1.9068
 3446TIP3   OH231828   6.122   5.767  12.515  0.5710  0.4984 -0.2274
 3446TIP3    H131829   6.101   5.861  12.521 -1.8425 -0.1524  2.1017
 3446TIP3    H231830   6.047   5.729  12.469 -1.4814 -1.1673  4.2117
 3447TIP3   OH231831   6.519   3.141  10.947 -0.2430  0.3861 -0.1513
 3447TIP3    H131832   6.568   3.218  10.918 -0.4432  0.1359 -1.1786
 3447TIP3    H231833   6.570   3.106  11.019  0.4788  0.8064 -0.4525
 3448TIP3   OH231834   5.455   6.403  14.670 -0.7556 -0.6440  0.2150
 3448TIP3    H131835   5.506   6.374  14.746 -0.6084  1.4391  0.9577
 3448TIP3    H231836   5.457   6.499  14.676  0.7308 -0.3801 -3.4008
 3449TIP3   OH231837   1.309   0.351   6.170  0.0478  0.0381 -0.0664
 3449TIP3    H131838   1.332   0.266   6.208 -0.3726  0.1809  0.5194
 3449TIP3    H231839   1.316   0.413   6.243 -0.7524  0.3192 -0.2156
 3450TIP3   OH231840   0.714   3.471   3.281 -0.5538 -0.3240  0.4809
 3450TIP3    H131841   0.803   3.478   3.245  1.0495  0.3632  4.3317
 3450TIP3    H231842   0.714   3.387   3.327 -1.5489  0.1425  1.3469
 3451TIP3   OH231843   5.039   1.888   1.383  0.8594  0.0045  0.0049
 3451TIP3    H131844   4.955   1.890   1.336  0.6844  1.9531  0.3598
 3451TIP3    H231845   5.105   1.889   1.315  0.5959  0.0900 -0.2500
 3452TIP3   OH231846   1.449   4.667   2.795  0.1760  0.4923 -0.5153
 3452TIP3    H131847   1.472   4.575   2.782 -1.1546 -0.1220  1.2086
 3452TIP3    H231848   1.446   4.704   2.707  0.8861 -1.0713 -1.2142
 3453TIP3   OH231849   0.224   6.528  12.208  0.4717 -1.0188 -0.1355
 3453TIP3    H131850   0.192   6.509  12.120  1.3206 -0.6134 -0.5418
 3453TIP3    H231851   0.315   6.498  12.207  0.4858 -1.0182  0.6121
 3454TIP3   OH231852   0.175   2.029   2.370 -0.2038 -0.9009  0.1179
 3454TIP3    H131853   0.187   2.122   2.350 -1.3097 -0.6240  0.6566
 3454TIP3    H231854   0.093   2.006   2.325 -1.4243 -0.8937  2.2645
 3455TIP3   OH231855   6.663   0.008  12.828 -0.4715  0.6500 -0.1277
 3455TIP3    H131856   6.646  -0.085  12.812 -2.1154  0.8025  0.6429
 3455TIP3    H231857   6.635   0.051  12.747 -0.7445  0.5861 -0.0660
 3456TIP3   OH231858   1.135   0.357   0.790  0.2714  0.2840  0.3414
 3456TIP3    H131859   1.205   0.300   0.823  0.6941  1.5027  1.5921
 3456TIP3    H231860   1.174   0.445   0.788 -0.5015  0.6232 -1.1635
 3457TIP3   OH231861   5.097   0.324   3.812 -0.0295 -0.6743  0.0574
 3457TIP3    H131862   5.148   0.323   3.731  0.3275 -0.6746  0.2817
 3457TIP3    H231863   5.040   0.247   3.805 -0.0108 -0.6676 -0.1973
 3458TIP3   OH231864   3.875   4.182   3.657 -0.5695 -0.2112  0.0393
 3458TIP3    H131865   3.844   4.272   3.643 -1.5667 -0.8167 -1.7705
 3458TIP3    H231866   3.857   4.137   3.575 -0.0759 -2.0852  0.9249
 3459TIP3   OH231867   6.688   6.365  15.030 -0.3494  0.5931  0.3481
 3459TIP3    H131868   6.713   6.321  14.948  0.4212  0.0381  0.8724
 3459TIP3    H231869   6.772   6.391  15.069 -0.7264  1.0772  0.8433
 3460TIP3   OH231870   6.395   5.993  11.372  0.1551  0.5071 -0.6984
 3460TIP3    H131871   6.471   6.024  11.323  1.1846  0.7925  1.0346
 3460TIP3    H231872   6.430   5.924  11.428 -1.3332 -1.0157 -1.5870
 3461TIP3   OH231873   2.965   2.452   1.642  0.2632  0.1402 -0.1346
 3461TIP3    H131874   2.875   2.483   1.655  0.9540  0.2299  5.4240
 3461TIP3    H231875   3.018   2.532   1.644  0.9661 -0.3702  2.4520
 3462TIP3   OH231876   4.547   2.614   0.564  0.0772  0.2043  0.0898
 3462TIP3    H131877   4.595   2.688   0.603 -0.4543 -0.2707  1.6991
 3462TIP3    H231878   4.579   2.609   0.474  0.3510  2.2030  0.0465
 3463TIP3   OH231879   2.839   0.070   4.872 -0.2146  0.4060 -0.0976
 3463TIP3    H131880   2.843   0.110   4.785 -0.7755  0.3381 -0.1596
 3463TIP3    H231881   2.788  -0.010   4.859 -0.1981  0.3358  0.2708
 3464TIP3   OH231882   2.872   6.395  14.001 -0.2825 -0.2123 -0.8966
 3464TIP3    H131883   2.821   6.461  14.048 -1.7114 -1.9402  0.0037
 3464TIP3    H231884   2.868   6.317  14.055  0.2286 -1.4841 -2.6235
 3465TIP3   OH231885   6.307   6.142  12.643  0.3241  0.3390 -0.1349
 3465TIP3    H131886   6.311   6.069  12.704  2.2966  0.2878 -0.3014
 3465TIP3    H231887   6.378   6.127  12.582  0.4869  2.1649 -0.4344
 3466TIP3   OH231888   6.636   5.059  14.251  0.2192 -0.1149 -0.3538
 3466TIP3    H131889   6.629   5.073  14.156 -2.3736 -2.9314 -0.6630
 3466TIP3    H231890   6.632   5.147  14.289  1.1267  1.0415 -2.8180
 3467TIP3   OH231891   0.451   1.709  12.720 -0.0784  0.3613  0.1790
 3467TIP3    H131892   0.441   1.799  12.749 -0.7926  0.1083  0.7289
 3467TIP3    H231893   0.542   1.703  12.692 -0.1766  1.3975 -0.3756
 3468TIP3   OH231894   6.496   1.161  11.433 -0.6396  0.3465  0.2501
 3468TIP3    H131895   6.531   1.242  11.396 -0.2413 -0.2412 -0.6468
 3468TIP3    H231896   6.431   1.131  11.370  1.2832 -1.5831 -0.8488
 3469TIP3   OH231897   3.796   0.332  16.678 -0.3550 -0.2036  0.9779
 3469TIP3    H131898   3.824   0.252  16.722 -1.1410 -0.5986  0.7740
 3469TIP3    H231899   3.823   0.402  16.736  2.2742 -0.4838  0.1455
 3470TIP3   OH231900   6.534   5.209  13.787  0.1456  0.4705  0.1399
 3470TIP3    H131901   6.557   5.300  13.810  1.0633  0.3010 -0.0833
 3470TIP3    H231902   6.469   5.217  13.718 -0.3464  0.9709  0.6622
 3471TIP3   OH231903   5.630   1.543  15.934  0.4129 -0.0617  0.0299
 3471TIP3    H131904   5.684   1.522  16.011  3.1434 -3.0656 -2.5499
 3471TIP3    H231905   5.667   1.624  15.900 -0.4911  1.0128  1.5553
 3472TIP3   OH231906   6.143   3.833   1.187 -0.6284 -0.0059 -0.0502
 3472TIP3    H131907   6.103   3.766   1.131 -0.0805 -0.3830  0.0083
 3472TIP3    H231908   6.204   3.785   1.243  0.4956  0.6710 -0.6848
 3473TIP3   OH231909   3.187   0.523  13.694 -0.8303 -0.3205 -0.9510
 3473TIP3    H131910   3.206   0.431  13.673 -2.5299 -0.7504 -0.6532
 3473TIP3    H231911   3.101   0.539  13.657 -1.2918  0.6556  0.5090
 3474TIP3   OH231912   1.733   2.358   1.906  0.3438  0.3041 -0.1572
 3474TIP3    H131913   1.715   2.349   2.000  0.4066  0.1708 -0.1582
 3474TIP3    H231914   1.788   2.436   1.900 -0.3289  0.7852 -0.1641
 3475TIP3   OH231915   2.085   0.820   4.374 -0.5122 -0.3216 -0.0986
 3475TIP3    H131916   2.053   0.910   4.379  1.1275  0.2863 -0.5386
 3475TIP3    H231917   2.050   0.787   4.291 -1.4762 -0.2543  0.2638
 3476TIP3   OH231918   5.505   4.537  13.186  0.0180  0.1680 -0.6624
 3476TIP3    H131919   5.441   4.525  13.257 -0.8207  3.6845 -0.7379
 3476TIP3    H231920   5.590   4.530  13.230 -0.4839  1.0395  0.4755
 3477TIP3   OH231921   2.927   6.549  12.551 -0.5425 -0.5287 -0.2345
 3477TIP3    H131922   3.016   6.528  12.522  0.2663 -0.6396  2.2251
 3477TIP3    H231923   2.906   6.631  12.507  0.5146 -0.8495 -1.3567
 3478TIP3   OH231924   6.265   4.110   3.629  0.3890  0.0839  0.0299
 3478TIP3    H131925   6.282   4.033   3.683  0.1184 -0.8342 -1.1830
 3478TIP3    H231926   6.170   4.122   3.633  0.0475 -1.6142 -2.4237
 3479TIP3   OH231927   4.419   3.576  14.918  0.1528 -0.2935 -0.1106
 3479TIP3    H131928   4.356   3.505  14.909  0.3485 -0.4407 -0.3055
 3479TIP3    H231929   4.476   3.568  14.842  0.4293 -0.1827  0.0818
 3480TIP3   OH231930   5.600   2.760  15.406  0.6657 -0.3620  0.3997
 3480TIP3    H131931   5.619   2.685  15.350 -0.4498  1.9267 -3.2361
 3480TIP3    H231932   5.542   2.726  15.473  0.4964 -2.8310 -0.9498
 3481TIP3   OH231933   5.285   5.977   2.420 -0.5785  0.1927  0.6538
 3481TIP3    H131934   5.251   6.036   2.352 -1.9614 -0.2911  0.9316
 3481TIP3    H231935   5.300   6.034   2.496 -3.4423 -0.0689  1.4508
 3482TIP3   OH231936   1.943   2.545   1.881 -0.4044 -0.2909 -0.4683
 3482TIP3    H131937   1.955   2.620   1.822 -0.5156 -0.8474 -1.1999
 3482TIP3    H231938   2.024   2.494   1.870 -0.5129 -0.4981 -0.2907
 3483TIP3   OH231939   1.987   3.730   3.909  0.1172 -0.7510 -0.1178
 3483TIP3    H131940   1.902   3.687   3.905 -0.9958  1.2406  1.5235
 3483TIP3    H231941   1.981   3.802   3.846  0.4289 -0.3492  0.3059
 3484TIP3   OH231942   0.595   3.388  13.034  0.0516 -0.5042  0.0315
 3484TIP3    H131943   0.512   3.349  13.060  0.5493 -1.7013 -0.1375
 3484TIP3    H231944   0.580   3.422  12.946 -0.5887  0.3100  0.4554
 3485TIP3   OH231945   6.702   4.497  12.834  0.5723  0.5206  0.5823
 3485TIP3    H131946   6.681   4.574  12.887  0.0825  1.2511 -0.6543
 3485TIP3    H231947   6.670   4.423  12.885  0.0174  1.2236  1.2548
 3486TIP3   OH231948   2.924   2.040   3.714  0.3781 -0.0162  0.1377
 3486TIP3    H131949   3.018   2.048   3.696  0.6774  0.7846  2.0176
 3486TIP3    H231950   2.882   2.093   3.646  1.2080 -1.3306 -1.4392
 3487TIP3   OH231951   4.222   1.989   0.788  0.0802 -0.0587 -0.2900
 3487TIP3    H131952   4.205   1.898   0.814 -0.6561  0.9983  3.2972
 3487TIP3    H231953   4.286   2.020   0.852 -1.9876  2.8211  0.4571
 3488TIP3   OH231954   0.027   0.675  13.194  0.0346  0.2471  0.1982
 3488TIP3    H131955   0.016   0.754  13.247 -0.3893  0.6669 -0.5094
 3488TIP3    H231956   0.066   0.611  13.254 -1.6247  0.3156  1.3632
 3489TIP3   OH231957   2.900   3.375  14.463  0.4166  0.2813  0.3024
 3489TIP3    H131958   2.860   3.293  14.495 -0.3668  0.4622 -0.2020
 3489TIP3    H231959   2.927   3.356  14.374 -1.4070  1.1108 -0.4458
 3490TIP3   OH231960   5.839   0.406  10.606 -0.4664  0.3506  0.0631
 3490TIP3    H131961   5.903   0.345  10.642 -0.8019  0.1407  0.3110
 3490TIP3    H231962   5.768   0.351  10.573 -1.1190  0.6212  0.9673
 3491TIP3   OH231963   1.380   3.748  16.022 -0.1037 -0.2853  0.1913
 3491TIP3    H131964   1.410   3.658  16.007  0.1574 -0.3744  1.2120
 3491TIP3    H231965   1.456   3.802  15.999 -0.4538 -0.2766 -1.0027
 3492TIP3   OH231966   0.567   3.607   3.709 -0.1671  0.0287 -0.2761
 3492TIP3    H131967   0.485   3.563   3.685 -1.2130  2.5173 -1.4090
 3492TIP3    H231968   0.571   3.683   3.652  3.0077 -0.0645 -0.2668
 3493TIP3   OH231969   1.465   3.828   4.527 -0.6263 -0.2710 -0.2365
 3493TIP3    H131970   1.553   3.845   4.560 -1.3699  1.1745  1.0598
 3493TIP3    H231971   1.468   3.738   4.497  1.3439 -0.1903 -0.3496
 3494TIP3   OH231972   6.750   1.450   3.680  0.2984 -0.2646  0.5215
 3494TIP3    H131973   6.738   1.479   3.770 -0.8559  0.5568  0.1152
 3494TIP3    H231974   6.698   1.370   3.674  2.3267 -1.6669  1.2430
 3495TIP3   OH231975   2.037   5.838   3.224 -0.4106  0.4053 -0.0850
 3495TIP3    H131976   2.043   5.743   3.231 -0.1815  0.4334  0.1150
 3495TIP3    H231977   2.128   5.868   3.223 -0.4314  0.4987 -1.8340
 3496TIP3   OH231978   4.099   5.053  15.611 -1.0104  0.1914  0.4451
 3496TIP3    H131979   4.071   5.048  15.703  0.2136 -2.4033  0.7386
 3496TIP3    H231980   4.186   5.093  15.615 -0.0175 -1.9097  0.6849
 3497TIP3   OH231981   6.109   2.959  12.478 -0.0486 -0.2113  0.2219
 3497TIP3    H131982   6.201   2.956  12.504 -0.4236 -3.3052  1.3504
 3497TIP3    H231983   6.081   3.048  12.499  2.7354  0.8353 -0.3845
 3498TIP3   OH231984   1.815   5.361  14.270 -0.0330 -0.2512 -0.0455
 3498TIP3    H131985   1.736   5.329  14.226 -0.0574 -1.2453  0.7180
 3498TIP3    H231986   1.877   5.375  14.199 -1.2622  1.6692 -0.7926
 3499TIP3   OH231987   3.023   0.080   0.502 -0.4288  0.0671  0.1002
 3499TIP3    H131988   3.040   0.121   0.417 -1.3199  0.4590  0.1037
 3499TIP3    H231989   3.101   0.027   0.519  0.1112  0.6314 -0.5748
 3500TIP3   OH231990   5.794   3.740  16.920  0.0821  0.0227  0.5156
 3500TIP3    H131991   5.841   3.787  16.851 -1.0724  0.5336  0.0530
 3500TIP3    H231992   5.806   3.795  16.998 -0.2333  0.4467  0.2661
 3501TIP3   OH231993   1.649   4.521   1.670  0.0190 -0.1134  0.7137
 3501TIP3    H131994   1.601   4.582   1.726 -0.8229  0.1956 -0.3451
 3501TIP3    H231995   1.671   4.448   1.728 -3.1189 -1.0142  0.8479
 3502TIP3   OH231996   1.828   1.145   5.388 -0.3841  0.0878 -0.3771
 3502TIP3    H131997   1.823   1.231   5.345  0.9465 -0.2046 -1.1166
 3502TIP3    H231998   1.907   1.149   5.442  0.0016 -0.8690 -0.8578
 3503TIP3   OH231999   1.384   4.909   2.952  0.5260  0.6465 -0.8956
 3503TIP3    H132000   1.329   4.852   2.898  0.4437  0.0908 -0.2353
 3503TIP3    H232001   1.472   4.874   2.942  0.6336  1.0187 -1.2795
 3504TIP3   OH232002   3.543   4.164   3.002  0.1464 -0.1271 -0.0818
 3504TIP3    H132003   3.552   4.082   3.049  0.0002 -1.2778 -2.0152
 3504TIP3    H232004   3.457   4.198   3.028 -0.3250 -1.2039 -0.2359
 3505TIP3   OH232005   0.904   0.728  14.757  0.1877 -0.2196 -0.3961
 3505TIP3    H132006   0.948   0.715  14.841  0.1926 -0.4982 -0.4418
 3505TIP3    H232007   0.937   0.812  14.726 -0.4959  0.3089  0.2948
 3506TIP3   OH232008   6.700   5.013   2.300 -0.0055  0.3094 -0.4109
 3506TIP3    H132009   6.694   4.988   2.208 -3.3815  1.8331 -0.6963
 3506TIP3    H232010   6.762   5.085   2.301  1.2091 -0.6965 -1.2425
 3507TIP3   OH232011   1.394   2.880   0.002  0.5302 -0.2535 -0.3540
 3507TIP3    H132012   1.301   2.896  -0.014  0.4657  0.1114  0.3695
 3507TIP3    H232013   1.422   2.954   0.055  1.6926  0.6196 -2.1653
 3508TIP3   OH232014   1.859   3.953   2.351  0.8600 -0.4477  0.2317
 3508TIP3    H132015   1.841   3.897   2.275 -4.3679  1.3025 -0.0591
 3508TIP3    H232016   1.919   4.020   2.319 -0.0854 -0.6210 -1.9890
 3509TIP3   OH232017   2.216   4.489   0.971  0.1831  0.5122 -0.7901
 3509TIP3    H132018   2.303   4.456   0.992  0.5300  2.9296  1.9381
 3509TIP3    H232019   2.229   4.541   0.892  0.7216 -1.0860 -1.7720
 3510TIP3   OH232020   4.021   2.484   2.655 -0.0152  0.7161 -0.2690
 3510TIP3    H132021   4.000   2.516   2.567 -0.3167  1.0177 -0.0875
 3510TIP3    H232022   4.007   2.559   2.712 -0.8071  0.2305  0.1755
 3511TIP3   OH232023   3.223   5.201   2.830 -0.5995 -0.5483  0.4472
 3511TIP3    H132024   3.166   5.278   2.825  1.2252  0.7698 -1.0727
 3511TIP3    H232025   3.282   5.219   2.903 -0.7849 -0.9398  0.6939
 3512TIP3   OH232026   6.570   4.891  15.242 -0.8882  0.4364  0.1701
 3512TIP3    H132027   6.658   4.889  15.278 -0.7837  0.0844 -0.1065
 3512TIP3    H232028   6.519   4.833  15.299 -0.4379 -1.1270 -0.9955
 3513TIP3   OH232029   0.957   6.111  13.086 -0.3813 -0.0446 -0.1082
 3513TIP3    H132030   0.917   6.155  13.161 -0.2196 -0.1362  0.0329
 3513TIP3    H232031   1.044   6.149  13.079  0.0690 -0.9382  0.5395
 3514TIP3   OH232032   5.637   3.184   2.649  0.2319  0.2173 -0.4673
 3514TIP3    H132033   5.703   3.252   2.658  0.9956 -0.7415  1.5101
 3514TIP3    H232034   5.641   3.158   2.557  0.2901  2.4544 -1.1204
 3515TIP3   OH232035   4.962   2.744  11.250  0.3749 -0.0701 -0.3659
 3515TIP3    H132036   4.873   2.774  11.230  0.5071  1.2055  0.8972
 3515TIP3    H232037   4.950   2.667  11.305  0.0315 -2.3403 -3.5130
 3516TIP3   OH232038   5.014   5.988  16.491 -0.9402  0.3465 -0.3345
 3516TIP3    H132039   5.050   6.002  16.403 -0.9351  0.0411 -0.3792
 3516TIP3    H232040   5.012   6.076  16.530 -0.3895  0.4017 -0.4232
 3517TIP3   OH232041   4.306   2.558   5.166 -0.1166 -0.0573 -0.2571
 3517TIP3    H132042   4.390   2.523   5.196 -0.5910 -1.8244 -0.9168
 3517TIP3    H232043   4.271   2.605   5.241  0.4124 -1.2731  0.7595
 3518TIP3   OH232044   1.827   0.615   1.225 -0.3754  0.0057 -0.3797
 3518TIP3    H132045   1.879   0.547   1.182  0.1113 -0.5803  1.1231
 3518TIP3    H232046   1.857   0.696   1.183  2.1179 -0.2654  0.7708
 3519TIP3   OH232047   0.588   5.077  16.666  0.3055 -0.2374 -0.3584
 3519TIP3    H132048   0.650   5.142  16.632 -0.0317  0.5526  0.5082
 3519TIP3    H232049   0.634   4.994  16.659  1.5498  0.3601  0.4346
 3520TIP3   OH232050   0.809   0.941  12.143 -0.0012  0.2055  0.0046
 3520TIP3    H132051   0.859   0.967  12.066 -0.5757 -0.2705 -0.5280
 3520TIP3    H232052   0.866   0.880  12.189 -0.7174 -1.5664 -1.4242
 3521TIP3   OH232053   4.224   3.107   1.143  0.4009  0.0057  0.3304
 3521TIP3    H132054   4.135   3.080   1.165  0.8805 -1.3887  0.5605
 3521TIP3    H232055   4.212   3.170   1.072 -0.7640 -0.2538  0.2783
 3522TIP3   OH232056   4.176   1.259   3.411  0.2495  0.5781  0.0574
 3522TIP3    H132057   4.182   1.320   3.485 -0.0064  0.1128  0.4636
 3522TIP3    H232058   4.146   1.177   3.450 -1.4743  0.7737 -0.8116
 3523TIP3   OH232059   2.550   5.985  13.985  0.2872 -0.0983 -0.1501
 3523TIP3    H132060   2.523   5.921  14.051 -0.0705  1.0129  0.7884
 3523TIP3    H232061   2.474   6.040  13.972  0.3220 -0.3883 -1.5970
 3524TIP3   OH232062   2.420   6.316  12.578  0.6234  0.2095 -0.1656
 3524TIP3    H132063   2.503   6.361  12.565  1.2402 -0.6775  0.6638
 3524TIP3    H232064   2.444   6.225  12.596 -0.5233 -0.0153  0.2922
 3525TIP3   OH232065   3.701   1.405   6.033 -0.0922  0.4061 -0.0859
 3525TIP3    H132066   3.769   1.436   6.092  2.1711 -2.3536 -1.1364
 3525TIP3    H232067   3.707   1.463   5.957  1.7011 -0.3364 -0.5319
 3526TIP3   OH232068   1.810   5.163  13.022  0.0010  0.6937 -0.3913
 3526TIP3    H132069   1.739   5.128  12.968  0.2468  1.9791 -1.5723
 3526TIP3    H232070   1.765   5.219  13.085 -0.1056  0.9282 -0.6727
 3527TIP3   OH232071   6.740   1.942  14.157  0.0240 -0.0909  0.3993
 3527TIP3    H132072   6.792   2.003  14.209  0.3323  0.5059 -0.5884
 3527TIP3    H232073   6.803   1.875  14.128  0.9846  2.2534 -3.3331
 3528TIP3   OH232074   2.669   6.526  14.422 -0.2509 -0.7377  0.2650
 3528TIP3    H132075   2.585   6.517  14.377 -0.5433  1.6847  0.3043
 3528TIP3    H232076   2.646   6.554  14.510  0.6170  0.1773  0.2006
 3529TIP3   OH232077   0.205   4.479   4.827  0.4763  0.0383  0.3837
 3529TIP3    H132078   0.191   4.476   4.732  2.1931  0.9442  0.0806
 3529TIP3    H232079   0.288   4.434   4.841 -0.5659 -1.5470  1.6636
 3530TIP3   OH232080   5.976   2.105   3.215  0.5329 -0.0445 -0.4372
 3530TIP3    H132081   6.024   2.114   3.133  0.0689 -2.1942 -0.9819
 3530TIP3    H232082   6.016   2.029   3.258  0.1060  0.4502  0.8743
 3531TIP3   OH232083   5.940   6.267   5.948 -0.1197  0.6398 -0.8357
 3531TIP3    H132084   5.874   6.325   5.986 -0.3033  1.1711 -1.9437
 3531TIP3    H232085   6.000   6.249   6.020 -0.5355  1.5342 -0.2548
 3532TIP3   OH232086   3.198   1.585   3.588 -0.5024  0.1794 -0.4556
 3532TIP3    H132087   3.291   1.570   3.603 -0.2561  1.5664 -0.5772
 3532TIP3    H232088   3.168   1.630   3.667 -1.0149 -0.0304 -0.5266
 3533TIP3   OH232089   5.133   4.306   0.062 -0.4129  0.3080 -0.1540
 3533TIP3    H132090   5.180   4.389   0.052  0.1453 -0.0370 -0.4363
 3533TIP3    H232091   5.061   4.326   0.122  0.0837  0.8552  0.2665
 3534TIP3   OH232092   4.035   1.239   4.578 -0.4143 -0.1975 -0.3925
 3534TIP3    H132093   4.076   1.155   4.594 -1.4531 -0.8463 -1.0618
 3534TIP3    H232094   3.946   1.230   4.613 -1.1679 -0.0529 -2.1962
 3535TIP3   OH232095   0.290   2.669   3.769  0.0835  0.3866  0.0883
 3535TIP3    H132096   0.250   2.744   3.813 -0.0142  0.6401 -0.4328
 3535TIP3    H232097   0.236   2.654   3.691  1.3687  1.1439 -0.9708
 3536TIP3   OH232098   1.248   5.875   5.187  0.1662  0.4093 -0.2530
 3536TIP3    H132099   1.252   5.788   5.149 -0.1809 -1.2238  3.2621
 3536TIP3    H232100   1.167   5.875   5.239  0.9680  2.2571  1.0585
 3537TIP3   OH232101   1.420   5.206   1.264  0.6293 -0.0625  0.4222
 3537TIP3    H132102   1.386   5.140   1.205  1.1146 -0.7673  0.9168
 3537TIP3    H232103   1.469   5.266   1.208  0.4592 -0.3058  0.0163
 3538TIP3   OH232104   1.640   0.398  15.455 -0.0521 -0.3485  0.1539
 3538TIP3    H132105   1.623   0.383  15.362  3.1245  1.9932 -0.8986
 3538TIP3    H232106   1.707   0.333  15.479  2.0806  1.5915 -0.3186
 3539TIP3   OH232107   0.317   5.546  12.354 -0.3604 -0.5667  0.2619
 3539TIP3    H132108   0.347   5.634  12.376 -1.0051  0.1266 -1.5096
 3539TIP3    H232109   0.272   5.557  12.270 -0.7853 -2.5186  0.2191
 3540TIP3   OH232110   1.803   1.278   4.279  0.0311  0.1121  0.2332
 3540TIP3    H132111   1.782   1.277   4.372 -1.5797 -0.7506 -0.1228
 3540TIP3    H232112   1.744   1.342   4.241  1.9133  1.7963  0.0499
 3541TIP3   OH232113   1.776   3.396  14.496  0.4216  0.1458  0.0501
 3541TIP3    H132114   1.718   3.363  14.427 -2.0258  0.4330  1.8912
 3541TIP3    H232115   1.814   3.317  14.535  1.0775 -0.0643 -1.0244
 3542TIP3   OH232116   6.551   2.607  13.106 -0.2818  0.0316  0.1071
 3542TIP3    H132117   6.458   2.584  13.101 -0.2926  0.4311 -1.9430
 3542TIP3    H232118   6.592   2.556  13.037  0.9331  0.2858  0.6309
 3543TIP3   OH232119   4.998   1.049   6.321  0.3550  0.7295 -0.4215
 3543TIP3    H132120   5.074   1.084   6.368  0.2411  0.3614  0.0401
 3543TIP3    H232121   4.927   1.110   6.340  0.3268  0.6177 -0.1691
 3544TIP3   OH232122   4.858   6.782   5.337  0.2232  0.5380 -0.0416
 3544TIP3    H132123   4.894   6.757   5.422  2.2266  1.2108 -0.6590
 3544TIP3    H232124   4.933   6.816   5.289 -1.0686  0.9978 -1.7644
 3545TIP3   OH232125   2.396   1.879  12.164  0.0366 -0.1607  0.1879
 3545TIP3    H132126   2.331   1.930  12.213  1.0690  0.5126  0.8850
 3545TIP3    H232127   2.464   1.943  12.141  0.5733 -0.8999 -0.3269
 3546TIP3   OH232128   4.930   3.105   3.494  0.6366 -0.0792 -0.7102
 3546TIP3    H132129   4.845   3.081   3.457 -0.7493  0.5522  1.8912
 3546TIP3    H232130   4.919   3.196   3.522  2.1767  0.0055 -0.3329
 3547TIP3   OH232131   2.035   4.950  13.302 -0.5606  0.2837 -0.3837
 3547TIP3    H132132   2.123   4.988  13.289 -0.4947  0.3128  0.1545
 3547TIP3    H232133   2.051   4.862  13.335 -0.7389  1.3931  2.8480
 3548TIP3   OH232134   5.965   6.807  16.558 -0.0837  0.7529 -0.0441
 3548TIP3    H132135   5.923   6.868  16.497 -0.7872  0.4524  0.1352
 3548TIP3    H232136   5.966   6.854  16.642 -3.3870 -0.5811  0.8339
 3549TIP3   OH232137   3.314   1.737  16.642 -0.2454 -0.1533 -0.1381
 3549TIP3    H132138   3.349   1.679  16.575 -0.2008  0.2426 -0.4609
 3549TIP3    H232139   3.351   1.823  16.621 -0.9001  0.1397 -0.1061
 3550TIP3   OH232140   1.126   3.899   2.748  0.3091  0.1966 -0.1981
 3550TIP3    H132141   1.050   3.855   2.785  0.3239  0.8048  0.5614
 3550TIP3    H232142   1.159   3.839   2.681  0.6008 -1.1535  1.1267
 3551TIP3   OH232143   1.060   6.673   1.260 -1.2236  0.3279  0.1417
 3551TIP3    H132144   1.022   6.659   1.174 -0.6297  1.0230 -0.2333
 3551TIP3    H232145   1.081   6.585   1.291  0.1234  0.1905 -1.1353
 3552TIP3   OH232146   3.512   1.227   3.511  0.1272 -0.2089 -0.6002
 3552TIP3    H132147   3.546   1.218   3.601 -1.3164 -0.4447 -0.0623
 3552TIP3    H232148   3.575   1.180   3.457  1.9732  1.3952  0.0490
 3553TIP3   OH232149   4.107   4.462   4.492  0.3362  0.6710  0.4778
 3553TIP3    H132150   4.092   4.507   4.575 -0.4581 -1.7549  1.7010
 3553TIP3    H232151   4.021   4.432   4.464  0.8543 -0.2376 -0.1990
 3554TIP3   OH232152   0.612   6.071  13.517 -0.9272  0.1148 -0.6823
 3554TIP3    H132153   0.617   6.163  13.540 -4.7686  0.0998  0.5792
 3554TIP3    H232154   0.607   6.025  13.601  0.1056 -1.1659 -1.3062
 3555TIP3   OH232155   4.667   4.504  13.028 -0.3214  0.0790  0.4487
 3555TIP3    H132156   4.665   4.577  12.965 -1.4266  0.7720  1.2542
 3555TIP3    H232157   4.654   4.546  13.113 -0.2455 -0.9914  0.9939
 3556TIP3   OH232158   4.426   6.099  15.393 -0.7253 -0.0529 -0.1550
 3556TIP3    H132159   4.440   6.190  15.418 -2.2061  0.5199 -1.3228
 3556TIP3    H232160   4.399   6.103  15.301 -1.6868 -1.6010  0.0404
 3557TIP3   OH232161   0.623   1.055   2.832 -0.4492 -0.4898  0.3578
 3557TIP3    H132162   0.715   1.030   2.840  0.2641  1.9315 -0.0824
 3557TIP3    H232163   0.614   1.087   2.742 -1.6972 -0.5692  0.4409
 3558TIP3   OH232164   3.773   3.159  14.191 -0.4929  0.0755 -0.2970
 3558TIP3    H132165   3.744   3.083  14.142  1.1945  0.5609 -2.1090
 3558TIP3    H232166   3.748   3.234  14.137 -1.5359  0.8176  1.1489
 3559TIP3   OH232167   5.139   6.174  11.401  1.2495 -0.1486 -0.3207
 3559TIP3    H132168   5.126   6.266  11.424  2.0666 -0.1443  0.1514
 3559TIP3    H232169   5.183   6.177  11.316  1.0188 -0.1105 -0.4386
 3560TIP3   OH232170   3.201   4.548   1.379 -0.3634 -0.1796  0.0490
 3560TIP3    H132171   3.217   4.629   1.329  2.0590 -1.0995 -0.7604
 3560TIP3    H232172   3.195   4.578   1.470  0.6568  0.9147 -0.2216
 3561TIP3   OH232173   2.285   0.064   1.419 -0.7696 -0.2551 -0.0147
 3561TIP3    H132174   2.311   0.033   1.332  0.1334 -3.1623  1.2316
 3561TIP3    H232175   2.192   0.040   1.426 -0.1527 -2.4906  0.8255
 3562TIP3   OH232176   0.553   5.472   4.148 -0.3485  0.3307  0.2931
 3562TIP3    H132177   0.511   5.408   4.091 -0.2471  0.3501  0.1959
 3562TIP3    H232178   0.585   5.540   4.088  2.1246 -0.9586  0.1134
 3563TIP3   OH232179   3.503   6.193   2.898 -0.1796 -0.6551  0.2123
 3563TIP3    H132180   3.456   6.132   2.955 -1.4029  0.8770  0.8805
 3563TIP3    H232181   3.532   6.262   2.957 -0.7322  0.5265 -0.8957
 3564TIP3   OH232182   2.727   2.248  13.656  0.1930 -0.1165 -0.9037
 3564TIP3    H132183   2.815   2.210  13.651  2.5707  4.7555  0.1039
 3564TIP3    H232184   2.706   2.272  13.565  0.9320  0.7004 -0.8698
 3565TIP3   OH232185   5.746   0.365   3.036 -0.4397  0.5054 -0.9116
 3565TIP3    H132186   5.744   0.281   2.990  0.4695 -0.8079  1.3317
 3565TIP3    H232187   5.678   0.357   3.103  1.3454  0.5373  0.9490
 3566TIP3   OH232188   5.052   0.064   5.165 -0.4253  0.2914  0.1111
 3566TIP3    H132189   5.133   0.021   5.140 -0.4789  0.6889 -0.7632
 3566TIP3    H232190   5.051   0.145   5.114 -1.4786  0.1793 -0.0696
 3567TIP3   OH232191   3.750   2.789  15.973  0.0323  0.0472  0.3338
 3567TIP3    H132192   3.812   2.822  15.908  0.0128  1.3107  0.9492
 3567TIP3    H232193   3.793   2.712  16.010  0.9542  0.5342  0.2936
 3568TIP3   OH232194   0.854   5.480  16.262 -0.1748  0.1143  0.1719
 3568TIP3    H132195   0.932   5.471  16.207  1.5103 -0.1303  2.5246
 3568TIP3    H232196   0.810   5.395  16.256  0.2768 -0.0789 -0.3782
 3569TIP3   OH232197   5.546   2.854   0.262  0.3296 -0.2155 -0.0454
 3569TIP3    H132198   5.603   2.833   0.337  2.3024 -0.4676 -1.5729
 3569TIP3    H232199   5.583   2.935   0.226 -1.1082  0.3480 -0.2723
 3570TIP3   OH232200   4.279   5.276  15.962 -0.0275 -0.1971 -0.5198
 3570TIP3    H132201   4.328   5.358  15.955  0.8140 -0.7526 -1.1510
 3570TIP3    H232202   4.337   5.209  15.926 -0.7276 -1.0726 -0.0567
 3571TIP3   OH232203   1.252   6.412   4.546  0.3813  0.4697  0.2656
 3571TIP3    H132204   1.161   6.396   4.522  0.7495  0.5094 -1.1860
 3571TIP3    H232205   1.250   6.423   4.641 -1.2634  1.4987  0.1256
 3572TIP3   OH232206   0.008   0.649   3.964 -0.7977  0.2359 -0.0456
 3572TIP3    H132207   0.037   0.613   3.880 -2.6200  1.5501 -1.2923
 3572TIP3    H232208  -0.048   0.582   4.001  1.1826 -0.9665  0.8532
 3573TIP3   OH232209   1.238   4.057   6.140 -0.3962  0.3534  0.2130
 3573TIP3    H132210   1.153   4.075   6.100  1.0940  1.2241 -2.7333
 3573TIP3    H232211   1.269   3.978   6.095  1.1098  1.0880 -0.0580
 3574TIP3   OH232212   6.039   5.824   4.285  0.1536  0.1022  0.2460
 3574TIP3    H132213   6.080   5.812   4.199  0.0623 -1.7556  0.4308
 3574TIP3    H232214   5.967   5.885   4.269 -0.2048 -0.6583 -1.1151
 3575TIP3   OH232215   0.659   6.367  13.070 -0.2080 -0.5133  0.2592
 3575TIP3    H132216   0.670   6.462  13.076 -1.2254 -0.3254 -0.7336
 3575TIP3    H232217   0.732   6.332  13.121 -0.4036  0.8099  1.5077
 3576TIP3   OH232218   5.901   2.050   1.450 -0.6040  0.1972  0.8948
 3576TIP3    H132219   5.810   2.047   1.481 -0.7843 -0.4710  0.3172
 3576TIP3    H232220   5.905   1.983   1.381  0.0828  0.8880  0.2585
 3577TIP3   OH232221   2.873   3.136   5.272 -0.0266 -0.2415 -0.1754
 3577TIP3    H132222   2.943   3.093   5.322  1.0457  0.1009 -1.3397
 3577TIP3    H232223   2.919   3.199   5.217 -1.4726  1.6094  0.6737
 3578TIP3   OH232224   1.128   0.763  16.175 -0.3723  0.4563 -0.3656
 3578TIP3    H132225   1.106   0.721  16.258  0.4524  1.9872  0.6511
 3578TIP3    H232226   1.067   0.836  16.168  0.0782  0.8078 -0.7108
 3579TIP3   OH232227   1.971   5.350  16.189  0.1064 -0.6025  0.6325
 3579TIP3    H132228   1.993   5.260  16.212 -1.8170 -1.5246 -0.9695
 3579TIP3    H232229   1.892   5.370  16.240 -1.3548 -0.9966 -1.3809
 3580TIP3   OH232230   1.436   2.280   4.672  0.1647 -0.1474 -0.2769
 3580TIP3    H132231   1.440   2.349   4.606  0.0477  0.2566  0.1392
 3580TIP3    H232232   1.402   2.323   4.750  0.3435 -0.6148  0.0615
 3581TIP3   OH232233   2.334   4.933  12.101 -0.2227 -0.5245 -0.0791
 3581TIP3    H132234   2.357   5.016  12.141 -1.1928 -0.0719 -0.4391
 3581TIP3    H232235   2.367   4.939  12.011 -0.8190 -0.2842 -0.2854
 3582TIP3   OH232236   5.294   3.940  14.172 -0.2272 -0.4097  0.1991
 3582TIP3    H132237   5.234   3.897  14.234 -0.1121 -1.9059 -0.7001
 3582TIP3    H232238   5.242   3.954  14.093 -0.2169  0.9919  0.4346
 3583TIP3   OH232239   4.625   3.187  11.064  0.8347  0.2995 -0.0014
 3583TIP3    H132240   4.537   3.164  11.032  0.2101  0.9916  1.1785
 3583TIP3    H232241   4.684   3.148  11.000 -0.3705  1.5418 -1.9244
 3584TIP3   OH232242   6.690   3.628  15.948 -0.1624 -0.1502 -0.4582
 3584TIP3    H132243   6.784   3.647  15.940  0.3286 -1.5765  1.4339
 3584TIP3    H232244   6.650   3.713  15.964  1.2440  0.1487  1.9032
 3585TIP3   OH232245   3.633   3.937  16.870 -0.5098  0.2635  0.6246
 3585TIP3    H132246   3.632   3.868  16.936 -0.0409  0.7917  1.1882
 3585TIP3    H232247   3.549   3.981  16.880 -0.8541 -0.2993  0.1906
 3586TIP3   OH232248   2.133   3.984  15.966 -0.2303  0.4960  0.2741
 3586TIP3    H132249   2.091   4.070  15.960 -1.4381 -0.1561 -0.7606
 3586TIP3    H232250   2.060   3.923  15.981  0.6101 -0.3671  0.9253
 3587TIP3   OH232251   4.934   2.163  16.952 -0.2596  0.4877  0.1345
 3587TIP3    H132252   5.019   2.134  16.918 -0.4237  0.2427 -0.0697
 3587TIP3    H232253   4.951   2.250  16.987 -0.2726  1.1140 -1.3565
 3588TIP3   OH232254   5.751   1.672  13.174 -0.2077 -0.1851  0.0945
 3588TIP3    H132255   5.754   1.705  13.264  1.7401 -0.8106  0.2863
 3588TIP3    H232256   5.730   1.579  13.184  0.3148 -0.3218 -0.0644
 3589TIP3   OH232257   6.067   1.450  17.230 -0.5113  0.1848 -0.4777
 3589TIP3    H132258   6.084   1.377  17.290 -1.1058  0.1644 -0.3325
 3589TIP3    H232259   6.054   1.526  17.287 -0.5748  0.2688 -0.6049
 3590TIP3   OH232260   6.341   6.673  14.001 -0.3531 -0.4468  0.3958
 3590TIP3    H132261   6.338   6.636  14.090 -1.1423  0.3603  0.7160
 3590TIP3    H232262   6.251   6.666  13.969 -0.2580  0.1020  0.0047
 3591TIP3   OH232263   1.934   0.373   2.230 -0.1473 -0.2417 -0.3380
 3591TIP3    H132264   2.016   0.343   2.190 -0.4017 -0.6003 -0.5942
 3591TIP3    H232265   1.961   0.440   2.293  0.4788 -1.4547  0.6970
 3592TIP3   OH232266   4.686   0.086  13.965  0.2986 -0.1483 -0.6130
 3592TIP3    H132267   4.628   0.012  13.980  1.4346 -1.3203 -1.8585
 3592TIP3    H232268   4.689   0.097  13.870 -2.8116  3.9407 -0.3976
 3593TIP3   OH232269   0.800   3.107   2.478 -0.1029  0.1648  0.2476
 3593TIP3    H132270   0.794   3.071   2.389 -0.4036  0.5403  0.1166
 3593TIP3    H232271   0.740   3.181   2.478 -0.4504 -0.1162  0.9036
 3594TIP3   OH232272   1.855   2.885   3.826  0.3959 -0.3232  0.4474
 3594TIP3    H132273   1.877   2.908   3.735 -0.2577 -1.6082 -0.0499
 3594TIP3    H232274   1.937   2.853   3.863  0.9778  1.4212  0.7221
 3595TIP3   OH232275   6.336   0.614  12.361  0.2151 -0.0645 -0.2112
 3595TIP3    H132276   6.400   0.627  12.291  0.5810  1.6466  0.4201
 3595TIP3    H232277   6.314   0.521  12.357  2.2142 -0.5171 -0.8958
 3596TIP3   OH232278   3.047   2.789  14.073  0.6243  0.6174 -0.0591
 3596TIP3    H132279   2.967   2.751  14.110 -0.1251  1.4206 -0.8332
 3596TIP3    H232280   3.108   2.794  14.146  0.5747 -1.6094  0.1854
 3597TIP3   OH232281   5.742   3.501  13.127  0.5365 -0.3597 -0.2183
 3597TIP3    H132282   5.759   3.477  13.218  0.5796 -1.8584 -0.6090
 3597TIP3    H232283   5.826   3.536  13.096 -0.0047  2.0683  0.8682
 3598TIP3   OH232284   0.932   2.662   4.692 -0.2938 -0.3006 -0.1977
 3598TIP3    H132285   0.939   2.697   4.781 -0.5746  0.2512 -0.3941
 3598TIP3    H232286   0.839   2.667   4.671 -0.1473  0.1279 -0.7511
 3599TIP3   OH232287   5.387   2.885   3.401 -0.1511  0.0631 -0.1802
 3599TIP3    H132288   5.459   2.895   3.463 -0.5032 -1.3067  0.4774
 3599TIP3    H232289   5.309   2.909   3.450 -0.3614 -0.4185 -0.2745
 3600TIP3   OH232290   3.351   1.879  16.337  0.2353 -0.0375  0.1652
 3600TIP3    H132291   3.412   1.855  16.407 -0.7619 -1.3090  0.6232
 3600TIP3    H232292   3.401   1.868  16.257  1.3490  1.2921  0.6635
 3601TIP3   OH232293   4.222   5.881   4.742 -0.2781  0.0764  0.0735
 3601TIP3    H132294   4.152   5.817   4.728 -3.1360  2.9681  0.5882
 3601TIP3    H232295   4.203   5.918   4.828  1.6384  1.2546  0.0088
 3602TIP3   OH232296   2.860   0.519  15.803  0.2830  0.3063 -0.5360
 3602TIP3    H132297   2.783   0.557  15.759  1.0930 -0.8378 -3.0381
 3602TIP3    H232298   2.898   0.460  15.738  1.3989 -1.6827  1.8303
 3603TIP3   OH232299   4.949   4.192  10.481 -0.0654  0.2015 -0.2748
 3603TIP3    H132300   4.901   4.235  10.551 -0.2545  2.0187 -1.4831
 3603TIP3    H232301   5.041   4.205  10.503 -0.1108 -0.5881  0.4232
 3604TIP3   OH232302   6.780   1.707  15.843  0.2384 -0.0439  0.1980
 3604TIP3    H132303   6.702   1.698  15.789 -0.0215 -1.1054  0.7429
 3604TIP3    H232304   6.827   1.625  15.830 -0.2200 -0.6370  2.2010
 3605TIP3   OH232305   3.519   4.054   6.486  0.0313 -0.0968  0.3218
 3605TIP3    H132306   3.512   3.959   6.490 -1.7021  0.0289  0.2611
 3605TIP3    H232307   3.611   4.070   6.464  0.1647 -1.7711 -0.3752
 3606TIP3   OH232308   5.669   1.895  16.744 -0.4216  0.2956  0.2608
 3606TIP3    H132309   5.723   1.892  16.666  0.5661 -0.9455  0.9654
 3606TIP3    H232310   5.591   1.945  16.718 -0.8169 -1.3812 -1.9687
 3607TIP3   OH232311   0.752   0.286   3.499 -0.0092  0.7499  1.4662
 3607TIP3    H132312   0.670   0.238   3.496  0.5182 -0.0757 -0.5322
 3607TIP3    H232313   0.737   0.363   3.444  0.5465  0.6025  1.1060
 3608TIP3   OH232314   4.774   1.952   2.606 -0.3240 -0.8057  0.0574
 3608TIP3    H132315   4.869   1.940   2.608 -0.1572  0.4518  0.0668
 3608TIP3    H232316   4.759   2.038   2.647 -1.4042 -0.6961 -0.5324
 3609TIP3   OH232317   5.278   4.544   0.033 -0.0458  1.1740 -0.4200
 3609TIP3    H132318   5.258   4.594   0.112 -1.2658  1.4620 -0.8958
 3609TIP3    H232319   5.273   4.609  -0.038 -3.0386  0.1656 -1.2271
 3610TIP3   OH232320   0.048   2.566  13.948 -0.0018  0.2862  0.6665
 3610TIP3    H132321   0.092   2.552  14.031 -1.0228  1.1459  1.3596
 3610TIP3    H232322   0.120   2.573  13.884  0.8874  1.8670  1.8100
 3611TIP3   OH232323   6.203   3.479  13.009  0.3012  0.4334 -0.1176
 3611TIP3    H132324   6.116   3.501  13.041  1.1306  2.1543  1.0043
 3611TIP3    H232325   6.256   3.557  13.026  1.9907 -0.4582 -1.0938
 3612TIP3   OH232326   6.780   2.994  15.162 -0.3647 -0.1033 -0.4841
 3612TIP3    H132327   6.868   2.999  15.124 -0.8060  0.1358 -1.4851
 3612TIP3    H232328   6.758   2.901  15.159  0.2292 -0.2906  0.6494
 3613TIP3   OH232329   1.685   5.159  14.838  0.9962 -0.2191 -0.4319
 3613TIP3    H132330   1.753   5.106  14.798  0.4788  0.6241 -2.4555
 3613TIP3    H232331   1.667   5.228  14.774 -0.7114  0.4306  0.7158
 3614TIP3   OH232332   2.238   2.165   1.456  0.4063 -0.1001  0.6318
 3614TIP3    H132333   2.183   2.199   1.385  1.9954 -2.4822 -1.8475
 3614TIP3    H232334   2.274   2.243   1.498 -0.6079  1.3770 -1.1815
 3615TIP3   OH232335   3.431   3.736   5.671 -0.5484  0.5312 -0.5253
 3615TIP3    H132336   3.480   3.688   5.604 -0.6496 -1.1695  0.5739
 3615TIP3    H232337   3.487   3.809   5.694  1.4800 -1.3158  0.6185
 3616TIP3   OH232338   2.403   3.343  12.192  0.2684  0.1935  0.2634
 3616TIP3    H132339   2.351   3.284  12.247  0.2737 -0.1048 -0.0423
 3616TIP3    H232340   2.493   3.333  12.223  0.3100 -0.1745  0.0326
 3617TIP3   OH232341   5.460   2.874  12.994 -0.0119  0.0761 -0.0043
 3617TIP3    H132342   5.396   2.879  12.923  0.4499 -1.9666 -0.5939
 3617TIP3    H232343   5.542   2.849  12.951  0.8645  1.2410  0.9373
 3618TIP3   OH232344   4.332   6.355   1.298 -0.1334 -0.8829 -0.2443
 3618TIP3    H132345   4.417   6.339   1.257  0.0301 -1.8571  0.4590
 3618TIP3    H232346   4.270   6.352   1.225  0.5005  0.6184 -0.8823
 3619TIP3   OH232347   6.321   1.173   2.944 -0.6900 -0.3336 -0.7353
 3619TIP3    H132348   6.230   1.145   2.933 -0.9668  0.6348 -1.0025
 3619TIP3    H232349   6.366   1.139   2.867 -0.8262 -0.8162 -0.6025
 3620TIP3   OH232350   5.204   2.561  13.090  0.3629 -0.0360 -0.9371
 3620TIP3    H132351   5.197   2.472  13.126  0.9157 -0.3706 -1.6489
 3620TIP3    H232352   5.292   2.589  13.114 -0.3072  0.8872  0.5451
 3621TIP3   OH232353   0.709   6.376  12.385  0.0746  0.2880 -0.7274
 3621TIP3    H132354   0.797   6.340  12.383  0.5588  1.5012 -1.4827
 3621TIP3    H232355   0.664   6.326  12.453  0.4832 -2.2794 -2.2794
 3622TIP3   OH232356   3.390   3.910   2.872  0.1276 -0.4234 -0.2485
 3622TIP3    H132357   3.412   3.999   2.898  0.3947 -0.6626  0.3587
 3622TIP3    H232358   3.345   3.874   2.948 -2.3485  0.0394 -1.4344
 3623TIP3   OH232359   0.018   1.444   2.874  1.3257  0.3957  0.4467
 3623TIP3    H132360   0.010   1.439   2.779  0.0825  2.7454  0.3924
 3623TIP3    H232361  -0.011   1.532   2.896 -0.0369 -0.6680  3.1725
 3624TIP3   OH232362   2.292   1.756  14.759 -0.1642 -0.2055  0.2107
 3624TIP3    H132363   2.254   1.669  14.755  0.0782 -0.5509  3.8047
 3624TIP3    H232364   2.224   1.812  14.796  1.0741  0.2397  1.8712
 3625TIP3   OH232365   3.750   4.786   1.321 -0.0722  0.1997  0.0655
 3625TIP3    H132366   3.752   4.736   1.403  0.6640  0.5996  0.2992
 3625TIP3    H232367   3.724   4.722   1.255  0.4784 -0.4024  0.4228
 3626TIP3   OH232368   5.237   5.560   4.208 -0.2292  0.5234  0.1427
 3626TIP3    H132369   5.197   5.600   4.130 -0.6519  0.3785  0.2837
 3626TIP3    H232370   5.207   5.469   4.206 -1.4483  0.8994  1.2954
 3627TIP3   OH232371   3.107   2.821   2.736 -0.7779  0.0364  0.1701
 3627TIP3    H132372   3.019   2.785   2.726 -0.8489  0.2830 -0.0877
 3627TIP3    H232373   3.159   2.747   2.770 -0.7036 -0.6108 -1.3044
 3628TIP3   OH232374   5.908   5.964  15.114 -0.3654  0.0565 -0.9802
 3628TIP3    H132375   5.987   5.956  15.061 -0.0526  1.1630 -0.6855
 3628TIP3    H232376   5.929   5.918  15.196 -0.2514 -0.1790 -1.1409
 3629TIP3   OH232377   6.115   1.653  13.313 -0.0015 -0.0530 -0.0879
 3629TIP3    H132378   6.144   1.638  13.223  2.0181 -1.1620  0.7249
 3629TIP3    H232379   6.140   1.743  13.332 -2.0877  0.8077 -1.2172
 3630TIP3   OH232380   1.767   4.760   5.235  0.0768 -0.1067 -0.0169
 3630TIP3    H132381   1.675   4.779   5.255  0.2414 -0.3508  0.9798
 3630TIP3    H232382   1.816   4.830   5.277  0.4269 -0.6184  0.4321
 3631TIP3   OH232383   1.399   0.899   2.754 -0.1724 -0.0525  0.6279
 3631TIP3    H132384   1.349   0.929   2.830  0.4315  3.2628 -0.2306
 3631TIP3    H232385   1.344   0.918   2.679 -0.5740 -2.9169  0.1194
 3632TIP3   OH232386   0.651   4.397  16.128 -0.1041 -0.4160  0.0431
 3632TIP3    H132387   0.651   4.432  16.039  0.9947 -1.1210 -0.2352
 3632TIP3    H232388   0.566   4.356  16.137 -0.5261  0.3401 -0.4133
 3633TIP3   OH232389   1.236   2.801   5.150 -0.1109 -0.5781 -0.5440
 3633TIP3    H132390   1.179   2.731   5.183 -1.1307  0.0317 -0.9823
 3633TIP3    H232391   1.310   2.755   5.111 -0.7785 -1.4194 -0.8487
 3634TIP3   OH232392   4.256   0.276   5.951 -0.7142 -0.4666 -0.0866
 3634TIP3    H132393   4.236   0.305   6.040 -0.8593  1.1705 -0.6301
 3634TIP3    H232394   4.347   0.247   5.954 -1.1322 -1.7012  0.8982
 3635TIP3   OH232395   5.149   5.753  12.018 -0.5488 -0.4796 -0.4017
 3635TIP3    H132396   5.162   5.671  12.066 -0.4503 -0.8023 -0.9762
 3635TIP3    H232397   5.086   5.801  12.071  0.8359 -0.1024  0.9345
 3636TIP3   OH232398   4.834   6.279  12.712  0.8630 -0.2084 -0.1415
 3636TIP3    H132399   4.848   6.321  12.797 -0.9321  1.0841 -0.4495
 3636TIP3    H232400   4.904   6.311  12.657  0.6071  0.9002  0.1694
 3637TIP3   OH232401   5.439   0.571   5.231  0.6774 -0.2199  0.2031
 3637TIP3    H132402   5.429   0.553   5.138  0.3350  0.6226  0.0677
 3637TIP3    H232403   5.533   0.577   5.245  0.7075  0.2882 -0.2145
 3638TIP3   OH232404   0.094   1.630  14.337  0.1760  0.2491 -0.0214
 3638TIP3    H132405   0.015   1.679  14.360  0.4640  0.6258  0.1547
 3638TIP3    H232406   0.131   1.676  14.262 -1.1573 -1.3947 -1.7333
 3639TIP3   OH232407   2.374   3.448  15.151 -0.4461 -0.2062 -0.6462
 3639TIP3    H132408   2.461   3.413  15.135  0.3975  1.6484 -0.1765
 3639TIP3    H232409   2.315   3.382  15.113  1.1082 -1.7689 -0.4198
 3640TIP3   OH232410   5.956   4.161   0.044 -0.1859  0.0657 -0.5541
 3640TIP3    H132411   5.861   4.147   0.052  0.3427 -2.6008  1.5060
 3640TIP3    H232412   5.979   4.119  -0.039 -0.4322 -1.5204  0.1567
 3641TIP3   OH232413   1.368   1.134  16.634 -1.0088  0.0740 -0.1832
 3641TIP3    H132414   1.430   1.182  16.581  0.3286  0.8135  1.9806
 3641TIP3    H232415   1.314   1.201  16.676 -2.3161 -0.5093 -0.8757
 3642TIP3   OH232416   2.436   0.305  12.497  0.5250  0.1909 -0.0323
 3642TIP3    H132417   2.462   0.391  12.465 -0.4707  1.0152  1.3816
 3642TIP3    H232418   2.384   0.322  12.575 -1.2796 -1.6107 -0.7903
 3643TIP3   OH232419   2.211   6.598   0.811  0.0245 -0.4708 -0.0969
 3643TIP3    H132420   2.142   6.546   0.851 -0.9093  0.3365 -0.6212
 3643TIP3    H232421   2.232   6.552   0.729 -1.1469  0.2203 -0.8032
 3644TIP3   OH232422   2.639   3.551   2.765  0.3124 -0.2035 -0.3283
 3644TIP3    H132423   2.559   3.560   2.713 -0.1720 -0.0984  0.4193
 3644TIP3    H232424   2.643   3.458   2.788 -0.1370 -0.0343  0.4673
 3645TIP3   OH232425   0.751   5.320   4.253 -0.0930  0.3875 -0.7332
 3645TIP3    H132426   0.730   5.233   4.217 -1.5304 -1.1498  3.5021
 3645TIP3    H232427   0.687   5.378   4.212 -0.6147 -0.9667 -1.8956
 3646TIP3   OH232428   3.644   3.834   2.001  0.3017  0.2639 -0.4345
 3646TIP3    H132429   3.703   3.869   1.935 -1.3758  0.5947 -1.8022
 3646TIP3    H232430   3.568   3.804   1.952 -1.1978  0.9542  1.3743
 3647TIP3   OH232431   1.310   1.888  13.230  0.2324  0.2493 -0.4565
 3647TIP3    H132432   1.304   1.835  13.310  1.2221  0.1104 -0.4646
 3647TIP3    H232433   1.268   1.835  13.163  0.7904 -0.3210 -0.3602
 3648TIP3   OH232434   6.598   5.959  13.937 -0.4846  0.6398  0.1180
 3648TIP3    H132435   6.662   5.954  14.009 -0.3241 -1.1253 -0.1211
 3648TIP3    H232436   6.551   5.876  13.942 -0.4157  0.4722 -1.8603
 3649TIP3   OH232437   6.590   3.967   5.182 -0.0024 -0.3557 -0.0124
 3649TIP3    H132438   6.619   3.879   5.157  1.1506 -0.6116  2.1374
 3649TIP3    H232439   6.615   4.022   5.108 -0.5726 -1.7891 -1.2946
 3650TIP3   OH232440   0.933   2.626  16.811  0.7243  0.3314 -0.5231
 3650TIP3    H132441   1.011   2.628  16.866  1.8046 -0.0012 -2.0187
 3650TIP3    H232442   0.954   2.682  16.737 -0.4674  0.2206 -0.9622
 3651TIP3   OH232443   3.266   0.800  16.757  0.3189 -0.4529 -0.7866
 3651TIP3    H132444   3.357   0.771  16.762  0.3395 -0.4818 -1.2352
 3651TIP3    H232445   3.271   0.895  16.769  0.5425 -0.2991 -2.0281
 3652TIP3   OH232446   3.325   4.852   0.942 -0.1283 -0.2127  0.0798
 3652TIP3    H132447   3.244   4.849   0.993  0.6268  0.0853  1.3317
 3652TIP3    H232448   3.306   4.801   0.863 -1.1822 -1.0667  0.8703
 3653TIP3   OH232449   5.049   0.383  11.516  0.0744 -0.1862  0.0143
 3653TIP3    H132450   5.085   0.463  11.555 -0.9053  0.2338  0.0592
 3653TIP3    H232451   5.066   0.315  11.582  1.2000 -0.0939 -0.1600
 3654TIP3   OH232452   5.800   1.669  14.954 -0.0030  0.1909  0.1890
 3654TIP3    H132453   5.812   1.727  15.029 -1.6653 -1.5763  1.8861
 3654TIP3    H232454   5.799   1.727  14.878  0.0146  2.1891  1.6915
 3655TIP3   OH232455   0.656   4.962  11.677  0.4971  0.1463  0.1417
 3655TIP3    H132456   0.608   5.044  11.689 -0.5523 -0.7083  2.1126
 3655TIP3    H232457   0.622   4.925  11.596  0.2104  1.1520 -0.1926
 3656TIP3   OH232458   4.321   6.523  13.881  0.1866 -0.5439 -0.0150
 3656TIP3    H132459   4.302   6.458  13.949  1.2098 -0.1978  0.6054
 3656TIP3    H232460   4.326   6.472  13.800  1.6582 -1.3352  0.5664
 3657TIP3   OH232461   2.861   2.293  12.378  0.6682  0.2909  0.4106
 3657TIP3    H132462   2.931   2.358  12.364 -0.1965  1.1355 -0.0659
 3657TIP3    H232463   2.901   2.226  12.433  2.0056  0.5209 -0.2633
 3658TIP3   OH232464   2.507   3.966  12.488  0.2371 -0.1956 -0.4929
 3658TIP3    H132465   2.571   3.991  12.555  0.3279 -1.2809 -0.1643
 3658TIP3    H232466   2.467   4.049  12.461 -0.2782  0.2016  1.3862
 3659TIP3   OH232467   5.162   1.287   4.322  0.1284  0.0225  0.2160
 3659TIP3    H132468   5.172   1.337   4.241  1.2877  0.4891  0.6363
 3659TIP3    H232469   5.242   1.235   4.328  0.3338  0.4488  1.3673
 3660TIP3   OH232470   4.571   1.270  16.707 -0.4763 -0.4639 -0.2631
 3660TIP3    H132471   4.643   1.276  16.770  1.7022 -2.9395 -2.3876
 3660TIP3    H232472   4.528   1.187  16.728 -0.5075 -0.6954 -1.2380
 3661TIP3   OH232473   6.186   2.810  17.112 -0.5450  0.1110  0.2239
 3661TIP3    H132474   6.166   2.897  17.146 -1.9229  0.9848 -2.7049
 3661TIP3    H232475   6.249   2.826  17.042  1.0588 -1.4999  1.2717
 3662TIP3   OH232476   3.920   6.741   3.527 -0.2202  0.1960  0.2479
 3662TIP3    H132477   3.926   6.668   3.589  1.2086  0.4785  0.4606
 3662TIP3    H232478   4.009   6.774   3.520 -0.5973  0.9865 -0.9924
 3663TIP3   OH232479   2.482   4.491  11.410  0.4709  0.6473  0.7926
 3663TIP3    H132480   2.496   4.402  11.441  0.3250  1.0612  2.0472
 3663TIP3    H232481   2.416   4.482  11.341  1.3527 -0.3614  0.0627
 3664TIP3   OH232482   1.210   0.195   2.571 -0.4793  0.3602 -0.8678
 3664TIP3    H132483   1.279   0.241   2.618 -0.4810 -0.8200  0.3046
 3664TIP3    H232484   1.137   0.258   2.568 -0.7843  0.1692  1.4748
 3665TIP3   OH232485   0.454   2.238  10.613 -0.1091  0.1708 -0.4932
 3665TIP3    H132486   0.385   2.213  10.674 -1.5790 -1.6554 -2.7891
 3665TIP3    H232487   0.514   2.164  10.612 -0.4274 -0.0851 -1.7012
 3666TIP3   OH232488   1.787   3.167   2.918 -0.1464 -0.4675 -0.0793
 3666TIP3    H132489   1.710   3.154   2.862  0.5930 -2.1181 -0.7235
 3666TIP3    H232490   1.784   3.096   2.981  0.8490 -0.5472 -0.1081
 3667TIP3   OH232491   4.950   0.159   0.811 -0.1319  0.0274  0.0844
 3667TIP3    H132492   5.036   0.176   0.850 -0.8264 -0.8161  2.0318
 3667TIP3    H232493   4.936   0.065   0.823 -1.1764  0.1000 -0.5249
 3668TIP3   OH232494   0.959   6.775  12.381  0.2977 -0.6819  0.0321
 3668TIP3    H132495   0.925   6.845  12.325 -0.2661 -0.4255  0.6871
 3668TIP3    H232496   0.920   6.695  12.344  0.3040 -0.5675 -0.2283
 3669TIP3   OH232497   2.564   5.699   3.351 -0.0515 -0.4095  0.0634
 3669TIP3    H132498   2.596   5.789   3.357 -1.9341  0.2735  0.0678
 3669TIP3    H232499   2.473   5.704   3.381  0.0665 -2.4536  0.8515
 3670TIP3   OH232500   4.957   4.787   6.489 -0.4178 -0.0337 -0.4190
 3670TIP3    H132501   5.006   4.870   6.491 -0.2754 -0.0945 -1.1348
 3670TIP3    H232502   5.024   4.720   6.502 -0.0778 -0.1979 -2.7260
 3671TIP3   OH232503   2.303   1.993   2.599 -0.5156 -0.4853 -0.0552
 3671TIP3    H132504   2.334   1.927   2.661  0.9286  0.2145 -0.0098
 3671TIP3    H232505   2.242   1.946   2.542  1.3671 -2.1379 -0.7508
 3672TIP3   OH232506   3.073   4.999  17.288  0.3053  0.4439 -0.3528
 3672TIP3    H132507   3.065   4.990  17.193 -1.4239  1.4771 -0.3331
 3672TIP3    H232508   3.010   5.067  17.311  1.4184  0.9240  1.4179
 3673TIP3   OH232509   3.888   6.685   1.565 -0.4570  0.5860  0.4720
 3673TIP3    H132510   3.889   6.779   1.544  1.0638  1.0094  2.3132
 3673TIP3    H232511   3.816   6.650   1.513 -0.1522  2.5232 -1.3359
 3674TIP3   OH232512   2.044   5.388   0.565 -0.0333 -1.1798  0.4776
 3674TIP3    H132513   2.011   5.303   0.537  1.0819 -2.3547  2.5812
 3674TIP3    H232514   2.055   5.379   0.660  0.5244  1.1717  0.6650
 3675TIP3   OH232515   6.437   3.020   5.306 -0.1372 -0.3216 -0.5406
 3675TIP3    H132516   6.347   3.051   5.292 -0.5491  0.2031  2.8885
 3675TIP3    H232517   6.491   3.098   5.296 -0.2729 -0.2292 -0.5607
 3676TIP3   OH232518   5.399   6.070  15.572  0.2775  0.0707  0.1303
 3676TIP3    H132519   5.395   6.045  15.664 -0.1027  0.0330  0.1058
 3676TIP3    H232520   5.320   6.032  15.534  0.0410  0.7418 -0.0505
 3677TIP3   OH232521   2.569   6.247   3.408 -0.3691  0.3441  0.1043
 3677TIP3    H132522   2.615   6.164   3.394 -1.2066 -0.0160 -0.5542
 3677TIP3    H232523   2.497   6.224   3.467 -0.3055  0.7058  0.3236
 3678TIP3   OH232524   1.438   3.052   4.420 -0.1913  0.3329 -0.2827
 3678TIP3    H132525   1.381   3.009   4.484 -1.1230  0.2081 -1.1809
 3678TIP3    H232526   1.380   3.111   4.373  0.2988 -0.2102 -1.5963
 3679TIP3   OH232527   6.783   1.911   0.295 -0.3438  0.6088  0.5052
 3679TIP3    H132528   6.731   1.935   0.218 -0.7798 -1.2459  0.2010
 3679TIP3    H232529   6.812   1.995   0.331 -1.7142  1.5803 -0.5907
 3680TIP3   OH232530   1.309   0.415  15.959 -0.4968  0.5180 -0.6153
 3680TIP3    H132531   1.291   0.353  16.029  0.6524 -0.2177 -0.9380
 3680TIP3    H232532   1.311   0.361  15.880 -0.7366  1.1727 -1.0701
 3681TIP3   OH232533   4.350   1.990   2.667  0.3304 -0.0162  0.0645
 3681TIP3    H132534   4.306   1.960   2.746 -0.9029 -0.3583 -0.7389
 3681TIP3    H232535   4.432   1.940   2.665  0.2060 -0.2588  0.9379
 3682TIP3   OH232536   2.814   1.377   0.604  0.0565 -0.1872  0.5552
 3682TIP3    H132537   2.904   1.388   0.637  0.7102 -0.6270 -1.0419
 3682TIP3    H232538   2.820   1.303   0.544 -1.4665 -0.4435  0.7006
 3683TIP3   OH232539   6.674   4.781   0.612 -0.3729  0.1529  0.2124
 3683TIP3    H132540   6.766   4.806   0.614  0.1794 -1.6795 -0.5478
 3683TIP3    H232541   6.632   4.847   0.558  0.7791  0.2087 -0.6336
 3684TIP3   OH232542   3.842   2.734  13.267  0.2609 -0.2884 -0.1130
 3684TIP3    H132543   3.822   2.827  13.275  0.6366 -0.2302  0.1817
 3684TIP3    H232544   3.909   2.718  13.335  1.0479 -0.5231 -0.9328
 3685TIP3   OH232545   6.537   4.696  12.923  0.5969  0.2779 -0.1309
 3685TIP3    H132546   6.522   4.748  13.002  3.1331  1.7113 -0.5302
 3685TIP3    H232547   6.455   4.703  12.874 -0.6182  0.2628  1.8543
 3686TIP3   OH232548   5.131   1.031  14.068  0.0734 -0.4003 -0.2124
 3686TIP3    H132549   5.096   1.119  14.083 -0.9759 -0.7192 -0.7018
 3686TIP3    H232550   5.218   1.046  14.030  0.3245  0.4164  0.6645
 3687TIP3   OH232551   5.199   5.182   0.192 -0.4048 -0.4601  0.6516
 3687TIP3    H132552   5.105   5.190   0.178 -0.1997 -1.0510 -1.2125
 3687TIP3    H232553   5.238   5.234   0.122  0.6708 -2.3410 -0.1919
 3688TIP3   OH232554   4.399   0.809  12.638 -0.2502 -0.2187  0.5975
 3688TIP3    H132555   4.480   0.774  12.675  1.3277  2.9120  0.2818
 3688TIP3    H232556   4.339   0.815  12.712  0.0782 -1.7514  1.0018
 3689TIP3   OH232557   2.760   1.187  14.903  0.0394 -0.0183  0.3748
 3689TIP3    H132558   2.739   1.279  14.887 -0.1456 -0.0919  0.1860
 3689TIP3    H232559   2.826   1.189  14.972 -0.0133  0.2525  0.4176
 3690TIP3   OH232560   3.490   2.453  15.493 -0.0909  0.2077 -0.7970
 3690TIP3    H132561   3.405   2.495  15.500  0.5356  1.5138 -0.9231
 3690TIP3    H232562   3.478   2.367  15.534 -1.0130  1.0467  0.7196
 3691TIP3   OH232563   2.734   5.331  12.727 -0.2463 -0.3020  0.1720
 3691TIP3    H132564   2.799   5.400  12.737 -1.5160  0.7203  1.8169
 3691TIP3    H232565   2.700   5.343  12.638  0.0353  0.7795  0.1987
 3692TIP3   OH232566   2.141   2.982   1.276  0.4176 -0.4194 -0.1372
 3692TIP3    H132567   2.074   2.917   1.254 -0.2417  0.4127 -0.6556
 3692TIP3    H232568   2.123   3.006   1.366 -0.6510  0.5686 -0.6019
 3693TIP3   OH232569   3.696   0.060   1.845 -0.6428  0.1472 -0.1377
 3693TIP3    H132570   3.745   0.142   1.845 -2.4931  1.3037  2.1183
 3693TIP3    H232571   3.643   0.063   1.765 -1.0588  1.4052  0.1753
 3694TIP3   OH232572   5.387   1.890   3.469 -0.7095 -0.1435  0.5857
 3694TIP3    H132573   5.460   1.902   3.408 -0.4036 -1.6708  0.6461
 3694TIP3    H232574   5.413   1.816   3.524 -1.3242  0.7277  2.0751
 3695TIP3   OH232575   4.114   5.610   4.282  0.3902 -0.3177  0.0431
 3695TIP3    H132576   4.150   5.653   4.359  1.2004 -0.8067 -0.0495
 3695TIP3    H232577   4.135   5.517   4.295 -0.9548 -0.6200  0.0452
 3696TIP3   OH232578   6.500   5.606  17.207 -0.2288  0.0104 -0.4873
 3696TIP3    H132579   6.433   5.619  17.141 -0.6650  0.2998  0.0159
 3696TIP3    H232580   6.544   5.525  17.180  0.0113  0.4616 -1.4749
 3697TIP3   OH232581   1.254   0.074  13.370  0.9660 -0.4057  0.9558
 3697TIP3    H132582   1.313   0.075  13.295 -2.1326 -0.4711 -1.6032
 3697TIP3    H232583   1.279   0.151  13.422  0.8092  1.8196 -2.1466
 3698TIP3   OH232584   2.708   4.341   4.060 -0.0375 -0.1570 -0.7472
 3698TIP3    H132585   2.644   4.319   3.993  0.7644 -0.5782 -1.3828
 3698TIP3    H232586   2.708   4.437   4.064 -1.7169 -0.1817  0.2513
 3699TIP3   OH232587   6.311   4.916   2.654 -0.0718 -0.1745  0.1064
 3699TIP3    H132588   6.321   4.821   2.665 -1.1126 -0.5916 -2.2219
 3699TIP3    H232589   6.393   4.944   2.613  0.1097 -0.1242  0.5052
 3700TIP3   OH232590   2.023   0.795   3.300 -0.1418 -0.0712 -0.2889
 3700TIP3    H132591   2.078   0.763   3.371 -1.8799  0.3396  1.2584
 3700TIP3    H232592   2.033   0.729   3.231  0.7869 -0.9738  0.6890
 3701TIP3   OH232593   0.274   5.190   0.268 -0.1080 -0.0245 -0.7779
 3701TIP3    H132594   0.265   5.116   0.208 -0.5463 -0.7489  0.1625
 3701TIP3    H232595   0.186   5.201   0.305  0.0909  0.5975 -0.4924
 3702TIP3   OH232596   3.974   2.921   0.427  0.2521 -0.2841 -0.2015
 3702TIP3    H132597   3.945   2.838   0.389 -1.4841  0.5434 -0.7764
 3702TIP3    H232598   4.009   2.898   0.513  1.2584 -1.7898 -1.0018
 3703TIP3   OH232599   0.596   2.420   0.792  0.8830 -0.3566  0.4282
 3703TIP3    H132600   0.649   2.461   0.860  0.6396 -2.2464  1.8098
 3703TIP3    H232601   0.523   2.480   0.778  0.4882 -0.3471  2.4445
 3704TIP3   OH232602   0.421   5.444   5.613  0.2606 -0.1277 -0.1716
 3704TIP3    H132603   0.342   5.474   5.658 -0.7932 -2.6539 -0.2889
 3704TIP3    H232604   0.481   5.422   5.684 -0.4177 -1.5346 -0.0311
 3705TIP3   OH232605   6.083   1.906  11.894  0.6052 -0.1051  0.1994
 3705TIP3    H132606   6.099   1.840  11.827 -0.3859 -0.8694  0.7045
 3705TIP3    H232607   6.063   1.855  11.973 -2.3790  0.7789  0.0686
 3706TIP3   OH232608   2.055   3.574   4.603 -1.1364  0.6959 -1.0850
 3706TIP3    H132609   2.112   3.525   4.543  0.5493 -0.6268  1.5131
 3706TIP3    H232610   2.033   3.511   4.671 -0.7801  2.9205  1.1325
 3707TIP3   OH232611   0.839   5.635  13.513  0.1433 -0.2003 -0.6589
 3707TIP3    H132612   0.862   5.646  13.605 -1.9870 -0.8540 -0.0224
 3707TIP3    H232613   0.858   5.720  13.473  0.1783  0.3753  0.5694
 3708TIP3   OH232614   1.382   3.463   3.385  0.4688  0.1260 -0.5849
 3708TIP3    H132615   1.462   3.493   3.428  0.7605  0.3388 -1.2737
 3708TIP3    H232616   1.405   3.456   3.292 -0.2521 -0.0110 -0.7591
 3709TIP3   OH232617   6.265   6.755   2.657 -0.0929  0.2332 -0.3864
 3709TIP3    H132618   6.311   6.837   2.639  1.4766  0.2229  3.2709
 3709TIP3    H232619   6.236   6.763   2.748 -1.5960 -2.5185 -0.5660
 3710TIP3   OH232620   5.480   5.817   3.463 -0.4038  0.4200 -0.1508
 3710TIP3    H132621   5.397   5.781   3.429  0.5843 -1.8493 -0.2278
 3710TIP3    H232622   5.480   5.793   3.555 -0.9342  2.5756  0.4421
 3711TIP3   OH232623   2.122   1.539  14.458  0.1660 -0.1527  0.1032
 3711TIP3    H132624   2.124   1.463  14.400  1.5450  0.7713 -1.0926
 3711TIP3    H232625   2.139   1.503  14.545  2.7080 -1.0288 -0.7041
 3712TIP3   OH232626   0.698   0.175  11.349  1.0598  0.1666  0.2700
 3712TIP3    H132627   0.609   0.143  11.338  1.0463  1.3927 -4.0420
 3712TIP3    H232628   0.753   0.103  11.318  1.5686 -0.1273  1.7954
 3713TIP3   OH232629   3.323   1.801   5.030 -0.4087 -0.9633 -0.1465
 3713TIP3    H132630   3.249   1.740   5.033 -0.9711 -0.2554  0.6885
 3713TIP3    H232631   3.307   1.861   5.103 -0.0269  0.3660 -1.1412
 3714TIP3   OH232632   4.885   0.862  16.637  0.0529 -0.2535  0.4642
 3714TIP3    H132633   4.929   0.824  16.713  0.8483  1.2266  0.7725
 3714TIP3    H232634   4.792   0.844  16.651  0.3873 -1.8218  0.7242
 3715TIP3   OH232635   3.901   3.881   0.439  0.2167 -0.1495 -0.2313
 3715TIP3    H132636   3.816   3.890   0.483 -0.7894 -1.7953 -1.7552
 3715TIP3    H232637   3.888   3.920   0.353  2.4299  3.8557  1.1043
 3716TIP3   OH232638   1.204   3.376   2.935 -0.6252  0.9673 -0.0272
 3716TIP3    H132639   1.133   3.392   2.873 -2.1631 -1.8382  0.8936
 3716TIP3    H232640   1.160   3.367   3.020  0.7286 -1.2189  0.5012
 3717TIP3   OH232641   3.678   5.019   2.890  0.3033 -0.9071 -0.2889
 3717TIP3    H132642   3.751   5.031   2.829 -0.6338 -1.5224 -1.5631
 3717TIP3    H232643   3.719   5.005   2.975  1.6188  0.8600 -0.6115
 3718TIP3   OH232644   1.354   1.703   1.645 -0.4887  0.0850  0.0063
 3718TIP3    H132645   1.370   1.614   1.614  2.3253 -0.3809  2.5805
 3718TIP3    H232646   1.310   1.691   1.730  0.2238  1.1259  0.5299
 3719TIP3   OH232647   5.414   1.924  11.590  0.0740  0.6292 -0.3061
 3719TIP3    H132648   5.397   1.962  11.504 -0.6591  0.2000 -0.3537
 3719TIP3    H232649   5.345   1.960  11.646  1.0066  1.5273  0.2991
 3720TIP3   OH232650   0.652   0.636  13.433 -0.4349  0.9519 -0.1567
 3720TIP3    H132651   0.719   0.580  13.393 -0.2199  0.8928  0.2752
 3720TIP3    H232652   0.626   0.588  13.512 -2.6800 -0.1883 -1.5110
 3721TIP3   OH232653   0.791   3.733  11.695 -0.1946  0.5407  0.1308
 3721TIP3    H132654   0.831   3.652  11.662 -1.8821 -0.0035 -0.6099
 3721TIP3    H232655   0.737   3.704  11.769  0.8187  1.2905  1.1946
 3722TIP3   OH232656   2.650   2.499   2.775 -0.5041  0.2910 -0.0714
 3722TIP3    H132657   2.564   2.529   2.749 -0.9186 -0.7567  0.0530
 3722TIP3    H232658   2.642   2.480   2.869  0.5686  2.6101  0.5215
 3723TIP3   OH232659   2.503   0.487   5.328  0.3476  0.5973  0.0936
 3723TIP3    H132660   2.464   0.434   5.398 -0.4937  1.1208  0.0185
 3723TIP3    H232661   2.472   0.447   5.247 -0.5261  1.3950  0.0406
 3724TIP3   OH232662   1.708   6.427   2.081  0.3321  0.2802 -0.1081
 3724TIP3    H132663   1.713   6.353   2.021  1.6202  0.2987 -0.0450
 3724TIP3    H232664   1.735   6.391   2.166  0.4323  0.6965  0.0398
 3725TIP3   OH232665   5.342   4.174  16.944 -0.1991 -0.2738 -0.0957
 3725TIP3    H132666   5.362   4.106  16.879  0.5022 -0.3438  0.1907
 3725TIP3    H232667   5.427   4.195  16.983 -0.8085 -1.2083  1.7724
 3726TIP3   OH232668   6.048   2.193   2.206  0.3638  0.1179 -0.0768
 3726TIP3    H132669   6.074   2.254   2.137  0.9524  0.0760  0.1047
 3726TIP3    H232670   5.974   2.145   2.168 -1.5470  2.4486  0.6071
 3727TIP3   OH232671   1.649   4.041  14.662 -0.1726 -0.4170 -0.5160
 3727TIP3    H132672   1.685   3.961  14.699  1.1294  0.6056  0.4520
 3727TIP3    H232673   1.564   4.051  14.705  0.4894 -0.2693  0.7749
 3728TIP3   OH232674   3.974   5.222  14.012  0.6630 -0.7609 -0.6470
 3728TIP3    H132675   4.016   5.225  13.926  2.8423 -0.3125  0.4037
 3728TIP3    H232676   3.989   5.310  14.048  0.7552 -1.3022  0.6399
 3729TIP3   OH232677   4.245   4.635   2.940  0.7489  0.3067  0.6383
 3729TIP3    H132678   4.223   4.554   2.894  0.7959  0.6664 -0.0182
 3729TIP3    H232679   4.243   4.611   3.033  1.2067 -0.5609  0.4340
 3730TIP3   OH232680   2.646   5.544  15.322  0.9465 -0.5478  0.3746
 3730TIP3    H132681   2.584   5.614  15.345  0.2286 -1.3559  0.9487
 3730TIP3    H232682   2.728   5.590  15.305 -0.2153  0.7211 -2.0860
 3731TIP3   OH232683   2.252   3.876  14.356 -0.3106  0.6296 -0.3237
 3731TIP3    H132684   2.314   3.910  14.421 -1.2570  0.1123  0.8615
 3731TIP3    H232685   2.307   3.831  14.292  0.6902  1.7030 -0.2349
 3732TIP3   OH232686   4.709   2.720  16.059 -0.5087 -0.2227 -0.4090
 3732TIP3    H132687   4.712   2.802  16.011  0.3427 -0.1849 -0.2903
 3732TIP3    H232688   4.660   2.661  16.002 -2.5487  0.8251  0.2006
 3733TIP3   OH232689   3.252   2.662  14.887 -0.4668  0.5890 -0.6939
 3733TIP3    H132690   3.225   2.705  14.969  1.1837 -0.1168  0.2329
 3733TIP3    H232691   3.257   2.733  14.824 -1.6400  1.1642 -0.1633
 3734TIP3   OH232692   3.785   6.615   3.149 -0.2684 -0.3879  0.2905
 3734TIP3    H132693   3.842   6.681   3.189 -0.8625  0.2434  0.1100
 3734TIP3    H232694   3.799   6.536   3.202  0.1523 -0.0067  0.7569
 3735TIP3   OH232695   3.404   5.514  12.667  1.0107  0.3228  0.1416
 3735TIP3    H132696   3.394   5.510  12.762  0.7650  1.6119  0.1759
 3735TIP3    H232697   3.371   5.429  12.636  1.0211 -0.0696  1.1921
 3736TIP3   OH232698   0.075   2.364  12.335  0.7518 -0.0672 -0.3457
 3736TIP3    H132699   0.135   2.291  12.320  0.2094 -0.6099  0.1288
 3736TIP3    H232700  -0.006   2.323  12.366  0.9775  0.8483  1.4962
 3737TIP3   OH232701   1.558   5.493  12.447  0.0153  0.1427  0.8318
 3737TIP3    H132702   1.478   5.514  12.399 -0.4254 -1.1890  0.9683
 3737TIP3    H232703   1.588   5.411  12.409  2.8977  2.0041 -1.1542
 3738TIP3   OH232704   6.453   0.215   5.893  0.0031  0.2613 -0.0533
 3738TIP3    H132705   6.383   0.177   5.839  0.6270 -0.1342 -0.6043
 3738TIP3    H232706   6.411   0.284   5.943 -0.4778  1.0324 -1.4962
 3739TIP3   OH232707   1.810   2.080  14.972  0.6004 -0.6738  0.4351
 3739TIP3    H132708   1.889   2.131  14.956  0.4297 -0.5240  0.0532
 3739TIP3    H232709   1.825   1.997  14.928  0.5969 -0.6958  0.4754
 3740TIP3   OH232710   6.736   0.837  17.227  0.1841  0.1979 -0.2802
 3740TIP3    H132711   6.700   0.847  17.315 -0.1236 -2.1271 -0.1211
 3740TIP3    H232712   6.829   0.824  17.240  0.1523 -0.0514 -0.2916
 3741TIP3   OH232713   5.633   4.938  12.305  0.2980  0.1371 -0.3694
 3741TIP3    H132714   5.607   4.939  12.398 -0.9146  0.2708 -0.6948
 3741TIP3    H232715   5.671   4.852  12.291  0.3423  0.0595  0.2244
 3742TIP3   OH232716   4.956   2.384  15.338  0.6792  0.2206 -0.4690
 3742TIP3    H132717   4.994   2.361  15.422  1.1322  1.1423 -0.4102
 3742TIP3    H232718   4.942   2.300  15.294  2.3639 -0.1618 -0.3014
 3743TIP3   OH232719   3.863   5.334   3.985  0.1912 -0.5235  0.2394
 3743TIP3    H132720   3.794   5.385   3.943 -0.1699 -0.9843  0.2801
 3743TIP3    H232721   3.859   5.359   4.077  0.6522  0.1040  0.0975
 3744TIP3   OH232722   2.074   3.737  15.656 -0.0870  0.2166 -0.2209
 3744TIP3    H132723   2.079   3.832  15.652 -1.8917  0.3182 -0.2399
 3744TIP3    H232724   2.096   3.708  15.567 -0.1430  0.6270 -0.3684
 3745TIP3   OH232725   0.953   0.302  16.374  0.4865 -0.0499  0.9241
 3745TIP3    H132726   0.870   0.341  16.400  1.1166  1.4800  0.6734
 3745TIP3    H232727   0.933   0.209  16.364 -1.8045  0.6339 -1.6300
 3746TIP3   OH232728   2.300   2.638   1.598  0.3591  0.2922  0.0308
 3746TIP3    H132729   2.292   2.700   1.671  0.7116  1.0552 -0.5687
 3746TIP3    H232730   2.373   2.671   1.546 -0.1262 -0.0255 -0.8723
 3747TIP3   OH232731   2.533   5.642  16.321 -0.2573 -0.4762  0.4540
 3747TIP3    H132732   2.442   5.665  16.301  0.2234  0.4412 -0.7532
 3747TIP3    H232733   2.584   5.716  16.290  0.8132 -0.3642  2.3988
 3748TIP3   OH232734   2.003   5.980  17.158  0.5003  0.3810 -0.2973
 3748TIP3    H132735   2.083   6.023  17.127  1.3337 -0.1507  1.0722
 3748TIP3    H232736   1.932   6.035  17.123  1.4227  0.5549 -1.9832
 3749TIP3   OH232737   6.759   0.983   3.439 -0.0510 -0.3279  0.0467
 3749TIP3    H132738   6.727   0.984   3.530 -2.2523 -1.3384 -0.6644
 3749TIP3    H232739   6.852   0.964   3.447 -0.2891 -0.8588  2.0995
 3750TIP3   OH232740   6.662   1.929   4.367 -0.2015 -0.2977  0.2292
 3750TIP3    H132741   6.663   1.944   4.272  1.0895 -1.2578  0.0825
 3750TIP3    H232742   6.750   1.954   4.396 -0.3069 -0.8684  1.0481
 3751TIP3   OH232743   4.697   3.026   5.178 -0.1759  0.7520  0.1654
 3751TIP3    H132744   4.646   3.097   5.217 -1.7086  0.0745 -0.5784
 3751TIP3    H232745   4.656   3.011   5.093 -0.0874 -1.2653  0.4685
 3752TIP3   OH232746   3.627   6.260   2.131 -0.4397 -0.2747 -0.9446
 3752TIP3    H132747   3.666   6.334   2.178  0.3474  0.2026 -2.2935
 3752TIP3    H232748   3.665   6.182   2.172 -0.4625  0.1093 -0.1976
 3753TIP3   OH232749   2.664   2.951   5.342  0.8294 -0.0282  0.1670
 3753TIP3    H132750   2.735   2.995   5.294 -0.7582  0.5946 -1.7063
 3753TIP3    H232751   2.590   3.011   5.334  0.0469 -0.7188  2.0066
 3754TIP3   OH232752   4.514   4.441  15.796  0.0340 -0.3049 -0.3975
 3754TIP3    H132753   4.477   4.408  15.878  0.3820 -1.2231 -0.6069
 3754TIP3    H232754   4.439   4.455  15.739  0.0629 -2.9543 -1.1166
 3755TIP3   OH232755   4.093   3.507   2.907 -0.1753  0.0524  0.2377
 3755TIP3    H132756   4.002   3.539   2.901  0.1541  0.8061 -1.0076
 3755TIP3    H232757   4.136   3.545   2.830  0.5795 -2.3228 -0.5490
 3756TIP3   OH232758   3.302   1.906  12.099 -0.2617  0.5038  0.1543
 3756TIP3    H132759   3.392   1.915  12.131  0.7283  0.6125 -2.5399
 3756TIP3    H232760   3.262   1.990  12.118  0.2074  0.4764  1.3313
 3757TIP3   OH232761   3.841   0.230   5.732 -0.1340 -0.2040  0.0829
 3757TIP3    H132762   3.771   0.228   5.797 -0.2546  0.2239 -0.0359
 3757TIP3    H232763   3.829   0.150   5.681  0.2256 -0.7672  0.8684
 3758TIP3   OH232764   3.242   2.946   1.584 -0.0115 -0.2335  0.2059
 3758TIP3    H132765   3.332   2.912   1.590 -0.2469 -0.9456 -0.2109
 3758TIP3    H232766   3.227   2.957   1.490 -1.1850 -2.4065  0.1054
 3759TIP3   OH232767   1.107   5.673   0.211  0.1169  0.1444  0.2096
 3759TIP3    H132768   1.112   5.657   0.116  1.2887  0.6279  0.1749
 3759TIP3    H232769   1.020   5.710   0.225 -1.2577 -2.7975 -0.2341
 3760TIP3   OH232770   1.520   4.697   1.315  0.1770 -0.2439 -0.7740
 3760TIP3    H132771   1.554   4.609   1.329 -0.9463 -0.7262 -1.0612
 3760TIP3    H232772   1.527   4.712   1.221  0.3539 -0.0281 -0.7287
 3761TIP3   OH232773   5.103   2.400   0.938 -0.4943  0.1402 -0.2551
 3761TIP3    H132774   5.062   2.314   0.939  1.4876 -0.9133 -2.8616
 3761TIP3    H232775   5.196   2.381   0.923  0.0629  2.7003 -0.1884
 3762TIP3   OH232776   5.958   5.711   3.200  0.2307 -0.4702 -1.1318
 3762TIP3    H132777   5.993   5.719   3.289  0.2144  0.9390 -1.2367
 3762TIP3    H232778   5.878   5.659   3.211 -0.8783  1.4115 -0.0161
 3763TIP3   OH232779   1.143   3.955  16.398 -0.0190 -0.6170 -0.1368
 3763TIP3    H132780   1.117   3.914  16.481  2.6778  1.3196  1.7573
 3763TIP3    H232781   1.191   3.887  16.352 -0.3523 -1.3016  0.5099
 3764TIP3   OH232782   6.013   0.268  12.474 -0.7242 -0.7128 -0.4254
 3764TIP3    H132783   6.006   0.358  12.443 -0.8650 -0.5033  0.2011
 3764TIP3    H232784   6.063   0.276  12.556 -0.4883 -1.2358 -0.5190
 3765TIP3   OH232785   5.824   5.821  16.242 -0.2465 -0.5668 -0.2473
 3765TIP3    H132786   5.837   5.912  16.217  1.2939 -0.0034  2.3849
 3765TIP3    H232787   5.902   5.776  16.212  0.3546 -0.4209  1.0715
 3766TIP3   OH232788   6.139   4.312  14.584 -0.1426  0.8351 -0.0299
 3766TIP3    H132789   6.061   4.360  14.557 -0.8678 -0.3348 -0.0583
 3766TIP3    H232790   6.143   4.236  14.525 -0.4289 -0.4856  1.6032
 3767TIP3   OH232791   2.966   6.794  14.618 -0.2084  0.0109 -0.4454
 3767TIP3    H132792   2.997   6.869  14.669 -0.1976  0.5944 -1.2868
 3767TIP3    H232793   2.990   6.816  14.528  0.0457 -1.1423 -0.6614
 3768TIP3   OH232794   6.151   0.592   1.479  0.8893  0.1486  0.3361
 3768TIP3    H132795   6.114   0.669   1.436  0.2626  0.8289  2.0550
 3768TIP3    H232796   6.080   0.528   1.479  0.7601  0.2929  0.7286
 3769TIP3   OH232797   6.368   4.129   0.535 -0.1074  0.2624 -0.6200
 3769TIP3    H132798   6.323   4.054   0.574  0.9748 -0.1680 -0.1745
 3769TIP3    H232799   6.309   4.203   0.550 -0.7429 -0.3258 -0.1965
 3770TIP3   OH232800   3.902   3.380  12.465  0.1130 -0.3510  0.4390
 3770TIP3    H132801   3.823   3.429  12.445 -0.2441 -1.0621  0.0925
 3770TIP3    H232802   3.908   3.383  12.561  0.3427  0.7399  0.3967
 3771TIP3   OH232803   3.822   4.981  13.209  0.0157 -0.0311 -0.0430
 3771TIP3    H132804   3.915   5.006  13.204  0.4131 -1.7408 -1.9417
 3771TIP3    H232805   3.782   5.023  13.133 -0.3166 -1.1405 -0.4765
 3772TIP3   OH232806   1.265   6.072  14.684 -0.1370  0.4121 -0.1642
 3772TIP3    H132807   1.306   6.023  14.613  0.2544  1.4286 -0.6448
 3772TIP3    H232808   1.184   6.105  14.646 -0.8854 -0.6653  0.4537
 3773TIP3   OH232809   3.572   0.896  11.385  0.5026  0.1419 -0.3338
 3773TIP3    H132810   3.490   0.942  11.399  0.2067 -0.0065 -1.5559
 3773TIP3    H232811   3.585   0.898  11.290  2.0527  0.4228 -0.1256
 3774TIP3   OH232812   2.528   1.045  16.904 -0.3197 -0.0450  0.1508
 3774TIP3    H132813   2.433   1.047  16.890 -0.3107  0.2319  0.1235
 3774TIP3    H232814   2.561   0.992  16.831 -0.5805 -1.2419  0.8961
 3775TIP3   OH232815   5.168   1.853  12.513 -0.0139 -0.3639  0.0813
 3775TIP3    H132816   5.236   1.919  12.501  1.1044 -1.2033  1.6140
 3775TIP3    H232817   5.111   1.889  12.581 -0.0991 -0.4355  0.0489
 3776TIP3   OH232818   6.187   4.956   0.878 -0.6374  0.1511  0.0075
 3776TIP3    H132819   6.186   5.026   0.944  1.6145  0.3766 -0.1452
 3776TIP3    H232820   6.156   4.878   0.926 -1.8326  0.9330  0.5371
 3777TIP3   OH232821   2.606   1.718   5.261  0.3341  0.5457 -0.0167
 3777TIP3    H132822   2.681   1.702   5.319  0.3455  1.6843  0.2952
 3777TIP3    H232823   2.531   1.719   5.320 -0.1588 -2.1685 -0.5140
 3778TIP3   OH232824   4.443   4.114   4.980  0.2933  0.3061 -0.0661
 3778TIP3    H132825   4.478   4.030   4.950 -1.9889 -0.1288 -1.6844
 3778TIP3    H232826   4.489   4.132   5.062  1.5998 -1.9872 -0.2607
 3779TIP3   OH232827   1.030   0.853   0.967  0.7170 -0.0449 -0.2507
 3779TIP3    H132828   1.073   0.929   0.928 -1.7419  1.3439 -0.3673
 3779TIP3    H232829   1.010   0.796   0.893  1.6078 -0.3191 -0.2858
 3780TIP3   OH232830   4.512   1.652  16.159 -0.3647  0.0780  0.1307
 3780TIP3    H132831   4.511   1.662  16.064 -0.6467  0.1481  0.1384
 3780TIP3    H232832   4.424   1.623  16.181 -0.4490  0.5338  0.4148
 3781TIP3   OH232833   6.554   4.995  17.049  0.6193 -0.0321  0.0017
 3781TIP3    H132834   6.503   4.964  17.124  0.6119  0.4798  0.2120
 3781TIP3    H232835   6.598   5.074  17.081  0.6528  0.1609 -0.5143
 3782TIP3   OH232836   1.044   1.469   1.165  0.0050  0.1038  0.7320
 3782TIP3    H132837   1.017   1.387   1.207  1.9129 -0.8664  0.1294
 3782TIP3    H232838   1.082   1.521   1.236 -3.0342  1.3570  1.5251
 3783TIP3   OH232839   0.002   3.502  13.825  0.3631  0.0393  0.2568
 3783TIP3    H132840  -0.008   3.595  13.808 -0.4249  0.1765  1.4714
 3783TIP3    H232841  -0.080   3.463  13.795  0.2848 -0.1307  0.6888
 3784TIP3   OH232842   1.800   0.816  15.703  0.1550  0.0929  0.2689
 3784TIP3    H132843   1.843   0.786  15.783  1.3932  0.7960 -0.1180
 3784TIP3    H232844   1.714   0.846  15.732  0.3517 -0.2552  1.2327
 3785TIP3   OH232845   2.386   2.388   1.577 -0.8673 -0.1902  0.7946
 3785TIP3    H132846   2.474   2.417   1.553 -1.0690 -0.2679 -0.0463
 3785TIP3    H232847   2.333   2.468   1.577 -1.0350 -0.3005  0.2248
 3786TIP3   OH232848   5.240   5.060   4.400 -0.3089 -0.2024 -0.2937
 3786TIP3    H132849   5.156   5.095   4.431  0.0153 -1.9062  2.7288
 3786TIP3    H232850   5.229   4.965   4.404  1.0187 -0.4492 -2.0630
 3787TIP3   OH232851   4.115   4.824  16.462 -0.1775 -0.0384 -0.0144
 3787TIP3    H132852   4.082   4.819  16.552  0.2739 -2.7984  0.0462
 3787TIP3    H232853   4.209   4.811  16.470 -0.1811 -0.6343 -0.9137
 3788TIP3   OH232854   2.549   4.863  17.236 -0.4678  0.2010  0.6752
 3788TIP3    H132855   2.473   4.805  17.241 -0.7710  0.5108 -0.3164
 3788TIP3    H232856   2.523   4.942  17.284 -0.8800  0.4273  0.0760
 3789TIP3   OH232857   5.446   0.048   2.858 -0.6342 -0.1496  0.1863
 3789TIP3    H132858   5.492   0.091   2.786 -1.1894 -1.1177 -0.7535
 3789TIP3    H232859   5.382   0.112   2.888  0.9033  0.9809  1.0954
 3790TIP3   OH232860   0.958   4.932   5.974  0.6667 -0.2428 -0.3053
 3790TIP3    H132861   0.962   5.026   5.957  0.6489 -0.3527 -0.9033
 3790TIP3    H232862   1.024   4.917   6.042 -1.3011  0.6844  1.9179
 3791TIP3   OH232863   1.436   5.114  14.460  0.1243  0.2372  0.4052
 3791TIP3    H132864   1.442   5.042  14.523  1.7881  1.4243  1.6384
 3791TIP3    H232865   1.360   5.164  14.488 -0.9437 -0.9277 -0.3598
 3792TIP3   OH232866   6.380   5.213   5.739  0.0342  0.1884 -0.2926
 3792TIP3    H132867   6.384   5.188   5.647  0.1579  2.4192 -0.9350
 3792TIP3    H232868   6.412   5.137   5.786 -2.4740 -1.9504 -1.9135
 3793TIP3   OH232869   5.606   6.368  14.884  0.3369  0.4885 -0.4438
 3793TIP3    H132870   5.636   6.284  14.920  3.4256  1.1959 -1.1952
 3793TIP3    H232871   5.686   6.421  14.877 -1.2500  2.8016 -1.8448
 3794TIP3   OH232872   0.553   4.269  14.664 -0.0956 -0.6395 -0.2385
 3794TIP3    H132873   0.477   4.255  14.609  0.0727  0.8272 -0.8790
 3794TIP3    H232874   0.562   4.364  14.669  2.5777 -0.7771 -1.4224
 3795TIP3   OH232875   2.000   1.206  17.221 -0.4604  0.0127  0.2201
 3795TIP3    H132876   1.980   1.300  17.223  1.0026  0.3096  1.4925
 3795TIP3    H232877   2.090   1.202  17.189 -1.0890 -1.0755 -1.4649
 3796TIP3   OH232878   6.297   4.199  12.520 -0.0573 -0.3340  0.3053
 3796TIP3    H132879   6.345   4.262  12.575 -0.1329  1.2411 -1.3788
 3796TIP3    H232880   6.205   4.217  12.538 -0.0596 -1.1440  1.1114
 3797TIP3   OH232881   5.472   6.808  15.626 -0.1574  0.2461  0.0175
 3797TIP3    H132882   5.554   6.773  15.592  0.8373  1.4326  1.1816
 3797TIP3    H232883   5.448   6.877  15.564  0.3887  0.7604  0.3758
 3798TIP3   OH232884   5.558   4.769  11.678  0.7789  0.0640  0.3053
 3798TIP3    H132885   5.487   4.825  11.647  1.0525 -0.0953 -0.6262
 3798TIP3    H232886   5.541   4.684  11.638  0.2543 -0.5776  1.8791
 3799TIP3   OH232887   2.141   5.393  14.137  0.0239  0.9899  0.7940
 3799TIP3    H132888   2.105   5.480  14.117 -0.1625  0.4104 -1.4139
 3799TIP3    H232889   2.226   5.392  14.094  0.2201  0.2237  1.2050
 3800TIP3   OH232890   1.609   0.705   3.792  0.1185 -0.7338  0.8151
 3800TIP3    H132891   1.604   0.746   3.878 -0.2801  1.2529 -0.1107
 3800TIP3    H232892   1.686   0.745   3.751 -1.0881  0.1962 -0.6310
 3801TIP3   OH232893   4.209   6.724  11.347 -0.1086  0.2234 -0.4587
 3801TIP3    H132894   4.126   6.711  11.393 -0.9251 -1.6139 -2.3710
 3801TIP3    H232895   4.248   6.637  11.343  1.8703  1.0541  0.2978
 3802TIP3   OH232896   0.438   3.110  17.217 -0.0644 -0.2887  0.2347
 3802TIP3    H132897   0.513   3.163  17.242 -0.5598  0.1069  0.8886
 3802TIP3    H232898   0.468   3.020  17.226  0.5018 -0.1281 -0.0319
 3803TIP3   OH232899   6.037   4.749  16.044  0.0256 -0.3781  0.4102
 3803TIP3    H132900   5.969   4.721  15.984  0.5495 -1.1158  0.1483
 3803TIP3    H232901   6.062   4.836  16.015 -0.1470 -0.4930 -0.0765
 3804TIP3   OH232902   2.335   3.275   4.749 -0.0155  0.0697 -0.2529
 3804TIP3    H132903   2.356   3.186   4.774  0.4372  0.5667  1.1723
 3804TIP3    H232904   2.343   3.326   4.830 -0.7085  1.3200 -0.9509
 3805TIP3   OH232905   5.936   3.891  12.122 -0.7919 -0.0003  0.2497
 3805TIP3    H132906   5.860   3.849  12.082  0.0411 -1.7499  0.4549
 3805TIP3    H232907   5.966   3.829  12.188 -0.3389  1.5294  1.5251
 3806TIP3   OH232908   5.368   6.726  14.216  0.6619 -0.3845 -0.1449
 3806TIP3    H132909   5.436   6.678  14.262 -1.1253 -0.1958  2.8334
 3806TIP3    H232910   5.296   6.664  14.208 -0.3237  0.6628  0.4584
 3807TIP3   OH232911   1.562   0.960  15.778 -0.2563  0.2989 -0.1100
 3807TIP3    H132912   1.597   1.048  15.792 -0.7171  0.8157 -2.0395
 3807TIP3    H232913   1.487   0.954  15.838  1.7211 -0.0177  2.4326
 3808TIP3   OH232914   3.886   2.637   1.941  0.5445  0.2733  0.2382
 3808TIP3    H132915   3.929   2.551   1.939 -1.0291 -0.5056 -0.9513
 3808TIP3    H232916   3.959   2.699   1.946  1.9135 -0.9967 -2.5442
 3809TIP3   OH232917   1.369   4.424   3.536 -0.3229 -0.1194 -0.2907
 3809TIP3    H132918   1.458   4.395   3.555 -0.1868  1.0931  0.9807
 3809TIP3    H232919   1.356   4.500   3.592 -2.3201 -0.5425 -0.1502
 3810TIP3   OH232920   1.387   4.948   4.688 -0.8358 -0.3128 -0.2443
 3810TIP3    H132921   1.316   5.012   4.693 -1.1523 -0.8021  2.1102
 3810TIP3    H232922   1.347   4.865   4.712  0.0717 -0.9942 -1.0434
 3811TIP3   OH232923   4.216   3.869   4.306  0.3995  0.0082  0.1147
 3811TIP3    H132924   4.137   3.913   4.272  0.4423 -0.5163 -0.6738
 3811TIP3    H232925   4.250   3.820   4.232  1.8412  0.7334  0.2848
 3812TIP3   OH232926   0.681   5.691  16.384  0.0006  0.2769  0.0045
 3812TIP3    H132927   0.680   5.677  16.479  2.7703  2.5576  0.4265
 3812TIP3    H232928   0.743   5.626  16.351  0.8203  1.0347  0.0466
 3813TIP3   OH232929   3.268   3.442  13.791  0.2526  0.2983 -0.5438
 3813TIP3    H132930   3.347   3.389  13.778  0.2074 -0.2342  1.1485
 3813TIP3    H232931   3.196   3.379  13.786  0.0882  0.4432  0.0080
 3814TIP3   OH232932   6.715   1.469  16.627 -0.1619 -0.0466 -0.2300
 3814TIP3    H132933   6.673   1.467  16.541  0.0828  0.2983 -0.3568
 3814TIP3    H232934   6.710   1.378  16.658  1.1733 -0.5137 -1.3123
 3815TIP3   OH232935   3.206   1.520   1.457 -0.4623 -0.5251 -0.0049
 3815TIP3    H132936   3.168   1.432   1.456  0.1099 -0.7977  1.5627
 3815TIP3    H232937   3.280   1.515   1.397 -0.6110 -1.0310 -0.1520
 3816TIP3   OH232938   2.241   0.716  13.447  0.1660  0.5288 -0.0221
 3816TIP3    H132939   2.198   0.800  13.460 -1.2793 -0.1582 -0.2904
 3816TIP3    H232940   2.332   0.738  13.429  0.2342  1.9381  1.8644
 3817TIP3   OH232941   4.836   2.452  13.290  0.3487 -0.7414 -0.5335
 3817TIP3    H132942   4.855   2.397  13.214 -0.5622  0.0014 -1.3184
 3817TIP3    H232943   4.746   2.430  13.313  1.4477 -2.8545  1.9676
 3818TIP3   OH232944   4.406   5.571   5.577  0.0611  0.3739 -0.9961
 3818TIP3    H132945   4.318   5.589   5.611 -0.1960 -0.4480 -1.2050
 3818TIP3    H232946   4.394   5.558   5.483  0.2985 -0.4350 -0.9164
 3819TIP3   OH232947   2.871   1.954   2.417  0.1785 -0.0133 -0.1315
 3819TIP3    H132948   2.924   2.030   2.439 -0.5264  0.9641 -1.7169
 3819TIP3    H232949   2.860   1.908   2.500  2.8819  0.1348  0.3601
 3820TIP3   OH232950   4.631   0.032   3.569  0.2310 -0.2829 -0.1531
 3820TIP3    H132951   4.543   0.035   3.533  0.7488 -0.8643 -1.4712
 3820TIP3    H232952   4.668  -0.050   3.536  1.1003 -0.2775  0.7804
 3821TIP3   OH232953   4.169   6.020  14.837 -0.0321  0.5637 -0.0046
 3821TIP3    H132954   4.215   6.033  14.919  1.7269 -2.9367 -0.3298
 3821TIP3    H232955   4.089   5.972  14.861  1.2624 -1.8916 -0.4388
 3822TIP3   OH232956   2.894   6.570  13.611  0.1103  0.0556  0.5630
 3822TIP3    H132957   2.892   6.600  13.702 -0.3588 -0.6423  0.7828
 3822TIP3    H232958   2.899   6.651  13.559  1.8228  0.4130  1.2459
 3823TIP3   OH232959   2.526   2.934  10.589  0.2760  0.1570  0.4046
 3823TIP3    H132960   2.489   3.001  10.647  0.3653  0.3700  0.2204
 3823TIP3    H232961   2.450   2.902  10.539  0.1680 -0.1684  0.7776
 3824TIP3   OH232962   6.390   5.858  10.241 -0.3934  0.3057 -0.4961
 3824TIP3    H132963   6.419   5.800  10.312 -3.8895 -0.7706  0.2114
 3824TIP3    H232964   6.402   5.946  10.276  0.8418 -0.1372  0.2082
 3825TIP3   OH232965   1.694   5.265  12.741  0.3320 -0.0615  0.1116
 3825TIP3    H132966   1.706   5.257  12.646 -0.1943  0.4251 -0.0031
 3825TIP3    H232967   1.753   5.201  12.779  0.6707 -0.1371 -0.5452
 3826TIP3   OH232968   1.980   1.757  14.484  0.5137  0.3265  0.3877
 3826TIP3    H132969   2.042   1.688  14.464  1.0588  0.4634  1.5552
 3826TIP3    H232970   1.916   1.754  14.413  1.7179  0.0258 -0.6876
 3827TIP3   OH232971   2.360   3.100  13.225 -0.0858 -0.0766  0.1538
 3827TIP3    H132972   2.268   3.100  13.251 -0.0725  0.4303  0.2001
 3827TIP3    H232973   2.406   3.139  13.299 -0.0156  1.1077 -0.5088
 3828TIP3   OH232974   0.281   2.576  12.451  0.5076 -0.5938 -0.1800
 3828TIP3    H132975   0.317   2.531  12.375 -2.0672 -0.9183 -1.2328
 3828TIP3    H232976   0.205   2.623  12.418  0.9895  1.5909  1.6366
 3829TIP3   OH232977   5.886   2.711  12.066  0.3646  0.0522  0.3118
 3829TIP3    H132978   5.925   2.759  11.993 -0.9220  0.8180  0.1291
 3829TIP3    H232979   5.814   2.662  12.027 -0.9273  1.1933  1.2133
 3830TIP3   OH232980   6.424   0.415   3.445  0.1393  0.0084  0.2195
 3830TIP3    H132981   6.421   0.467   3.365 -0.9962 -2.6800 -1.5458
 3830TIP3    H232982   6.469   0.471   3.508  1.9330  1.8294 -2.5687
 3831TIP3   OH232983   4.613   0.926   3.028 -0.5333  0.0195 -0.1849
 3831TIP3    H132984   4.674   0.939   3.101 -1.9788 -0.2151  1.1083
 3831TIP3    H232985   4.624   1.004   2.973 -1.4214  1.6146  1.8062
 3832TIP3   OH232986   0.606   3.460  12.676 -0.1313  0.0804 -0.3309
 3832TIP3    H132987   0.538   3.397  12.702  0.1693  0.1096  0.5428
 3832TIP3    H232988   0.569   3.545  12.697  0.4972  0.0585  0.9597
 3833TIP3   OH232989   4.350   3.774   6.093  0.2492  0.2462  0.1113
 3833TIP3    H132990   4.295   3.819   6.029  0.0513 -0.9026 -0.5539
 3833TIP3    H232991   4.362   3.837   6.164 -2.8542  0.1265  0.8001
 3834TIP3   OH232992   1.158   2.407  12.704  0.3659  0.1999  0.4744
 3834TIP3    H132993   1.163   2.399  12.608 -0.2048 -1.7143  0.5804
 3834TIP3    H232994   1.224   2.346  12.736 -0.8711 -0.7154  1.3210
 3835TIP3   OH232995   6.140   0.507   3.401 -0.2021  0.1898  0.2456
 3835TIP3    H132996   6.056   0.464   3.382 -1.1280  1.2748  1.7671
 3835TIP3    H232997   6.195   0.487   3.326 -1.4259 -1.5856 -0.2070
 3836TIP3   OH232998   3.488   2.870  11.305  0.8014  0.4373  0.8936
 3836TIP3    H132999   3.509   2.777  11.318  0.5757  0.3408  0.5789
 3836TIP3    H233000   3.444   2.873  11.220  0.0241  0.7101  1.2939
 3837TIP3   OH233001   0.922   4.452   1.022 -0.1330 -0.5837 -0.3520
 3837TIP3    H133002   0.889   4.369   1.055 -0.7308  0.1761  0.9880
 3837TIP3    H233003   1.011   4.459   1.057 -0.9839  0.5051  1.6365
 3838TIP3   OH233004   3.280   0.789  14.746  0.0320 -0.4291  0.8200
 3838TIP3    H133005   3.275   0.696  14.769 -1.9584 -0.4077  0.5633
 3838TIP3    H233006   3.243   0.835  14.822  1.5604  0.2122  1.1976
 3839TIP3   OH233007   2.053   2.345  11.877 -0.2188 -0.6083 -0.3041
 3839TIP3    H133008   2.148   2.339  11.876 -0.1662  0.0883  0.2990
 3839TIP3    H233009   2.033   2.431  11.842 -0.5494 -0.0428  1.2146
 3840TIP3   OH233010   3.360   5.748   1.998 -0.4689 -0.0997 -0.1618
 3840TIP3    H133011   3.408   5.745   2.081  1.4595  0.7187 -1.2234
 3840TIP3    H233012   3.414   5.801   1.941 -1.6976 -0.7963 -2.0186
 3841TIP3   OH233013   4.529   5.619   3.509 -0.5038 -0.1968 -0.4441
 3841TIP3    H133014   4.552   5.637   3.600  2.8385 -1.1748 -1.0239
 3841TIP3    H233015   4.455   5.558   3.515  1.0169 -1.9137  1.6776
 3842TIP3   OH233016   5.787   0.993   0.774  0.3683 -0.1800  0.0585
 3842TIP3    H133017   5.801   1.045   0.854  1.1440  1.5475 -1.1550
 3842TIP3    H233018   5.756   1.057   0.710  1.6799 -1.1759 -1.5843
 3843TIP3   OH233019   1.993   1.637   2.328 -0.1089  0.7286 -0.2071
 3843TIP3    H133020   2.022   1.592   2.407  2.0139 -0.2653 -1.5225
 3843TIP3    H233021   1.936   1.574   2.284  1.7526 -0.1836 -1.3525
 3844TIP3   OH233022   6.171   0.709   3.120 -0.2922 -1.0317  0.1211
 3844TIP3    H133023   6.085   0.731   3.157 -0.6387 -0.4504 -0.9673
 3844TIP3    H233024   6.173   0.759   3.038  0.8531 -1.5017 -0.1307
 3845TIP3   OH233025   1.297   3.420   5.450 -0.7733  0.0492  0.2296
 3845TIP3    H133026   1.355   3.496   5.447 -0.6733 -0.0871 -2.1199
 3845TIP3    H233027   1.353   3.345   5.435 -1.0954 -0.3799  1.1077
 3846TIP3   OH233028   1.250   1.421   5.769 -0.6060 -0.3800 -0.4587
 3846TIP3    H133029   1.166   1.467   5.777 -0.0898  0.6859 -1.0264
 3846TIP3    H233030   1.302   1.477   5.712 -0.1318 -1.9378 -1.5877
 3847TIP3   OH233031   0.076   1.252  13.777  0.0562  0.1819 -0.1117
 3847TIP3    H133032   0.087   1.239  13.871  0.7941  1.9536  0.0617
 3847TIP3    H233033   0.007   1.318  13.770 -0.0949 -0.0452 -0.8380
 3848TIP3   OH233034   0.199   4.057  17.098  0.3128  0.2458 -0.2234
 3848TIP3    H133035   0.260   4.050  17.171 -0.1546  0.4234  0.1859
 3848TIP3    H233036   0.155   4.141  17.111  0.6538  0.5546 -1.0483
 3849TIP3   OH233037   0.076   3.740   1.828 -0.0882  0.0112  0.6241
 3849TIP3    H133038  -0.008   3.730   1.783 -0.1144 -0.3202  0.7526
 3849TIP3    H233039   0.065   3.820   1.880 -0.3686 -0.1098  0.7499
 3850TIP3   OH233040   0.963   3.299   2.297 -0.3677  0.5990  0.5785
 3850TIP3    H133041   0.881   3.269   2.335 -1.6261  2.0293 -0.9155
 3850TIP3    H233042   0.954   3.280   2.203  1.2170  0.3195  0.4661
 3851TIP3   OH233043   2.690   2.395  14.816 -0.1852  0.5102 -0.0214
 3851TIP3    H133044   2.721   2.305  14.825 -1.6268 -0.0504 -0.3862
 3851TIP3    H233045   2.682   2.408  14.722 -0.1840  0.9391  0.0410
 3852TIP3   OH233046   1.668   5.774   2.140  0.1483  0.2532  0.6584
 3852TIP3    H133047   1.590   5.828   2.156 -0.3985  0.7047 -3.0594
 3852TIP3    H233048   1.739   5.838   2.134 -0.1766  0.4373 -1.7240
 3853TIP3   OH233049   3.211   2.683   0.583 -0.1814  0.1348  0.2864
 3853TIP3    H133050   3.193   2.624   0.510 -0.0590 -0.3673  0.6623
 3853TIP3    H233051   3.298   2.658   0.614 -0.5172 -0.1238  1.0476
 3854TIP3   OH233052   2.529   1.526   2.735  0.1704 -0.3034 -0.0848
 3854TIP3    H133053   2.607   1.551   2.784  0.2306  0.3823 -0.5414
 3854TIP3    H233054   2.552   1.442   2.695  1.4700  0.9487 -2.0361
 3855TIP3   OH233055   5.556   6.178   3.765  0.0412  0.1122 -0.1623
 3855TIP3    H133056   5.523   6.265   3.786  0.7194  0.6221 -1.1763
 3855TIP3    H233057   5.558   6.132   3.849  2.9974  2.2006  0.9688
 3856TIP3   OH233058   5.034   3.690   0.812 -0.3426  0.5040 -1.0326
 3856TIP3    H133059   4.977   3.614   0.824  0.2405  0.1754 -0.3198
 3856TIP3    H233060   5.096   3.662   0.744  0.6308 -0.1066  0.0878
 3857TIP3   OH233061   5.537   3.827  14.626 -0.1087  0.2828  1.3435
 3857TIP3    H133062   5.490   3.779  14.694  1.1476  0.4617  2.3633
 3857TIP3    H233063   5.504   3.916  14.631 -1.7392 -0.2243  0.1001
 3858TIP3   OH233064   2.276   1.485   4.375 -0.1076  0.5337  0.5551
 3858TIP3    H133065   2.201   1.536   4.342  0.0233  0.8537  0.7489
 3858TIP3    H233066   2.315   1.448   4.296 -1.9082 -1.6656  0.6391
 3859TIP3   OH233067   0.530   5.126  12.485  0.4424  0.6039 -0.3602
 3859TIP3    H133068   0.621   5.141  12.513  0.4691 -1.5595  0.8658
 3859TIP3    H233069   0.479   5.193  12.531  1.1571  0.4166  0.7316
 3860TIP3   OH233070   3.893   3.655   6.758  0.1800 -0.9921  0.2336
 3860TIP3    H133071   3.876   3.567   6.725  0.8844 -1.0390 -0.0126
 3860TIP3    H233072   3.976   3.647   6.805  1.2030 -0.0471 -1.3936
 3861TIP3   OH233073   0.782   0.210  13.931  0.3630  0.3680  0.2465
 3861TIP3    H133074   0.786   0.136  13.992  0.3680  0.9013  0.8890
 3861TIP3    H233075   0.835   0.278  13.972  0.4709  0.6874 -0.4124
 3862TIP3   OH233076   0.433   0.377  11.339  0.1949 -0.0883  0.1670
 3862TIP3    H133077   0.371   0.323  11.387  0.3550 -1.2848 -0.9769
 3862TIP3    H233078   0.445   0.333  11.255  1.9233  0.5888  0.0349
 3863TIP3   OH233079   6.577   6.516  14.663 -0.3210 -0.0942  0.3662
 3863TIP3    H133080   6.493   6.476  14.686 -0.5598 -0.1365 -0.5578
 3863TIP3    H233081   6.590   6.494  14.570 -0.8452  2.6068 -0.3918
 3864TIP3   OH233082   2.476   6.282  15.169 -0.1780  0.4249 -0.1658
 3864TIP3    H133083   2.567   6.310  15.177 -0.2051  0.5523 -0.3076
 3864TIP3    H233084   2.429   6.337  15.231 -0.0865  0.0267  0.2557
 3865TIP3   OH233085   0.824   2.646  11.074  0.3910 -0.0769 -0.0574
 3865TIP3    H133086   0.785   2.681  11.155  0.2081 -1.5764  0.5101
 3865TIP3    H233087   0.780   2.695  11.004  0.5771  1.2631  0.7438
 3866TIP3   OH233088   0.378   4.802   5.113 -0.2236 -0.4180 -0.4084
 3866TIP3    H133089   0.336   4.887   5.101 -0.7077 -0.7901 -1.3329
 3866TIP3    H233090   0.462   4.809   5.067  0.8889  0.4086  1.6434
 3867TIP3   OH233091   6.651   2.275  13.388  0.2308 -0.4133  0.1307
 3867TIP3    H133092   6.733   2.272  13.339  1.0914 -0.8896  1.5699
 3867TIP3    H233093   6.658   2.203  13.451 -1.6627 -1.0103 -0.3135
 3868TIP3   OH233094   1.753   4.791  12.190 -0.5862  0.1870  0.5546
 3868TIP3    H133095   1.748   4.884  12.168  1.2479  0.1100 -0.2372
 3868TIP3    H233096   1.736   4.746  12.107  1.7270 -0.1406  0.2364
 3869TIP3   OH233097   2.625   5.375   0.614 -0.6081  0.4695 -0.2195
 3869TIP3    H133098   2.584   5.461   0.602 -0.8022  0.5112  0.7681
 3869TIP3    H233099   2.595   5.345   0.699  1.1872  0.3733  0.4066
 3870TIP3   OH233100   1.934   3.125   5.589  0.1249 -0.3165  0.1435
 3870TIP3    H133101   1.936   3.206   5.640 -2.2444 -1.1519  1.6507
 3870TIP3    H233102   1.962   3.057   5.650 -0.4174 -0.9975 -0.3558
 3871TIP3   OH233103   6.531   5.347   5.393 -0.6070  0.1004 -0.1712
 3871TIP3    H133104   6.459   5.294   5.427  0.0497 -0.4895  0.3103
 3871TIP3    H233105   6.592   5.284   5.355  0.8526  0.3840  1.6414
 3872TIP3   OH233106   4.343   4.566   4.690 -1.1510 -0.9435 -0.3536
 3872TIP3    H133107   4.416   4.628   4.684 -1.6346 -0.4946 -1.6217
 3872TIP3    H233108   4.369   4.506   4.760  1.0327 -1.5566 -1.6281
 3873TIP3   OH233109   3.234   0.875   1.936 -0.1448 -0.1948  0.5890
 3873TIP3    H133110   3.253   0.912   1.850 -0.7951 -0.2475  0.4201
 3873TIP3    H233111   3.139   0.868   1.939 -0.1167 -0.3897  1.2323
 3874TIP3   OH233112   4.095   0.644   3.418  0.2528  0.2912  0.4718
 3874TIP3    H133113   4.079   0.732   3.451 -1.5951 -0.3640  1.4217
 3874TIP3    H233114   4.008   0.610   3.396  0.8912 -1.3891  0.4077
 3875TIP3   OH233115   0.437   1.074   0.657  0.0143  0.3853 -0.2892
 3875TIP3    H133116   0.359   1.018   0.658 -0.6471  1.2937 -0.1377
 3875TIP3    H233117   0.504   1.024   0.703 -0.7637 -0.0008  0.4196
 3876TIP3   OH233118   0.413   1.343   4.272  0.0056 -0.1439 -0.2083
 3876TIP3    H133119   0.407   1.319   4.180  0.5168  0.5489 -0.4232
 3876TIP3    H233120   0.352   1.416   4.282  1.7308  1.3782 -0.5422
 3877TIP3   OH233121   2.480   4.469   1.607 -0.3358  0.9357  0.2076
 3877TIP3    H133122   2.572   4.476   1.633  0.0244  1.7412 -1.2365
 3877TIP3    H233123   2.474   4.519   1.526 -1.7575 -0.2710 -0.4578
 3878TIP3   OH233124   0.885   5.737  12.685  0.2026 -0.4556 -0.5046
 3878TIP3    H133125   0.975   5.735  12.716  0.3772  0.8361 -0.8987
 3878TIP3    H233126   0.891   5.726  12.591  0.0546  1.0077 -0.6957
 3879TIP3   OH233127   0.424   4.186  16.580 -0.0808  0.3700  0.1063
 3879TIP3    H133128   0.331   4.167  16.564 -0.7085  3.4014 -0.2654
 3879TIP3    H233129   0.436   4.168  16.673 -1.4307  1.1929  0.4710
 3880TIP3   OH233130   0.661   0.549   2.125  0.1502 -0.1966  0.3894
 3880TIP3    H133131   0.576   0.594   2.130  0.6827  1.3938 -3.1799
 3880TIP3    H233132   0.663   0.511   2.037  3.2095 -0.0362  0.3269
 3881TIP3   OH233133   5.949   0.305  16.166  0.4273 -0.0514 -0.0839
 3881TIP3    H133134   6.030   0.332  16.209  0.7288 -0.2363 -0.5360
 3881TIP3    H233135   5.971   0.222  16.123 -0.1444 -0.3630  0.2299
 3882TIP3   OH233136   5.316   6.611  11.714 -0.3648  0.0154 -0.6949
 3882TIP3    H133137   5.277   6.586  11.798 -1.5273 -0.8748 -1.4785
 3882TIP3    H233138   5.368   6.535  11.688 -1.9386 -0.6843 -1.9098
 3883TIP3   OH233139   0.308   6.130   3.327 -0.2871  0.5316 -0.0024
 3883TIP3    H133140   0.241   6.144   3.260  0.2131  0.0237 -0.6156
 3883TIP3    H233141   0.375   6.077   3.284 -0.6723 -1.1073  1.3477
 3884TIP3   OH233142   2.702   2.957   6.016 -1.0452 -0.0986  0.2149
 3884TIP3    H133143   2.724   2.984   6.106  1.6445 -0.2236 -0.3606
 3884TIP3    H233144   2.649   2.878   6.027  0.6289 -1.0468  1.6902
 3885TIP3   OH233145   4.633   6.005  11.655 -0.0440 -0.4546 -0.3469
 3885TIP3    H133146   4.679   5.922  11.642  1.1983  0.2569 -0.4876
 3885TIP3    H233147   4.693   6.072  11.623 -1.4574  0.4351 -1.1823
 3886TIP3   OH233148   0.945   1.606   0.762  0.2349  0.3703  0.4582
 3886TIP3    H133149   0.964   1.693   0.727 -2.5128  0.7570 -0.1767
 3886TIP3    H233150   0.903   1.559   0.690  2.4022 -1.7954  0.5291
 3887TIP3   OH233151   5.086   1.675  12.863 -0.2373 -0.3388  0.1605
 3887TIP3    H133152   5.085   1.753  12.920  0.3734 -0.9988  1.0765
 3887TIP3    H233153   5.142   1.700  12.790  0.2945 -0.0616  0.6578
 3888TIP3   OH233154   5.153   2.882  11.358 -0.1284  0.2884  0.0909
 3888TIP3    H133155   5.126   2.923  11.440 -2.1958 -0.8222 -0.0063
 3888TIP3    H233156   5.075   2.835  11.328  0.5564  0.7970 -2.5799
 3889TIP3   OH233157   1.898   1.238   0.986  0.0338  0.4279  0.0250
 3889TIP3    H133158   1.852   1.303   0.932 -0.4376 -0.4837 -0.6811
 3889TIP3    H233159   1.983   1.228   0.944 -0.0038  0.3643 -0.0351
 3890TIP3   OH233160   2.152   0.374   5.216 -0.1511 -0.2214  0.5260
 3890TIP3    H133161   2.086   0.434   5.250  1.4228  2.6364 -1.2332
 3890TIP3    H233162   2.108   0.330   5.143  0.1433  2.5504 -1.4271
 3891TIP3   OH233163   2.504   1.934  10.610 -0.4290 -0.4423  0.1020
 3891TIP3    H133164   2.530   2.008  10.665  0.2630 -0.4733 -0.1703
 3891TIP3    H233165   2.588   1.895  10.583 -0.7893 -1.7134  0.7770
 3892TIP3   OH233166   1.070   4.235  10.886 -0.6652 -0.3989  0.4577
 3892TIP3    H133167   1.055   4.314  10.834  2.2902  1.0412  1.6765
 3892TIP3    H233168   1.118   4.177  10.829 -0.9811 -0.4679  0.2600
 3893TIP3   OH233169   1.775   3.477   2.876 -0.0625 -0.0850 -0.0817
 3893TIP3    H133170   1.828   3.539   2.926  0.1302 -1.4130  1.3881
 3893TIP3    H233171   1.806   3.391   2.904 -0.0761 -0.8680 -2.3642
 3894TIP3   OH233172   2.961   2.195   1.594 -0.0997  0.1049  0.9562
 3894TIP3    H133173   2.887   2.165   1.647 -0.8998  0.0521 -0.1749
 3894TIP3    H233174   2.963   2.290   1.608 -0.7686  0.1851  0.4952
 3895TIP3   OH233175   0.416   4.389   0.955  0.4712  0.1705 -0.5949
 3895TIP3    H133176   0.494   4.443   0.943  0.0778  1.6062  2.7608
 3895TIP3    H233177   0.447   4.312   1.002 -0.0308  0.5706  0.4126
 3896TIP3   OH233178   6.609   1.338  16.957 -0.1135  0.1033  0.1374
 3896TIP3    H133179   6.553   1.288  16.898 -0.2480  0.7993 -0.3311
 3896TIP3    H233180   6.589   1.429  16.937  2.1468  0.3897 -0.9631
 3897TIP3   OH233181   0.450   3.074  11.919  0.1660 -0.2197 -0.0262
 3897TIP3    H133182   0.514   3.014  11.882 -1.4524 -1.9332 -0.1017
 3897TIP3    H233183   0.429   3.135  11.848  2.4597  1.0264  0.3103
 3898TIP3   OH233184   0.514   1.351   0.503  0.0043 -0.1127 -0.3736
 3898TIP3    H133185   0.476   1.277   0.550 -0.2288  0.1280 -0.1877
 3898TIP3    H233186   0.556   1.311   0.426  0.9123 -0.5723  0.3522
 3899TIP3   OH233187   4.019   2.927   1.978  0.2696  0.0568 -0.2025
 3899TIP3    H133188   4.068   2.925   2.060  1.6365 -0.6924 -1.0210
 3899TIP3    H233189   3.944   2.984   1.996 -0.0797 -1.0425  1.9121
 3900TIP3   OH233190   4.526   3.949  15.454  0.7296  0.0343 -0.0003
 3900TIP3    H133191   4.456   4.002  15.415  1.5147 -0.6254 -2.3528
 3900TIP3    H233192   4.487   3.915  15.535 -0.3426  2.7955  0.6983
 3901TIP3   OH233193   0.672   6.697  15.194 -0.1590  0.2575  0.2416
 3901TIP3    H133194   0.679   6.789  15.169 -0.4652  0.0516 -0.5890
 3901TIP3    H233195   0.580   6.685  15.216  0.3834  0.8506  3.1212
 3902TIP3   OH233196   4.119   0.056  10.783 -0.2940 -0.3261  0.4328
 3902TIP3    H133197   4.074   0.057  10.698  0.3307 -0.7134  0.0939
 3902TIP3    H233198   4.061   0.006  10.840 -0.3618 -0.7080  0.0355
 3903TIP3   OH233199   2.668   1.448  15.548  0.3468  0.1816 -0.1114
 3903TIP3    H133200   2.757   1.433  15.516  0.7887 -1.5634  1.7939
 3903TIP3    H233201   2.677   1.450  15.643 -1.1405  3.7595  0.0045
 3904TIP3   OH233202   4.864   0.013   4.009 -0.3598  0.1006 -0.1916
 3904TIP3    H133203   4.868   0.078   4.080  0.7015  0.4452 -0.5570
 3904TIP3    H233204   4.925  -0.055   4.035 -1.2634 -0.6350  0.0536
 3905TIP3   OH233205   0.478   1.160   6.562  0.9521  0.3168  0.0929
 3905TIP3    H133206   0.388   1.180   6.536  1.1325  1.2011  0.1296
 3905TIP3    H233207   0.477   1.067   6.585  0.4518 -0.1291 -1.6662
 3906TIP3   OH233208   1.131   6.206   6.343 -0.1217 -0.1169 -0.1863
 3906TIP3    H133209   1.198   6.162   6.292 -0.1321 -2.7642  2.0222
 3906TIP3    H233210   1.178   6.275   6.390  0.7186 -0.8051 -0.0142
 3907TIP3   OH233211   6.470   3.027   1.907  0.2303  0.1689 -0.0504
 3907TIP3    H133212   6.539   3.051   1.845  0.2700  0.7266  0.2095
 3907TIP3    H233213   6.390   3.027   1.854  0.1318  1.5313  0.0842
 3908TIP3   OH233214   5.003   4.248  14.739  0.2421  0.0832  0.0889
 3908TIP3    H133215   4.971   4.192  14.669  0.6959  0.6818 -0.5994
 3908TIP3    H233216   4.927   4.299  14.766  0.2220  0.3188 -0.4154
 3909TIP3   OH233217   1.299   3.602   4.790 -0.1228  0.3536  0.3054
 3909TIP3    H133218   1.314   3.579   4.882 -1.6698  0.7738  0.6710
 3909TIP3    H233219   1.211   3.639   4.788 -0.9028 -1.4722 -1.6713
 3910TIP3   OH233220   0.098   1.454  14.719 -0.4996  0.1130  0.6956
 3910TIP3    H133221   0.078   1.405  14.640 -1.2547  0.7881  0.4623
 3910TIP3    H233222   0.037   1.528  14.718  0.7786  1.1920  0.9265
 3911TIP3   OH233223   6.131   6.784   3.212  0.0655  0.2853 -0.4757
 3911TIP3    H133224   6.107   6.824   3.296 -0.3787 -0.0564 -0.4334
 3911TIP3    H233225   6.219   6.749   3.227 -0.0366  0.1683 -0.1234
 3912TIP3   OH233226   0.581   3.296  12.042  0.1021  0.1123 -0.0599
 3912TIP3    H133227   0.631   3.289  12.123 -1.1083  1.5008  0.8432
 3912TIP3    H233228   0.531   3.215  12.037  2.4874 -1.3509 -1.0400
 3913TIP3   OH233229   2.244   1.696   1.905 -0.2430  0.1072 -0.5428
 3913TIP3    H133230   2.194   1.778   1.901 -0.1610  0.2333  0.6552
 3913TIP3    H233231   2.256   1.681   1.999  0.2790 -0.9555 -0.7780
 3914TIP3   OH233232   4.508   2.073   2.152 -0.0836 -0.2783 -0.2136
 3914TIP3    H133233   4.436   2.130   2.179  1.2748  1.6746 -0.6792
 3914TIP3    H233234   4.548   2.044   2.234 -3.4403 -4.1393  0.2092
 3915TIP3   OH233235   3.025   3.225   1.442  0.9816  0.2009 -0.3317
 3915TIP3    H133236   3.101   3.227   1.384  0.8037 -1.9444 -0.6858
 3915TIP3    H233237   2.975   3.148   1.414 -0.0332  0.1587  1.4991
 3916TIP3   OH233238   3.277   4.231   2.991 -0.6948  0.1551 -0.2987
 3916TIP3    H133239   3.260   4.277   3.073 -1.4780 -0.1387 -0.2920
 3916TIP3    H233240   3.193   4.191   2.968 -0.0219 -1.2998 -0.2841
 3917TIP3   OH233241   6.127   6.516   1.161  0.3084 -0.1499 -0.3120
 3917TIP3    H133242   6.135   6.611   1.147  3.8000 -0.5232 -1.2632
 3917TIP3    H233243   6.076   6.485   1.086 -0.7781  0.9231 -0.0413
 3918TIP3   OH233244   0.652   5.569  16.619 -0.5387 -0.7190  0.3792
 3918TIP3    H133245   0.739   5.534  16.640 -1.7943 -2.6933  2.5734
 3918TIP3    H233246   0.609   5.499  16.569 -1.6697 -0.7313  1.3321
 3919TIP3   OH233247   0.852   4.408  13.536 -0.2686  0.1089  0.5968
 3919TIP3    H133248   0.869   4.317  13.558  0.8321  0.4865  1.3673
 3919TIP3    H233249   0.876   4.416  13.444 -0.1601 -0.3273  0.5860
 3920TIP3   OH233250   0.007   1.065   5.583 -0.0362 -0.3024  0.1893
 3920TIP3    H133251   0.074   1.008   5.621 -1.2858 -1.1954  1.0564
 3920TIP3    H233252  -0.024   1.118   5.656  1.1879  1.5929 -0.6291
 3921TIP3   OH233253   5.080   0.683   0.992 -0.4388  0.0939 -0.8273
 3921TIP3    H133254   5.140   0.747   0.954 -0.6252  1.1014  0.5179
 3921TIP3    H233255   5.099   0.686   1.086  0.9593 -3.3245 -0.9511
 3922TIP3   OH233256   0.479   4.741   5.650  0.0082 -0.5803 -0.2835
 3922TIP3    H133257   0.404   4.798   5.671 -0.6634 -2.1672  1.6679
 3922TIP3    H233258   0.452   4.697   5.569  0.5990  1.9316 -1.9182
 3923TIP3   OH233259   0.779   2.525   1.031  0.2385  0.2578  0.4624
 3923TIP3    H133260   0.794   2.433   1.052 -2.5114 -0.3274  0.0725
 3923TIP3    H233261   0.785   2.570   1.115  0.1090 -0.4908  0.8816
 3924TIP3   OH233262   1.362   2.907   2.205 -0.2920 -0.1911 -0.6660
 3924TIP3    H133263   1.394   2.817   2.205  1.1980  0.2575  2.3847
 3924TIP3    H233264   1.274   2.901   2.243  0.2919 -0.2644  0.7267
 3925TIP3   OH233265   3.980   0.253   5.995  0.2189  0.0628 -0.3178
 3925TIP3    H133266   4.066   0.266   5.955  0.9497 -2.3059  0.3760
 3925TIP3    H233267   3.918   0.262   5.922  1.0372  1.6673 -0.8444
 3926TIP3   OH233268   2.314   2.573   5.635  0.0597 -0.1196 -0.1539
 3926TIP3    H133269   2.294   2.666   5.646  0.9123  0.1690 -0.9340
 3926TIP3    H233270   2.242   2.527   5.679 -0.4682  0.9024  0.0655
 3927TIP3   OH233271   0.163   0.442   1.629 -0.3591  0.2251  0.2817
 3927TIP3    H133272   0.072   0.473   1.626 -1.7668 -3.6884 -1.2251
 3927TIP3    H233273   0.159   0.361   1.680  2.1369 -0.4196 -0.4773
 3928TIP3   OH233274   4.191   5.121  11.540  0.4093  0.0939  0.2237
 3928TIP3    H133275   4.195   5.209  11.576 -0.0524  0.2425 -0.0913
 3928TIP3    H233276   4.161   5.132  11.450  2.1068 -0.2335 -0.4001
 3929TIP3   OH233277   5.927   4.438  12.303 -0.2994  0.2728  0.0753
 3929TIP3    H133278   5.857   4.387  12.343  1.7358 -2.0321  0.8813
 3929TIP3    H233279   5.974   4.375  12.248  0.9207  1.8349 -0.7142
 3930TIP3   OH233280   6.000   5.033  15.747 -0.1837 -0.0522  0.2043
 3930TIP3    H133281   6.051   5.006  15.823  2.0833  0.8835 -0.9364
 3930TIP3    H233282   6.048   5.107  15.710 -1.2099 -0.4925 -2.1455
 3931TIP3   OH233283   6.194   5.948   1.859 -0.0994 -0.1995  0.3904
 3931TIP3    H133284   6.231   5.968   1.773 -1.6513 -0.2732 -0.3166
 3931TIP3    H233285   6.144   6.026   1.882 -1.1058 -0.8455  0.4274
 3932TIP3   OH233286   1.243   0.529   3.525  0.4794  0.1154 -0.9486
 3932TIP3    H133287   1.308   0.590   3.558 -0.7091  0.7311  0.3279
 3932TIP3    H233288   1.251   0.452   3.582 -0.8211  0.7386  0.1045
 3933TIP3   OH233289   4.055   0.655   0.024  0.3080  0.7803  0.0941
 3933TIP3    H133290   4.047   0.643   0.118 -0.8336  0.8633  0.0155
 3933TIP3    H233291   3.967   0.680  -0.005  0.4730  0.0561 -1.0919
 3934TIP3   OH233292   4.693   4.853   4.325  0.5430 -0.0151  0.3248
 3934TIP3    H133293   4.691   4.789   4.396  0.3135  0.3942  0.6925
 3934TIP3    H233294   4.720   4.803   4.248 -1.1033 -0.8837  0.2829
 3935TIP3   OH233295   2.934   3.555  13.843  0.4444  0.0653  0.4350
 3935TIP3    H133296   2.917   3.516  13.757  2.3048  0.4057 -0.1169
 3935TIP3    H233297   2.868   3.516  13.901 -0.8438 -0.1500 -1.1406
 3936TIP3   OH233298   0.251   0.498   0.170 -0.5159  0.0351 -0.0664
 3936TIP3    H133299   0.306   0.525   0.097 -0.6502  0.8233  0.1277
 3936TIP3    H233300   0.312   0.461   0.233 -0.1728  1.1457  0.2614
 3937TIP3   OH233301   4.564   5.233  11.464 -0.0202 -0.1780  0.0858
 3937TIP3    H133302   4.650   5.194  11.447 -0.0126 -0.3367  0.4808
 3937TIP3    H233303   4.536   5.266  11.379  1.0734  1.1622  0.2295
 3938TIP3   OH233304   2.265   5.290  16.118 -0.3327 -0.2753 -0.4339
 3938TIP3    H133305   2.266   5.324  16.029 -2.2182 -0.4081 -0.5198
 3938TIP3    H233306   2.353   5.309  16.152  1.4939 -3.0792 -3.3722
 3939TIP3   OH233307   0.447   6.248  13.286 -0.6326 -0.1270 -0.2832
 3939TIP3    H133308   0.529   6.205  13.308 -0.0126  1.3878  0.4435
 3939TIP3    H233309   0.458   6.339  13.316 -1.8952  0.5594 -1.7858
 3940TIP3   OH233310   0.019   6.044  15.716 -0.2321 -1.1122 -0.0678
 3940TIP3    H133311   0.032   5.990  15.638 -0.7801 -0.9012 -0.3061
 3940TIP3    H233312  -0.014   5.983  15.782  1.1741 -1.4918  0.3026
 3941TIP3   OH233313   2.685   1.200  14.607 -0.4699 -0.1433 -0.8734
 3941TIP3    H133314   2.596   1.235  14.608 -0.3905  0.0572 -0.2527
 3941TIP3    H233315   2.701   1.173  14.698 -1.0547 -3.1578 -1.6190
 3942TIP3   OH233316   6.498   2.058   4.802 -0.7137 -0.7426 -0.0202
 3942TIP3    H133317   6.477   2.069   4.709 -1.3778 -0.6477  0.1390
 3942TIP3    H233318   6.513   1.964   4.813  2.4274 -0.4051 -0.8543
 3943TIP3   OH233319   2.277   5.846  12.389 -0.0865  0.2723  1.0136
 3943TIP3    H133320   2.277   5.763  12.437 -4.6651 -0.1950  0.4587
 3943TIP3    H233321   2.227   5.905  12.444 -2.3595  0.7627 -1.4933
 3944TIP3   OH233322   3.378   5.846  16.316  0.8666 -0.0058 -0.2566
 3944TIP3    H133323   3.338   5.906  16.253 -0.4248  0.0173  0.5715
 3944TIP3    H233324   3.313   5.777  16.328  2.5637 -1.9452 -1.6529
 3945TIP3   OH233325   0.525   2.221   2.780 -0.1496  0.1701 -1.0989
 3945TIP3    H133326   0.590   2.247   2.714 -1.0880  0.2228 -2.0258
 3945TIP3    H233327   0.448   2.196   2.728 -0.8683  0.1215 -0.0148
 3946TIP3   OH233328   0.896   0.184   1.396 -0.0992  0.0157  0.0112
 3946TIP3    H133329   0.985   0.149   1.393 -0.4633 -1.0567  1.3399
 3946TIP3    H233330   0.840   0.109   1.379 -0.8818 -0.0228  2.6428
 3947TIP3   OH233331   6.036   0.487  17.048  0.2950 -0.1436  0.4011
 3947TIP3    H133332   5.966   0.508  17.110 -0.1043  1.1821 -0.4738
 3947TIP3    H233333   6.015   0.539  16.971  2.0466 -0.0190 -0.0039
 3948TIP3   OH233334   6.686   0.650  17.012 -0.1990 -0.8719 -0.1862
 3948TIP3    H133335   6.695   0.699  16.930  0.9632 -1.3618 -0.3654
 3948TIP3    H233336   6.694   0.716  17.080 -1.3662 -0.4336 -0.4778
 3949TIP3   OH233337   5.009   1.766   0.337 -0.1954  0.1836  0.2973
 3949TIP3    H133338   5.032   1.721   0.256  2.6220 -2.1338  2.2764
 3949TIP3    H233339   4.980   1.696   0.396  2.3214  1.1344  2.7682
 3950TIP3   OH233340   6.002   4.281  15.083 -0.4629 -0.2541  0.1943
 3950TIP3    H133341   5.908   4.283  15.065 -0.8022 -0.0306  1.9772
 3950TIP3    H233342   6.040   4.338  15.016 -1.7770  1.0601  0.5354
 3951TIP3   OH233343   3.492   5.415   1.114  0.1294 -0.7110  0.0441
 3951TIP3    H133344   3.410   5.375   1.084  1.5446 -1.0042 -3.7825
 3951TIP3    H233345   3.554   5.398   1.043  3.2795  0.3293  2.4253
 3952TIP3   OH233346   4.330   4.921   3.019  0.0720 -0.2453 -0.2326
 3952TIP3    H133347   4.336   4.909   3.114  1.0968 -1.3062 -0.4254
 3952TIP3    H233348   4.335   4.833   2.983 -0.9003  0.0984 -1.2601
 3953TIP3   OH233349   6.432   1.775  16.298 -0.6153  0.0270  0.6185
 3953TIP3    H133350   6.457   1.867  16.306 -0.9763  0.0971  0.9803
 3953TIP3    H233351   6.496   1.737  16.238 -0.7737  0.6336  0.0632
 3954TIP3   OH233352   2.112   1.398   1.320 -0.2489 -0.2502  0.3028
 3954TIP3    H133353   2.024   1.360   1.313 -0.5852  0.4892  0.5117
 3954TIP3    H233354   2.161   1.357   1.249 -0.3648 -1.7397  1.0693
 3955TIP3   OH233355   0.760   5.035   6.569 -0.1850 -0.2259 -0.2192
 3955TIP3    H133356   0.752   4.940   6.567  0.3247 -0.2522 -1.8801
 3955TIP3    H233357   0.710   5.061   6.646 -2.0291 -1.7000 -0.8591
 3956TIP3   OH233358   5.416   4.497  15.297  0.0251 -0.4628  0.6837
 3956TIP3    H133359   5.348   4.430  15.295  0.0920 -0.5542  1.3772
 3956TIP3    H233360   5.481   4.464  15.359  0.4412 -0.1261  0.4324
 3957TIP3   OH233361   6.121   0.727   2.456 -0.0230  0.3051  0.2648
 3957TIP3    H133362   6.204   0.684   2.439 -1.5368 -1.9532 -1.7939
 3957TIP3    H233363   6.130   0.813   2.416  0.5017 -0.8336 -2.1654
 3958TIP3   OH233364   1.486   0.513  14.021  0.0687  0.9434 -0.5319
 3958TIP3    H133365   1.426   0.586  14.012 -1.4821 -0.2607 -0.2247
 3958TIP3    H233366   1.530   0.507  13.937 -0.8858  1.2927 -1.0647
 3959TIP3   OH233367   6.156   4.498   4.009  0.1152  0.1531  0.1785
 3959TIP3    H133368   6.106   4.460   3.937  0.4842 -0.8318  0.4229
 3959TIP3    H233369   6.091   4.513   4.078  0.0218 -0.3965  0.2134
 3960TIP3   OH233370   6.243   5.759   5.241 -0.3736  0.6380  0.1542
 3960TIP3    H133371   6.300   5.836   5.241 -0.4688  0.7171 -1.4270
 3960TIP3    H233372   6.296   5.689   5.279  0.1979  1.1170  0.2382
 3961TIP3   OH233373   0.550   1.587  12.964  0.0677 -0.4070  0.2136
 3961TIP3    H133374   0.568   1.494  12.951  0.9294 -0.2664  0.3963
 3961TIP3    H233375   0.532   1.621  12.876  1.6848 -0.3404 -0.0982
 3962TIP3   OH233376   2.708   5.519  15.593 -0.9820 -0.0945 -0.0791
 3962TIP3    H133377   2.749   5.605  15.588 -0.1061 -0.5958 -2.2431
 3962TIP3    H233378   2.694   5.494  15.502 -0.7883 -2.4353  0.4905
 3963TIP3   OH233379   2.765   4.700   4.796  0.0790 -0.7191 -0.2255
 3963TIP3    H133380   2.769   4.705   4.701  1.1766 -1.3889 -0.2129
 3963TIP3    H233381   2.845   4.743   4.826  0.5824 -2.0385  0.3512
 3964TIP3   OH233382   0.322   0.269   2.539 -0.2572 -0.1360  0.0974
 3964TIP3    H133383   0.387   0.208   2.502 -1.3413 -1.5263  0.4305
 3964TIP3    H233384   0.243   0.252   2.489 -1.0163 -0.1563  1.2862
 3965TIP3   OH233385   5.729   1.821  15.864 -0.0642 -0.3784  0.2511
 3965TIP3    H133386   5.678   1.822  15.783  1.1916 -0.8521 -0.5722
 3965TIP3    H233387   5.805   1.876  15.845  0.2571 -0.5135  1.1112
 3966TIP3   OH233388   6.179   1.922  13.319  0.0033  0.9760 -0.2909
 3966TIP3    H133389   6.272   1.947  13.320  0.0397  0.8484 -0.5106
 3966TIP3    H233390   6.140   1.977  13.252  0.0821  0.4558 -0.7644
 3967TIP3   OH233391   3.667   1.434  13.086  0.3120 -0.6273  0.1391
 3967TIP3    H133392   3.635   1.464  13.001 -0.4762  0.7039  0.8963
 3967TIP3    H233393   3.607   1.363  13.111  0.1191 -0.5455 -0.0914
 3968TIP3   OH233394   4.545   6.408   1.046 -0.0318 -0.2002 -0.1243
 3968TIP3    H133395   4.574   6.477   0.986 -1.1634  0.0517 -0.3997
 3968TIP3    H233396   4.507   6.342   0.989 -1.1936  0.0785  0.3199
 3969TIP3   OH233397   1.742   4.982   4.313 -0.1214 -0.5469  0.2076
 3969TIP3    H133398   1.711   4.998   4.224  0.2549 -2.3202 -0.2632
 3969TIP3    H233399   1.663   4.981   4.367 -0.6321 -2.1772 -0.5405
 3970TIP3   OH233400   4.731   6.157  16.789  0.0664  0.1189 -0.5502
 3970TIP3    H133401   4.763   6.217  16.722  0.8548 -0.3371 -0.5883
 3970TIP3    H233402   4.802   6.153  16.853 -1.2399  1.6454  1.0428
 3971TIP3   OH233403   4.310   1.802   2.457 -0.1393 -0.1304  0.3150
 3971TIP3    H133404   4.312   1.867   2.528  0.7034 -0.1312  0.2962
 3971TIP3    H233405   4.221   1.766   2.460 -1.5019  2.8844 -1.3624
 3972TIP3   OH233406   2.730   5.114   5.600  0.3080  0.5373  0.0976
 3972TIP3    H133407   2.655   5.169   5.622  1.6458  2.7908 -0.8356
 3972TIP3    H233408   2.806   5.166   5.624  1.6061 -0.9762 -0.6545
 3973TIP3   OH233409   2.757   6.542   1.577 -0.5329  0.4384  0.2454
 3973TIP3    H133410   2.826   6.530   1.512 -0.4207  2.4382 -0.0397
 3973TIP3    H233411   2.795   6.510   1.659  0.0394 -0.2284 -0.2736
 3974TIP3   OH233412   6.002   1.412   6.056  0.1949  0.3241  0.2740
 3974TIP3    H133413   5.927   1.353   6.062 -0.0515  0.7635  1.7070
 3974TIP3    H233414   5.985   1.479   6.122  0.2278  2.2869 -1.6487
 3975TIP3   OH233415   4.218   2.755  14.176  0.9569  0.3209  0.3130
 3975TIP3    H133416   4.211   2.738  14.270 -0.6849  1.2940  0.3910
 3975TIP3    H233417   4.290   2.698  14.147  0.4786 -1.1360  1.8645
 3976TIP3   OH233418   6.110   0.038  15.734 -0.0997 -0.0134  0.0817
 3976TIP3    H133419   6.197   0.072  15.758 -1.0085  1.1294  1.8169
 3976TIP3    H233420   6.109  -0.051  15.768  1.4969 -1.0941 -2.5890
 3977TIP3   OH233421   5.460   3.579   3.072  0.2076  0.5650 -0.7175
 3977TIP3    H133422   5.522   3.567   3.144  0.3159  2.4030 -0.4700
 3977TIP3    H233423   5.496   3.527   3.001  1.2243  0.3977 -0.0937
 3978TIP3   OH233424   4.878   3.356   6.377  0.3488 -0.5758  0.3554
 3978TIP3    H133425   4.930   3.287   6.336  1.2518  0.7077 -0.6993
 3978TIP3    H233426   4.880   3.428   6.315  0.2249  0.7577  1.8533
 3979TIP3   OH233427   4.681   3.661  13.736 -0.7226 -0.0940  0.2543
 3979TIP3    H133428   4.604   3.642  13.789 -0.9336 -0.1524 -0.0699
 3979TIP3    H233429   4.658   3.630  13.648  0.0000 -0.9014  0.3457
 3980TIP3   OH233430   3.916   6.544   2.142  0.3276 -0.9549  0.0783
 3980TIP3    H133431   3.995   6.548   2.195  1.2788  0.8891 -1.4206
 3980TIP3    H233432   3.948   6.534   2.052 -1.1792 -1.3707 -0.4294
 3981TIP3   OH233433   5.361   2.379   0.869 -0.6342 -0.3625  0.0944
 3981TIP3    H133434   5.422   2.342   0.933 -1.1691 -1.1600  0.1511
 3981TIP3    H233435   5.374   2.474   0.875  0.5931 -0.5207  0.1075
 3982TIP3   OH233436   2.581   2.109   4.344  0.1161 -0.4198  0.3032
 3982TIP3    H133437   2.604   2.199   4.321 -1.7893 -0.5610 -2.3980
 3982TIP3    H233438   2.620   2.096   4.430  2.5759  2.1364 -0.3471
 3983TIP3   OH233439   2.412   0.037   6.174 -0.3138  0.1442 -0.2518
 3983TIP3    H133440   2.436   0.019   6.264  0.0304 -0.9109 -0.5435
 3983TIP3    H233441   2.318   0.020   6.170  0.0113 -1.7430 -0.5323
 3984TIP3   OH233442   4.115   2.183   2.907 -0.5949 -0.1202 -0.6912
 3984TIP3    H133443   4.211   2.181   2.910 -0.5428  1.4857 -0.8405
 3984TIP3    H233444   4.094   2.151   2.819 -0.1952 -0.3615 -0.7021
 3985TIP3   OH233445   0.589   4.666   4.927  0.0579 -0.4098 -0.3647
 3985TIP3    H133446   0.604   4.630   5.015 -0.1585  0.1038 -0.1148
 3985TIP3    H233447   0.570   4.589   4.873 -0.1042 -0.7035  0.1023
 3986TIP3   OH233448   2.310   5.163  11.568 -0.2664 -0.5012 -0.1263
 3986TIP3    H133449   2.355   5.247  11.564  0.4763 -0.8768  0.3317
 3986TIP3    H233450   2.287   5.152  11.660 -0.8181 -0.5589 -0.2684
 3987TIP3   OH233451   4.572   3.225  15.237  0.0473  0.0610 -0.2671
 3987TIP3    H133452   4.617   3.235  15.154 -2.3686 -0.6284 -1.7110
 3987TIP3    H233453   4.540   3.135  15.237  0.3911 -0.0822  1.6051
 3988TIP3   OH233454   6.446   2.486  16.656  0.7191  0.2233 -0.2577
 3988TIP3    H133455   6.423   2.447  16.572 -3.4781  1.3383  0.2589
 3988TIP3    H233456   6.488   2.414  16.704 -1.4609 -1.9659 -1.4845
 3989TIP3   OH233457   5.369   5.951  15.841  0.0677  0.1297 -0.2165
 3989TIP3    H133458   5.314   6.023  15.871  1.0157  0.0665  1.7412
 3989TIP3    H233459   5.378   5.894  15.917  0.5188 -1.3027 -1.3260
 3990TIP3   OH233460   5.898   2.262   5.630 -0.6152 -0.6602 -0.4273
 3990TIP3    H133461   5.823   2.201   5.628 -0.3663 -1.0388  0.9454
 3990TIP3    H233462   5.923   2.265   5.723  0.5978  0.0564 -0.7751
 3991TIP3   OH233463   1.711   4.869  10.814 -0.1770 -0.4700  0.0689
 3991TIP3    H133464   1.731   4.899  10.903  0.5084  3.4456 -1.2817
 3991TIP3    H233465   1.779   4.909  10.760 -0.1895 -3.3247 -2.1809
 3992TIP3   OH233466   4.134   1.226   2.386  0.1866 -0.0718  0.1375
 3992TIP3    H133467   4.174   1.139   2.386  0.9657  0.2667 -1.7439
 3992TIP3    H233468   4.186   1.276   2.450 -1.1324 -1.3454  2.2537
 3993TIP3   OH233469   6.789   6.111   3.935 -0.7140 -0.3159  0.1670
 3993TIP3    H133470   6.771   6.018   3.948 -0.1108 -0.1697  2.2448
 3993TIP3    H233471   6.792   6.122   3.840 -2.2498 -2.1247 -0.1217
 3994TIP3   OH233472   3.865   4.414  16.724 -0.4625 -0.4724  0.2161
 3994TIP3    H133473   3.876   4.319  16.730  0.0912 -0.3280  1.6104
 3994TIP3    H233474   3.937   4.443  16.666 -0.5316 -0.8796 -0.0770
 3995TIP3   OH233475   2.692   2.158  16.115 -0.3438 -0.2504 -0.0415
 3995TIP3    H133476   2.614   2.214  16.111  0.6152  1.1122 -0.1955
 3995TIP3    H233477   2.714   2.142  16.023 -1.0308 -1.4746  0.0070
 3996TIP3   OH233478   4.402   5.710   2.287 -0.4075  0.7666 -0.0140
 3996TIP3    H133479   4.432   5.630   2.243 -1.0913 -0.6889  2.1304
 3996TIP3    H233480   4.460   5.719   2.363 -1.6294  1.1909  0.8749
 3997TIP3   OH233481   4.771   5.354  16.987 -1.1211 -0.5374  0.1003
 3997TIP3    H133482   4.827   5.425  16.955 -1.1722 -0.9262 -0.8638
 3997TIP3    H233483   4.699   5.399  17.032 -1.3996  0.0432 -0.9050
 3998TIP3   OH233484   1.878   6.183   2.739  0.2166  0.5087  0.0675
 3998TIP3    H133485   1.819   6.255   2.760 -0.6053 -0.6149  1.6470
 3998TIP3    H233486   1.963   6.212   2.773 -0.1199  0.7367  0.7291
 3999TIP3   OH233487   5.692   1.316  13.419  0.6792 -0.2151 -0.4037
 3999TIP3    H133488   5.619   1.323  13.357  0.0859  0.1950  0.3251
 3999TIP3    H233489   5.769   1.298  13.365  0.5522  2.2824 -1.4700
 4000TIP3   OH233490   1.692   6.514   3.552 -0.3463 -0.5208 -0.0080
 4000TIP3    H133491   1.696   6.443   3.616  2.6195  0.0205  0.4702
 4000TIP3    H233492   1.740   6.480   3.476 -0.5803  0.2651 -0.5136
 4001TIP3   OH233493   6.784   5.297   2.640  0.2416 -0.1729  0.6523
 4001TIP3    H133494   6.780   5.264   2.550 -0.1044 -0.1353  0.6535
 4001TIP3    H233495   6.845   5.371   2.635 -0.2464  0.2144  0.3234
 4002TIP3   OH233496   5.765   3.089  13.738 -0.4670  0.0091 -0.0448
 4002TIP3    H133497   5.822   3.076  13.662 -1.6984 -0.5183 -0.8893
 4002TIP3    H233498   5.737   3.001  13.763 -1.4729  0.3239 -0.0688
 4003TIP3   OH233499   0.501   0.146  11.988  0.7641  0.8947  0.1638
 4003TIP3    H133500   0.578   0.159  11.932 -0.4154  2.7624 -1.0938
 4003TIP3    H233501   0.524   0.186  12.071 -0.3019  5.2653 -1.5205
 4004TIP3   OH233502   0.639   6.785  11.747  0.0786  0.1709 -0.5856
 4004TIP3    H133503   0.689   6.853  11.702  1.9046 -0.7683  0.0036
 4004TIP3    H233504   0.667   6.703  11.707 -1.2635 -0.3546 -0.4916
 4005TIP3   OH233505   5.608   1.601   0.974  0.5150  0.0847 -0.0722
 4005TIP3    H133506   5.668   1.663   0.933  1.0674  0.7449  1.6951
 4005TIP3    H233507   5.665   1.535   1.013  0.0269 -0.2373  0.0955
 4006TIP3   OH233508   0.652   3.196  15.100 -0.7880  0.6336 -0.1952
 4006TIP3    H133509   0.641   3.272  15.157  0.7360  1.3171 -0.8028
 4006TIP3    H233510   0.655   3.231  15.012  2.5385  0.1976 -0.3339
 4007TIP3   OH233511   6.486   2.930   0.390 -0.0575 -0.3257  0.0432
 4007TIP3    H133512   6.470   3.022   0.372  2.3711  0.2995  0.9411
 4007TIP3    H233513   6.446   2.915   0.476 -1.5381 -0.4629 -0.6390
 4008TIP3   OH233514   5.364   5.581   4.962  0.2102  0.2911  0.7404
 4008TIP3    H133515   5.344   5.674   4.972  0.5479  0.4092  0.3462
 4008TIP3    H233516   5.386   5.571   4.869  1.9026  0.1672  1.1273
 4009TIP3   OH233517   0.488   3.044  13.336 -0.1376 -0.5160  0.0496
 4009TIP3    H133518   0.414   3.015  13.388 -0.0834 -1.2656 -0.2859
 4009TIP3    H233519   0.449   3.080  13.256 -0.0889 -2.5226 -0.9176
 4010TIP3   OH233520   4.634   3.590  15.103 -0.1712  0.0066 -0.1872
 4010TIP3    H133521   4.613   3.623  15.191 -0.0395 -0.6072  0.0753
 4010TIP3    H233522   4.560   3.619  15.049 -0.2743  0.3503  0.1371
 4011TIP3   OH233523   4.255   0.963  15.980 -0.2507 -0.0544 -0.1826
 4011TIP3    H133524   4.189   0.900  16.010  1.8242 -1.8881  0.6364
 4011TIP3    H233525   4.287   1.004  16.060  0.8681 -0.4744 -0.4101
 4012TIP3   OH233526   2.632   4.352  13.637  0.1257 -0.0286 -0.2152
 4012TIP3    H133527   2.670   4.437  13.617  0.6622  0.1512  1.4959
 4012TIP3    H233528   2.568   4.337  13.568  1.0964  1.0798 -1.3676
 4013TIP3   OH233529   3.642   6.503  16.868  0.6707  0.4890 -0.3912
 4013TIP3    H133530   3.594   6.545  16.940  0.5662  1.1940 -0.8662
 4013TIP3    H233531   3.681   6.576  16.820  0.8524  0.0085 -0.9665
 4014TIP3   OH233532   4.270   1.904   4.921 -0.5714  0.1510 -0.1113
 4014TIP3    H133533   4.360   1.926   4.896 -0.9176  0.6443 -0.9328
 4014TIP3    H233534   4.232   1.865   4.842 -0.9409 -0.4845  0.3753
 4015TIP3   OH233535   5.890   1.451   2.294  0.1334 -0.4014  0.7014
 4015TIP3    H133536   5.914   1.373   2.345  0.3747 -0.2322  0.8502
 4015TIP3    H233537   5.902   1.425   2.203 -1.0335 -0.9530  0.6934
 4016TIP3   OH233538   1.237   6.485   5.845 -0.6103  0.6834 -1.2925
 4016TIP3    H133539   1.170   6.438   5.894  1.2827 -0.2874  0.4669
 4016TIP3    H233540   1.241   6.439   5.760  0.8237 -2.0798  0.1935
 4017TIP3   OH233541   5.905   1.764   2.813 -0.2961 -0.5094 -0.7137
 4017TIP3    H133542   5.916   1.675   2.848  0.6760  0.8277  2.6523
 4017TIP3    H233543   5.811   1.782   2.821 -0.5633 -1.3985 -1.8426
 4018TIP3   OH233544   2.861   1.069   5.636 -0.5750 -0.1349  0.7504
 4018TIP3    H133545   2.803   1.021   5.695 -0.0144 -1.8196 -0.0576
 4018TIP3    H233546   2.947   1.063   5.677 -0.1137 -1.6360 -0.4342
 4019TIP3   OH233547   2.160   2.304   0.867  0.3675  0.3899 -0.6418
 4019TIP3    H133548   2.215   2.323   0.943 -0.6356  2.1212 -0.3201
 4019TIP3    H233549   2.215   2.248   0.812  1.6892  0.3958  0.6110
 4020TIP3   OH233550   5.314   0.558  13.574  0.1861  0.3378 -0.1503
 4020TIP3    H133551   5.256   0.501  13.524  0.6089  0.5946 -0.9460
 4020TIP3    H233552   5.397   0.509  13.579  0.0837  0.2185  0.4938
 4021TIP3   OH233553   0.793   2.142   0.491 -0.0942 -0.0650  0.2526
 4021TIP3    H133554   0.864   2.104   0.440 -1.0802 -4.2530  1.7987
 4021TIP3    H233555   0.717   2.139   0.434  0.2300  1.4268 -0.2801
 4022TIP3   OH233556   2.224   5.356   4.928 -0.2059 -0.1498  0.1760
 4022TIP3    H133557   2.129   5.340   4.928 -0.0518 -1.0685  0.3385
 4022TIP3    H233558   2.232   5.451   4.938 -1.0950 -0.1640  1.0950
 4023TIP3   OH233559   6.307   4.141  11.064  0.6688 -0.0676  0.0562
 4023TIP3    H133560   6.255   4.170  11.139  0.1233 -0.4667 -0.1710
 4023TIP3    H233561   6.284   4.049  11.052  0.6161  0.0484 -0.7251
 4024TIP3   OH233562   6.175   3.942  14.240  0.2399 -0.1476  0.3161
 4024TIP3    H133563   6.229   3.953  14.162 -0.0496 -0.5985  0.0407
 4024TIP3    H233564   6.096   3.897  14.207  0.1963 -0.5005  0.8943
 4025TIP3   OH233565   5.463   1.844   1.721  0.4877  0.1273  0.0055
 4025TIP3    H133566   5.425   1.931   1.729 -0.1131 -0.3687  3.1009
 4025TIP3    H233567   5.392   1.790   1.684 -0.0764  0.3324  0.7878
 4026TIP3   OH233568   6.686   4.272   2.856 -0.0384 -1.2229  0.2107
 4026TIP3    H133569   6.693   4.319   2.939  0.7937  1.4728 -1.3533
 4026TIP3    H233570   6.763   4.215   2.855  0.0426 -1.1433  1.1976
 4027TIP3   OH233571   0.203   0.107   6.635 -0.2134  0.1015  0.3166
 4027TIP3    H133572   0.127   0.159   6.608 -0.9088 -0.3097  1.4478
 4027TIP3    H233573   0.235   0.069   6.553  0.0485  1.9484 -0.4692
 4028TIP3   OH233574   6.436   4.405   5.578 -0.2719  0.2487  0.1340
 4028TIP3    H133575   6.433   4.378   5.670 -1.7608  1.0956  0.3387
 4028TIP3    H233576   6.449   4.324   5.530 -1.2015 -0.4119  0.9782
 4029TIP3   OH233577   1.348   6.368   6.445 -0.2463 -0.5256  0.0028
 4029TIP3    H133578   1.289   6.438   6.473  0.9735  1.0609 -1.3288
 4029TIP3    H233579   1.422   6.373   6.506 -0.0801 -0.5689 -0.1965
 4030TIP3   OH233580   4.681   2.641   5.025  0.4003 -0.1354  0.1516
 4030TIP3    H133581   4.667   2.693   4.945 -0.6531  1.1502  1.1402
 4030TIP3    H233582   4.725   2.562   4.995  0.0155  0.3304 -1.7150
 4031TIP3   OH233583   1.646   6.373  16.367  0.2838  0.9396  0.2543
 4031TIP3    H133584   1.726   6.419  16.392  1.3556 -1.7279  1.9029
 4031TIP3    H233585   1.672   6.281  16.361 -2.8411 -0.0997  1.6171
 4032TIP3   OH233586   1.287   2.943   2.603 -0.0164 -0.6280  0.4607
 4032TIP3    H133587   1.326   2.860   2.631  0.8382 -0.5651 -0.4907
 4032TIP3    H233588   1.203   2.947   2.648 -1.3437 -3.3625 -1.6031
 4033TIP3   OH233589   2.052   4.511  13.524  0.1783 -0.2364  0.1377
 4033TIP3    H133590   1.981   4.518  13.588  0.5252  0.3551  0.4594
 4033TIP3    H233591   2.114   4.579  13.549  0.5586 -0.3308 -0.5286
 4034TIP3   OH233592   1.755   6.073   0.570  0.2617 -0.1228 -0.0128
 4034TIP3    H133593   1.716   5.990   0.545 -0.9078 -0.0993  1.6328
 4034TIP3    H233594   1.846   6.067   0.542  0.0255 -1.7112 -0.4529
 4035TIP3   OH233595   5.620   0.637  11.050  0.2533 -0.0100 -0.0407
 4035TIP3    H133596   5.666   0.584  10.985 -0.0076 -1.2166  0.7327
 4035TIP3    H233597   5.527   0.625  11.030  0.2287  1.0562 -0.5545
 4036TIP3   OH233598   0.246   2.435  14.601 -0.1644  0.0598 -0.3517
 4036TIP3    H133599   0.341   2.437  14.602 -0.1672 -0.1213  0.8602
 4036TIP3    H233600   0.223   2.342  14.603 -0.3618  0.0973 -0.8968
 4037TIP3   OH233601   6.549   0.359  15.938  0.0851 -0.2337  0.2779
 4037TIP3    H133602   6.487   0.292  15.909  0.9258 -0.9354  0.0991
 4037TIP3    H233603   6.616   0.362  15.869  0.7655 -0.1554  0.9346
 4038TIP3   OH233604   0.702   5.839   0.845 -0.1739 -0.0791 -0.4140
 4038TIP3    H133605   0.625   5.793   0.879 -1.2130  1.5764 -0.4542
 4038TIP3    H233606   0.736   5.888   0.921 -1.6274  2.4530 -1.3252
 4039TIP3   OH233607   0.040   3.913  14.225  0.3252 -0.1739  0.1894
 4039TIP3    H133608   0.102   3.967  14.178 -1.0487 -0.9054 -2.5395
 4039TIP3    H233609   0.053   3.825  14.190 -0.6855 -0.7601  1.2365
 4040TIP3   OH233610   2.530   4.014  14.231 -0.0650  0.1504 -0.2668
 4040TIP3    H133611   2.622   3.999  14.209 -0.3104  1.1118 -2.0477
 4040TIP3    H233612   2.489   3.928  14.220  0.3563  0.0271 -0.9202
 4041TIP3   OH233613   1.099   3.966  11.903 -0.3355 -0.6202  0.4684
 4041TIP3    H133614   1.143   4.051  11.913  1.9981 -1.7603  0.2861
 4041TIP3    H233615   1.150   3.907  11.959 -1.3373 -2.1077 -0.1726
 4042TIP3   OH233616   6.435   6.551   0.868 -0.4053  0.2557 -0.7131
 4042TIP3    H133617   6.470   6.535   0.956 -1.0647  2.4199 -0.0404
 4042TIP3    H233618   6.512   6.568   0.814  0.0046 -1.0990 -0.5727
 4043TIP3   OH233619   2.497   3.901  13.511  0.2877 -0.1460  0.1847
 4043TIP3    H133620   2.451   3.817  13.512  0.7704 -0.4743 -1.6620
 4043TIP3    H233621   2.430   3.967  13.529 -0.2041 -0.8806  1.0452
 4044TIP3   OH233622   2.191   6.097   4.126 -0.0409 -0.1918  0.8517
 4044TIP3    H133623   2.275   6.056   4.107  0.0427  0.2285  0.3121
 4044TIP3    H233624   2.129   6.023   4.129  0.4684 -0.5717  2.0017
 4045TIP3   OH233625   5.092   5.564  11.630 -0.1974  0.6007  0.2392
 4045TIP3    H133626   5.166   5.504  11.633 -0.7955 -0.1529 -0.0435
 4045TIP3    H233627   5.124   5.644  11.672 -0.0094 -0.5601  2.3220
 4046TIP3   OH233628   6.654   1.947   0.047 -0.1468  0.6105 -0.1132
 4046TIP3    H133629   6.738   1.940   0.002 -0.0957  0.8088 -0.0512
 4046TIP3    H233630   6.616   2.028   0.015  0.0794  0.9710  0.5123
 4047TIP3   OH233631   6.455   3.157  12.824  0.6860 -0.0680 -0.1103
 4047TIP3    H133632   6.536   3.206  12.841  0.9765 -1.7328  3.7618
 4047TIP3    H233633   6.390   3.199  12.880 -1.2943  1.3886 -3.3514
 4048TIP3   OH233634   3.857   4.322   0.038  0.0224  0.2342 -0.4256
 4048TIP3    H133635   3.795   4.352  -0.028 -1.3310 -2.4852 -0.4319
 4048TIP3    H233636   3.875   4.231   0.016  1.4739  0.0012  1.5222
 4049TIP3   OH233637   1.632   2.291   0.792  0.5760 -0.0960  0.4601
 4049TIP3    H133638   1.715   2.245   0.808  0.3538  0.1912  2.5235
 4049TIP3    H233639   1.650   2.382   0.813  0.4498  0.4668 -1.7063
 4050TIP3   OH233640   2.026   1.670   3.378 -0.3557 -0.2575 -0.1854
 4050TIP3    H133641   2.070   1.585   3.368  0.4114  0.0715  0.2883
 4050TIP3    H233642   1.991   1.668   3.467  1.0681  0.5473  0.4165
 4051TIP3   OH233643   6.349   0.222  10.522  0.6635  0.0373 -0.6420
 4051TIP3    H133644   6.407   0.164  10.474  0.1806 -0.5247 -0.5539
 4051TIP3    H233645   6.404   0.260  10.591  0.9491 -0.4118 -0.6206
 4052TIP3   OH233646   1.108   5.394  14.566 -0.4262  0.2816 -0.0978
 4052TIP3    H133647   1.062   5.399  14.650 -0.6406 -1.6928 -0.0644
 4052TIP3    H233648   1.124   5.485  14.542 -1.9711  0.9374  1.2102
 4053TIP3   OH233649   1.037   4.598  17.273 -0.3389  0.7005  0.3999
 4053TIP3    H133650   1.113   4.635  17.318  1.1533 -3.0877  1.2429
 4053TIP3    H233651   0.987   4.555  17.343 -1.7452  0.7494 -0.5643
 4054TIP3   OH233652   1.259   2.869   5.453  0.1386 -0.5929  0.9780
 4054TIP3    H133653   1.306   2.949   5.433  0.1816 -0.9095 -0.1974
 4054TIP3    H233654   1.184   2.869   5.394  0.2801 -1.5533  0.7841
 4055TIP3   OH233655   3.572   5.194   4.927  0.3212  0.0020 -0.1244
 4055TIP3    H133656   3.548   5.141   5.003  0.1959 -1.0876 -0.9251
 4055TIP3    H233657   3.494   5.192   4.871  1.1723 -0.9779 -1.2861
 4056TIP3   OH233658   2.417   1.812   2.735 -0.1019  0.0170 -0.1905
 4056TIP3    H133659   2.383   1.798   2.823  1.9327  0.6679  0.7416
 4056TIP3    H233660   2.455   1.727   2.711 -0.8681 -0.2287 -0.5482
 4057TIP3   OH233661   2.719   0.848  12.151 -0.0460  0.1643  0.1432
 4057TIP3    H133662   2.681   0.762  12.133 -0.7018  0.3483  0.6145
 4057TIP3    H233663   2.807   0.829  12.184  0.0266 -0.2955 -0.3092
 4058TIP3   OH233664   0.298   6.140  16.753 -0.7262 -0.8388 -0.8815
 4058TIP3    H133665   0.244   6.187  16.689 -1.8550 -1.4617 -0.3995
 4058TIP3    H233666   0.294   6.048  16.725 -2.1294 -1.2785  0.6963
 4059TIP3   OH233667   5.110   0.858  13.317  0.2856 -0.8110 -0.4128
 4059TIP3    H133668   5.200   0.882  13.341 -0.3257  0.9843  0.1621
 4059TIP3    H233669   5.088   0.787  13.378  0.2113  0.9166  1.6485
 4060TIP3   OH233670   1.847   5.642   0.358  0.3379 -0.2337  0.1634
 4060TIP3    H133671   1.849   5.565   0.414 -1.6941 -1.0390 -0.8338
 4060TIP3    H233672   1.876   5.610   0.272 -0.8050  0.0243 -0.3286
 4061TIP3   OH233673   3.952   4.539   1.755 -0.0535 -0.4566  0.2155
 4061TIP3    H133674   3.934   4.485   1.678 -1.5736  0.2995  0.0211
 4061TIP3    H233675   3.893   4.504   1.822 -0.0316  0.0438  0.4943
 4062TIP3   OH233676   0.206   1.924  11.133 -0.0962 -0.0022  0.2395
 4062TIP3    H133677   0.223   1.833  11.108  0.6803 -0.2223  1.5372
 4062TIP3    H233678   0.142   1.954  11.068 -1.4233 -1.8994  0.6126
 4063TIP3   OH233679   6.086   4.852  11.516 -0.4716  0.7129  0.0610
 4063TIP3    H133680   6.055   4.766  11.545  2.7897 -0.9163 -0.9472
 4063TIP3    H233681   6.085   4.847  11.420  1.7184  0.9807 -0.0060
 4064TIP3   OH233682   2.743   0.816   1.547 -0.3591  0.3674  0.1200
 4064TIP3    H133683   2.754   0.721   1.540  2.5144  0.7067 -0.6758
 4064TIP3    H233684   2.675   0.837   1.484  1.7510 -0.7354 -2.6294
 4065TIP3   OH233685   2.026   5.617  15.103 -0.1498  0.3818 -0.4553
 4065TIP3    H133686   2.019   5.608  15.198 -1.0167  0.2422 -0.5277
 4065TIP3    H233687   2.116   5.647  15.088  0.2546 -0.3970  0.3490
 4066TIP3   OH233688   0.191   2.534   0.172  0.1241  0.4004  0.4658
 4066TIP3    H133689   0.134   2.580   0.233 -1.3367 -0.2453 -0.3881
 4066TIP3    H233690   0.188   2.442   0.201  1.4588  0.5111  0.9719
 4067TIP3   OH233691   6.488   2.656   4.554  0.7746  0.2886 -0.4351
 4067TIP3    H133692   6.495   2.589   4.621  0.2628  1.1305  0.4659
 4067TIP3    H233693   6.458   2.608   4.476  2.3544 -0.8580 -0.3625
 4068TIP3   OH233694   5.176   1.199  14.730 -0.1129  0.1146 -0.5460
 4068TIP3    H133695   5.084   1.205  14.703 -0.1423 -0.8831 -0.6814
 4068TIP3    H233696   5.173   1.174  14.822  0.0214  0.4736 -0.4425
 4069TIP3   OH233697   4.831   5.583   3.698  0.1267 -0.0856 -0.2917
 4069TIP3    H133698   4.806   5.656   3.641 -1.0484 -1.7270 -1.9574
 4069TIP3    H233699   4.758   5.576   3.760 -0.6482 -0.9481 -1.2691
 4070TIP3   OH233700   2.737   2.482   5.767 -0.3025 -0.0569  0.1824
 4070TIP3    H133701   2.831   2.498   5.772  0.1922 -2.3202 -1.1361
 4070TIP3    H233702   2.715   2.503   5.676 -1.5207  2.4610  0.9924
 4071TIP3   OH233703   4.675   2.819   2.247 -0.4850 -0.1680 -0.3104
 4071TIP3    H133704   4.709   2.908   2.254 -3.8096  0.9584  2.8548
 4071TIP3    H233705   4.743   2.765   2.287  0.1689  1.2862  0.5933
 4072TIP3   OH233706   2.194   2.130  15.191 -0.0219 -0.3335  0.6915
 4072TIP3    H133707   2.130   2.134  15.262 -1.2743 -1.2780 -0.3777
 4072TIP3    H233708   2.219   2.038  15.186  0.7848 -0.1096  0.5341
 4073TIP3   OH233709   1.305   5.385   2.547  0.0102 -0.1308  0.3115
 4073TIP3    H133710   1.247   5.317   2.513 -0.9515  0.2330  1.2064
 4073TIP3    H233711   1.295   5.380   2.642  1.7399 -0.3156  0.5026
 4074TIP3   OH233712   5.511   0.164   3.365  0.5489  0.1229  0.1269
 4074TIP3    H133713   5.517   0.246   3.317  1.3932  1.3176  2.2316
 4074TIP3    H233714   5.427   0.169   3.411  1.8204  1.0474  2.4178
 4075TIP3   OH233715   3.981   2.119   5.189  0.0745 -0.0620 -0.4332
 4075TIP3    H133716   3.953   2.172   5.115 -0.9373 -0.3050 -0.2308
 4075TIP3    H233717   3.977   2.178   5.264 -1.4036 -0.5110 -0.1469
 4076TIP3   OH233718   2.299   5.458  17.127  0.3066  0.0186  0.1881
 4076TIP3    H133719   2.278   5.465  17.221  1.2095  0.6885  0.3453
 4076TIP3    H233720   2.325   5.546  17.102  1.9284 -0.5723 -0.2424
 4077TIP3   OH233721   1.659   2.821   5.046  0.1003 -0.2785  0.5282
 4077TIP3    H133722   1.707   2.818   4.963 -0.7970 -1.2778  0.0341
 4077TIP3    H233723   1.709   2.881   5.101  0.9425  0.0506 -0.5894
 4078TIP3   OH233724   4.622   3.386   1.063  0.8034  0.0344  0.1232
 4078TIP3    H133725   4.611   3.351   0.974  2.0445 -0.4084  0.1280
 4078TIP3    H233726   4.559   3.337   1.116  0.5760 -0.2237 -0.3812
 4079TIP3   OH233727   2.653   2.869   3.041 -0.3194  0.9060 -0.1382
 4079TIP3    H133728   2.588   2.842   2.976  2.1394  1.3630 -2.8815
 4079TIP3    H233729   2.679   2.957   3.014  1.7955  0.5485  0.6073
 4080TIP3   OH233730   0.364   6.558  16.732 -0.0157 -0.4723 -0.2268
 4080TIP3    H133731   0.419   6.629  16.698  1.0223 -0.6422  1.0484
 4080TIP3    H233732   0.280   6.569  16.687  0.0402  1.7526  0.1638
 4081TIP3   OH233733   5.608   3.759   2.439 -0.3463 -0.3756 -0.3476
 4081TIP3    H133734   5.578   3.727   2.524  1.0894 -2.1543 -0.4680
 4081TIP3    H233735   5.546   3.827   2.415 -0.0557  1.0596  2.7314
 4082TIP3   OH233736   4.738   0.921  16.298 -0.9977  0.5854 -0.5217
 4082TIP3    H133737   4.740   0.827  16.316 -1.4227  0.7506  0.3737
 4082TIP3    H233738   4.718   0.927  16.204  0.1845 -0.2419 -0.8445
 4083TIP3   OH233739   5.663   5.469  12.349  0.1128 -0.2917  0.1983
 4083TIP3    H133740   5.570   5.482  12.368  0.1597 -2.3752  1.9575
 4083TIP3    H233741   5.667   5.452  12.255 -0.9309  2.7379 -0.4551
 4084TIP3   OH233742   5.692   1.636  15.487  0.0764  0.2776 -0.2561
 4084TIP3    H133743   5.628   1.626  15.415  1.0272 -1.6637 -0.8748
 4084TIP3    H233744   5.671   1.720  15.526 -1.0786  0.9452 -2.2316
 4085TIP3   OH233745   0.847   3.618  13.472  0.9505 -0.1400 -0.0811
 4085TIP3    H133746   0.899   3.612  13.391 -1.1793 -0.1757 -1.4863
 4085TIP3    H233747   0.758   3.638  13.442  0.1718  0.0756  2.2857
 4086TIP3   OH233748   1.418   0.567   0.858  0.1462  0.1532 -0.1757
 4086TIP3    H133749   1.393   0.649   0.901 -1.1238  0.4677 -1.4734
 4086TIP3    H233750   1.393   0.499   0.921  1.8960  0.7605  1.2340
 4087TIP3   OH233751   0.611   2.947   5.289 -0.1716  0.3442 -0.1649
 4087TIP3    H133752   0.549   2.938   5.217 -2.1293  0.8772  1.4198
 4087TIP3    H233753   0.600   3.036   5.321  1.9257  0.6848 -0.2841
 4088TIP3   OH233754   3.001   4.563   2.006  0.2433 -0.1995  0.5355
 4088TIP3    H133755   3.071   4.563   2.071  1.6513  0.0613 -0.9455
 4088TIP3    H233756   2.936   4.626   2.040 -0.6584 -2.5253  3.3165
 4089TIP3   OH233757   5.987   2.474  13.652  0.4005 -0.2838 -0.3933
 4089TIP3    H133758   5.936   2.457  13.731  2.0486  0.9840  0.9821
 4089TIP3    H233759   5.933   2.535  13.601 -1.1411 -1.9234 -0.7918
 4090TIP3   OH233760   0.013   6.602   2.611 -0.1890  0.6702  0.0921
 4090TIP3    H133761   0.004   6.664   2.539  2.6799 -1.3124 -2.0965
 4090TIP3    H233762   0.041   6.655   2.686  0.9054  2.2163 -1.3822
 4091TIP3   OH233763   5.042   0.692  13.062 -0.3533  0.2110 -0.0093
 4091TIP3    H133764   5.092   0.736  12.993  1.0983 -1.0498  0.2176
 4091TIP3    H233765   5.098   0.698  13.140 -2.1011  1.8914  1.1741
 4092TIP3   OH233766   5.124   2.379  16.739  0.5056  0.2505 -0.4386
 4092TIP3    H133767   5.150   2.446  16.676 -0.8658  0.5092 -0.7410
 4092TIP3    H233768   5.056   2.329  16.693  0.5825 -0.5165  0.2787
 4093TIP3   OH233769   2.568   3.023  11.109 -0.3747 -0.0687 -0.7566
 4093TIP3    H133770   2.495   3.069  11.067 -0.4222  0.4746 -0.0916
 4093TIP3    H233771   2.612   2.978  11.038 -1.3801 -0.4198 -1.1578
 4094TIP3   OH233772   5.849   3.526   2.923 -0.4056 -0.5651 -0.0227
 4094TIP3    H133773   5.929   3.570   2.895 -0.4830  0.9405  1.9953
 4094TIP3    H233774   5.782   3.595   2.924 -1.3191 -1.4367 -0.0088
 4095TIP3   OH233775   6.126   0.153   5.062 -0.2169 -0.6393 -0.2974
 4095TIP3    H133776   6.129   0.191   5.149 -2.9127 -1.5407  0.2187
 4095TIP3    H233777   6.206   0.100   5.056 -0.5149 -1.3851  2.0056
 4096TIP3   OH233778   0.760   4.727   1.809  0.1849  0.2932 -0.7434
 4096TIP3    H133779   0.760   4.705   1.716 -1.2562  0.9152 -0.9084
 4096TIP3    H233780   0.720   4.814   1.813 -1.8024 -0.6346  0.6347
 4097TIP3   OH233781   5.852   0.583   2.923 -0.2359  0.3422 -0.0988
 4097TIP3    H133782   5.799   0.662   2.924  0.8250  1.0922  2.7655
 4097TIP3    H233783   5.793   0.514   2.955 -0.9870  0.0545 -2.0336
 4098TIP3   OH233784   3.481   1.113   5.651 -0.6366  0.0049 -0.0329
 4098TIP3    H133785   3.573   1.126   5.628 -0.3942 -0.9405  0.3640
 4098TIP3    H233786   3.442   1.074   5.573 -0.3900 -0.8451  0.2631
 4099TIP3   OH233787   1.737   4.723  11.914  0.1274  0.5878  0.1140
 4099TIP3    H133788   1.661   4.782  11.919  0.3495  0.8500  0.4077
 4099TIP3    H233789   1.736   4.690  11.824 -0.9727 -0.2602  0.4260
 4100TIP3   OH233790   0.250   5.640  13.028 -0.2933  0.1663  0.0453
 4100TIP3    H133791   0.267   5.721  13.076  0.0359  0.6255 -0.8327
 4100TIP3    H233792   0.337   5.612  12.997 -0.4478 -0.3546  0.0732
 4101TIP3   OH233793   3.027   4.636  12.964 -0.1491  0.6692 -0.0636
 4101TIP3    H133794   2.959   4.699  12.942  0.4455  0.6994 -1.9524
 4101TIP3    H233795   3.071   4.673  13.040  0.2559  2.6238 -1.2158
 4102TIP3   OH233796   3.688   6.729   2.672  0.4349 -0.0182 -0.5293
 4102TIP3    H133797   3.645   6.798   2.723 -2.1090 -1.1464 -1.0408
 4102TIP3    H233798   3.709   6.662   2.737  0.9815  0.3344 -0.3433
 4103TIP3   OH233799   0.087   5.168  10.839  0.0746  0.4390 -0.1473
 4103TIP3    H133800   0.097   5.074  10.825 -2.3890 -0.3127  2.7334
 4103TIP3    H233801   0.049   5.201  10.757  0.6896 -1.0645 -1.0587
 4104TIP3   OH233802   3.950   6.600  15.011  0.0207  0.0121 -0.1477
 4104TIP3    H133803   4.035   6.636  15.034  1.0224 -2.0644 -0.4894
 4104TIP3    H233804   3.946   6.608  14.915 -0.7976  1.4307 -0.0072
 4105TIP3   OH233805   5.744   2.251  16.038 -0.7278 -0.1127 -0.3966
 4105TIP3    H133806   5.758   2.289  16.125 -3.0447  0.2095 -0.1527
 4105TIP3    H233807   5.821   2.279  15.987  1.1594 -1.1222  1.7920
 4106TIP3   OH233808   0.632   6.779  15.694 -0.1357 -0.8656  0.2556
 4106TIP3    H133809   0.644   6.870  15.719  0.9887 -1.9256  3.9755
 4106TIP3    H233810   0.717   6.752  15.660 -0.0196 -0.9162  0.5821
 4107TIP3   OH233811   3.559   5.908   3.349 -0.2200  0.1695  0.7639
 4107TIP3    H133812   3.499   5.870   3.285  2.1025 -1.8262 -0.3168
 4107TIP3    H233813   3.563   5.844   3.419  1.2946 -0.1264  0.4180
 4108TIP3   OH233814   1.860   5.238   4.527 -0.3019 -0.0908  0.1448
 4108TIP3    H133815   1.908   5.206   4.450 -1.0749 -0.5064 -0.1669
 4108TIP3    H233816   1.826   5.160   4.569 -2.6201  0.2927 -0.8969
 4109TIP3   OH233817   5.228   6.230  15.175 -0.6237  0.2345  0.3295
 4109TIP3    H133818   5.303   6.205  15.229 -1.1674  1.1440  1.5069
 4109TIP3    H233819   5.267   6.259  15.092  0.1193 -2.9329 -0.5081
 4110TIP3   OH233820   4.775   0.555  15.948 -0.5002 -0.1199 -0.0690
 4110TIP3    H133821   4.793   0.469  15.985 -1.6524 -0.4336 -0.2143
 4110TIP3    H233822   4.861   0.595  15.937  0.0310 -1.1689  0.1980
 4111TIP3   OH233823   5.300   5.345   4.517  0.0415  0.4628  0.0280
 4111TIP3    H133824   5.250   5.422   4.491 -0.5099 -0.0658 -0.5062
 4111TIP3    H233825   5.265   5.275   4.462  0.4406 -0.1940  0.6084
 4112TIP3   OH233826   6.809   0.257   6.223 -0.4139 -0.7148  0.6567
 4112TIP3    H133827   6.722   0.289   6.200 -0.5067  0.5265  2.6003
 4112TIP3    H233828   6.868   0.329   6.201  0.3022 -2.0397 -1.8661
 4113TIP3   OH233829   2.069   5.313  13.558  0.7448 -0.2680 -0.6949
 4113TIP3    H133830   2.102   5.396  13.523  0.3911 -0.7455 -2.1858
 4113TIP3    H233831   2.032   5.268  13.482 -1.7555 -0.5140  0.6485
 4114TIP3   OH233832   0.579   5.504  13.377  0.2107 -0.4846  0.2741
 4114TIP3    H133833   0.569   5.426  13.430  1.6579 -1.5811 -1.0105
 4114TIP3    H233834   0.497   5.511  13.328 -0.6233 -0.1694  1.6892
 4115TIP3   OH233835   0.059   3.145  15.784  0.2996 -0.0497 -0.6824
 4115TIP3    H133836   0.114   3.097  15.846  0.8628  0.7709 -0.5516
 4115TIP3    H233837   0.037   3.227  15.827 -1.3641 -0.5205 -0.5763
 4116TIP3   OH233838   4.122   6.093   2.268  0.0148  0.3679  0.0106
 4116TIP3    H133839   4.046   6.068   2.321 -0.8159  1.0397 -0.8499
 4116TIP3    H233840   4.123   6.031   2.195  1.1606 -0.5576  0.7891
 4117TIP3   OH233841   6.580   0.674  16.305  0.0646  0.3583 -0.1026
 4117TIP3    H133842   6.618   0.664  16.393 -0.0461  1.1517  0.0461
 4117TIP3    H233843   6.517   0.745  16.314  0.3323  0.7120 -0.9071
 4118TIP3   OH233844   5.535   6.628  11.038 -0.2311  0.1616  0.5772
 4118TIP3    H133845   5.489   6.566  10.982 -1.1723  0.2503  1.2424
 4118TIP3    H233846   5.526   6.712  10.994  0.9917 -0.1535 -0.2935
 4119TIP3   OH233847   4.867   2.426   2.191 -0.3185 -0.5376 -0.6482
 4119TIP3    H133848   4.817   2.397   2.115  1.7314  0.4580 -2.4532
 4119TIP3    H233849   4.847   2.519   2.200  1.6047  0.0168 -1.7674
 4120TIP3   OH233850   4.081   1.454   3.603 -0.0224 -0.4703  0.1404
 4120TIP3    H133851   4.058   1.457   3.696 -1.2422  0.1552 -0.1662
 4120TIP3    H233852   4.084   1.545   3.575 -0.8063 -0.6896 -0.6954
 4121TIP3   OH233853   2.786   3.205   5.513 -0.1925  0.3527 -0.2756
 4121TIP3    H133854   2.791   3.209   5.418 -0.3620  2.0358 -0.2116
 4121TIP3    H233855   2.875   3.182   5.540 -0.2897 -0.7522 -0.8624
 4122TIP3   OH233856   1.348   2.847  16.170  0.3965 -0.4098  0.2217
 4122TIP3    H133857   1.355   2.926  16.116 -1.3091 -0.8431 -0.6686
 4122TIP3    H233858   1.302   2.784  16.115 -1.5980 -0.7924  2.2472
 4123TIP3   OH233859   5.656   4.245   0.819  0.2046  0.0580 -0.0593
 4123TIP3    H133860   5.682   4.238   0.910  0.8826  0.5192 -0.2118
 4123TIP3    H233861   5.702   4.323   0.787 -0.6134  0.3290 -0.5891
 4124TIP3   OH233862   4.333   1.062  16.828 -0.7625 -0.0303  0.0119
 4124TIP3    H133863   4.287   1.053  16.745  2.3765  3.3852 -2.2602
 4124TIP3    H233864   4.294   1.140  16.869  1.8615  2.0350 -1.2720
 4125TIP3   OH233865   6.087   6.313  14.510 -0.2844 -0.5077 -0.7907
 4125TIP3    H133866   6.000   6.275  14.521 -0.7184  0.9958  1.2921
 4125TIP3    H233867   6.103   6.308  14.416 -3.6517  1.3452 -1.5509
 4126TIP3   OH233868   0.642   2.184   1.120 -0.2391  0.2804  0.3290
 4126TIP3    H133869   0.557   2.225   1.105 -0.7479 -0.2476  1.6560
 4126TIP3    H233870   0.673   2.225   1.201  0.2706 -0.3291  0.4417
 4127TIP3   OH233871   6.292   0.231   3.589 -0.0778 -0.4446  0.0349
 4127TIP3    H133872   6.350   0.219   3.664 -0.3084 -0.5016  0.2044
 4127TIP3    H233873   6.330   0.305   3.541  1.2849 -1.7579 -0.9528
 4128TIP3   OH233874   5.461   3.827   3.581  0.1414  0.6212  0.4644
 4128TIP3    H133875   5.439   3.738   3.552 -1.4483  1.3054 -0.5186
 4128TIP3    H233876   5.545   3.818   3.625  0.9029 -1.0760 -1.2620
 4129TIP3   OH233877   4.490   5.777   4.803 -0.5140  0.1334  0.0511
 4129TIP3    H133878   4.500   5.866   4.837 -2.1512 -0.1103  1.1936
 4129TIP3    H233879   4.450   5.788   4.717 -0.1904  0.5187 -0.0526
 4130TIP3   OH233880   2.372   5.242  15.791 -0.1230 -0.6260  0.8421
 4130TIP3    H133881   2.386   5.337  15.788 -0.9953 -0.5226 -0.3522
 4130TIP3    H233882   2.282   5.232  15.822  0.3227 -1.0999  1.9933
 4131TIP3   OH233883   3.676   0.908   0.103  1.0106 -0.2385  0.3662
 4131TIP3    H133884   3.729   0.859   0.040 -0.9324 -0.4080 -1.1531
 4131TIP3    H233885   3.698   0.869   0.188  1.3699 -2.0299 -0.5364
 4132TIP3   OH233886   6.091   5.728  16.176 -0.1548  0.1557  0.3697
 4132TIP3    H133887   6.157   5.762  16.115  0.2552 -0.0527  0.6977
 4132TIP3    H233888   6.117   5.763  16.261 -1.8781  2.1121  0.1240
 4133TIP3   OH233889   2.696   6.468   2.901 -0.3058 -0.6238 -0.2445
 4133TIP3    H133890   2.791   6.460   2.908 -0.3359 -0.9539 -0.2280
 4133TIP3    H233891   2.662   6.418   2.975 -0.5304 -1.6191 -1.0100
 4134TIP3   OH233892   6.654   3.170  14.997 -0.5830  0.1473 -0.3429
 4134TIP3    H133893   6.601   3.230  15.049 -0.3017  0.6560 -0.6349
 4134TIP3    H233894   6.707   3.123  15.061 -0.0432  0.9630 -0.1841
 4135TIP3   OH233895   4.209   2.000  15.197  0.2719  0.2994  0.0145
 4135TIP3    H133896   4.123   1.972  15.164 -0.4130  2.3705 -0.0208
 4135TIP3    H233897   4.190   2.037  15.283  1.2417  0.1905  0.2766
 4136TIP3   OH233898   3.828   0.839   3.362  0.0826 -0.0956 -0.4160
 4136TIP3    H133899   3.902   0.881   3.318 -0.1713 -0.2006 -0.9401
 4136TIP3    H233900   3.836   0.746   3.339  1.2955 -0.5422  1.6476
 4137TIP3   OH233901   4.040   0.313  12.709 -0.0518  0.1930  0.1343
 4137TIP3    H133902   4.046   0.219  12.690 -1.0323  0.1424  0.0832
 4137TIP3    H233903   4.080   0.355  12.633 -0.6386 -0.1395 -0.3595
 4138TIP3   OH233904   2.381   5.855   2.578  0.4706  0.2961  0.0929
 4138TIP3    H133905   2.444   5.865   2.650  0.0846  0.5244  0.3991
 4138TIP3    H233906   2.408   5.920   2.513  0.5784  0.3615  0.2039
 4139TIP3   OH233907   2.423   4.098  12.899  0.1446  0.0987 -1.6320
 4139TIP3    H133908   2.391   4.031  12.838  0.8703 -1.2080 -0.5894
 4139TIP3    H233909   2.358   4.100  12.969  1.6475 -1.6850 -0.1368
 4140TIP3   OH233910   4.622   4.684  12.834  0.9112 -0.0251 -0.5908
 4140TIP3    H133911   4.628   4.697  12.739 -3.7335 -0.3893 -1.0245
 4140TIP3    H233912   4.548   4.738  12.861  1.0495 -1.3090  2.5608
 4141TIP3   OH233913   0.138   4.898  13.351 -0.6536  0.6373 -0.4910
 4141TIP3    H133914   0.124   4.928  13.261 -0.0979  2.8078  0.1140
 4141TIP3    H233915   0.161   4.977  13.399  1.8668 -0.9217  0.9803
 4142TIP3   OH233916   1.616   0.436   2.875  0.5117  0.8715 -0.1181
 4142TIP3    H133917   1.700   0.475   2.851  0.6227 -0.1339 -1.4219
 4142TIP3    H233918   1.556   0.510   2.881  1.1487  1.4429 -0.6587
 4143TIP3   OH233919   2.139   4.709  16.631 -0.2711 -0.4801  0.2935
 4143TIP3    H133920   2.107   4.729  16.719 -0.2157  0.6779  0.0578
 4143TIP3    H233921   2.223   4.754  16.624 -1.3653  1.3806 -1.1659
 4144TIP3   OH233922   1.923   0.816   5.889  0.1043  0.3037 -0.1079
 4144TIP3    H133923   1.901   0.724   5.876  1.3475  0.0178 -0.2958
 4144TIP3    H233924   1.955   0.820   5.979  0.2398  0.5011 -0.1650
 4145TIP3   OH233925   2.498   0.586   0.857 -0.0850 -0.4710  0.9025
 4145TIP3    H133926   2.525   0.589   0.949  0.3878  0.5879  0.7342
 4145TIP3    H233927   2.580   0.589   0.808 -0.2979 -1.8173  0.4490
 4146TIP3   OH233928   2.096   3.859   0.139 -0.5810 -0.2182  0.6341
 4146TIP3    H133929   2.027   3.861   0.073  0.6501 -0.5287 -0.6967
 4146TIP3    H233930   2.152   3.934   0.116  0.7985 -1.3438  0.2590
 4147TIP3   OH233931   2.123   1.982  11.733  0.0131 -0.1275 -0.5659
 4147TIP3    H133932   2.029   2.000  11.727 -0.0177 -0.3671 -0.7690
 4147TIP3    H233933   2.161   2.024  11.657  0.0218 -0.3632 -0.6920
 4148TIP3   OH233934   5.181   3.797  11.852 -0.1317  0.0910  0.3194
 4148TIP3    H133935   5.086   3.800  11.860 -0.1329 -0.0020  0.3518
 4148TIP3    H233936   5.203   3.869  11.793 -0.3614 -0.7836 -0.8497
 4149TIP3   OH233937   1.172   1.278  12.639  0.0857 -0.2887 -0.2590
 4149TIP3    H133938   1.223   1.345  12.683  1.3568  0.2797 -2.4941
 4149TIP3    H233939   1.094   1.323  12.607  2.4974  1.0684 -4.7020
 4150TIP3   OH233940   6.818   5.352  12.483 -0.0638 -1.1028  0.9155
 4150TIP3    H133941   6.850   5.388  12.400 -1.6189  0.3788  0.9164
 4150TIP3    H233942   6.768   5.274  12.458 -0.8140 -0.4716  0.4031
 4151TIP3   OH233943   3.415   1.522   3.833  0.2983  0.1902 -0.0217
 4151TIP3    H133944   3.350   1.537   3.902  1.1210 -0.3149  0.8768
 4151TIP3    H233945   3.474   1.597   3.838 -0.4760  0.9011 -1.1674
 4152TIP3   OH233946   1.898   2.514  12.637 -0.4685 -0.1619 -0.2243
 4152TIP3    H133947   1.957   2.445  12.608  2.6039  3.1118 -2.1182
 4152TIP3    H233948   1.832   2.520  12.567  0.1742 -0.1298 -0.8293
 4153TIP3   OH233949   1.871   6.173   5.794 -0.1057 -0.4363 -0.3085
 4153TIP3    H133950   1.953   6.198   5.750 -0.1288 -1.5348 -1.0110
 4153TIP3    H233951   1.898   6.150   5.883 -0.0055  1.4753  0.1759
 4154TIP3   OH233952   3.872   3.590  17.103 -0.2743  0.1950 -0.3556
 4154TIP3    H133953   3.910   3.554  17.184 -2.2576 -0.8954  0.1248
 4154TIP3    H233954   3.948   3.617  17.051  1.0547  0.7128  1.7636
 4155TIP3   OH233955   0.603   4.427  16.804 -0.1615 -0.1063  0.4713
 4155TIP3    H133956   0.535   4.483  16.765  0.0610  0.7439  1.2897
 4155TIP3    H233957   0.662   4.407  16.731 -0.7313 -0.0063 -0.0251
 4156TIP3   OH233958   4.440   0.329  15.472  0.0974 -0.2677 -0.0558
 4156TIP3    H133959   4.516   0.301  15.522  0.0497  0.5776  0.4940
 4156TIP3    H233960   4.375   0.260  15.487  0.5247 -0.6565  0.0061
 4157TIP3   OH233961   3.074   0.640  13.957 -0.3357 -0.3062 -0.0402
 4157TIP3    H133962   3.070   0.643  14.052  0.1646 -0.8596 -0.0005
 4157TIP3    H233963   3.161   0.674  13.935  1.0702 -3.6924 -0.1042
 4158TIP3   OH233964   0.096   5.676   3.489  0.1680  0.1724 -0.0858
 4158TIP3    H133965   0.191   5.661   3.493  0.1503  0.0787 -0.0304
 4158TIP3    H233966   0.088   5.765   3.453  0.2389 -0.4329 -1.6380
 4159TIP3   OH233967   5.651   6.750   1.799 -0.6351 -0.1065  0.2154
 4159TIP3    H133968   5.667   6.844   1.810  0.1634 -0.4593  2.4152
 4159TIP3    H233969   5.557   6.739   1.817 -0.3020 -0.0009  2.0788
 4160TIP3   OH233970   0.679   5.874   2.451  0.0242  0.0654  0.2724
 4160TIP3    H133971   0.618   5.948   2.448 -0.7960 -0.5812  0.5686
 4160TIP3    H233972   0.625   5.798   2.426  0.8097 -0.4514  0.1435
 4161TIP3   OH233973   5.416   2.925  14.133  0.7414  0.7285  0.2979
 4161TIP3    H133974   5.456   3.006  14.165  2.3570  0.6691 -1.4630
 4161TIP3    H233975   5.346   2.955  14.075 -0.1837  0.8324  1.4388
 4162TIP3   OH233976   0.376   2.062   2.559 -0.2450 -0.9087  0.6653
 4162TIP3    H133977   0.363   2.036   2.467 -1.0865 -1.9387  1.0730
 4162TIP3    H233978   0.302   2.024   2.606  0.7933 -1.3567  1.9658
 4163TIP3   OH233979   0.743   0.728   2.826 -0.1806  0.0518 -0.6023
 4163TIP3    H133980   0.711   0.816   2.847 -1.2828 -0.0158 -1.8736
 4163TIP3    H233981   0.806   0.742   2.755 -1.4880 -0.2881 -1.8672
 4164TIP3   OH233982   6.333   1.385  16.685 -0.1457  0.4296 -0.4291
 4164TIP3    H133983   6.339   1.292  16.706  2.5709  0.5794 -0.3218
 4164TIP3    H233984   6.374   1.394  16.599  1.1107  1.7235  0.2738
 4165TIP3   OH233985   4.832   2.452   4.904 -0.1484 -0.1779  0.5558
 4165TIP3    H133986   4.783   2.385   4.952 -0.2005  1.2411  2.5356
 4165TIP3    H233987   4.923   2.438   4.931 -0.0605  0.1125  0.4082
 4166TIP3   OH233988   6.273   0.991   1.730 -0.4034  0.1940  0.0321
 4166TIP3    H133989   6.220   1.032   1.662  0.8193 -0.2683 -1.2315
 4166TIP3    H233990   6.339   0.940   1.682  1.8874  1.6400  1.4989
 4167TIP3   OH233991   0.905   3.206  15.363 -0.3969  0.1801  0.0630
 4167TIP3    H133992   0.979   3.192  15.303  0.0242 -1.1303  0.8621
 4167TIP3    H233993   0.839   3.142  15.335 -0.2169 -0.4036  0.9445
 4168TIP3   OH233994   3.634   3.028  15.609  0.3087 -0.3912 -0.0081
 4168TIP3    H133995   3.590   3.015  15.525 -2.7402  2.2083  1.0779
 4168TIP3    H233996   3.688   3.107  15.596  0.2748 -0.3178  0.2819
 4169TIP3   OH233997   5.467   4.515   4.408  0.2842 -0.2528 -0.2020
 4169TIP3    H133998   5.385   4.468   4.426 -0.4412  1.4114  0.9434
 4169TIP3    H233999   5.452   4.558   4.325 -0.3942  0.8638  0.4856
 4170TIP3   OH234000   6.757   2.078   4.737  0.3381  0.1494 -0.2317
 4170TIP3    H134001   6.678   2.053   4.783  0.4103 -0.3239 -0.3613
 4170TIP3    H234002   6.816   2.003   4.747  0.4822  0.1826 -0.7910
 4171TIP3   OH234003   6.810   2.707   3.711 -0.0133 -0.3358  0.4348
 4171TIP3    H134004   6.865   2.648   3.660  0.0453 -0.6968  0.9096
 4171TIP3    H234005   6.832   2.795   3.680  0.1344 -0.5447 -0.0469
 4172TIP3   OH234006   4.349   3.913  12.775  1.5149 -0.0491 -0.1799
 4172TIP3    H134007   4.350   3.820  12.796  0.9514  0.1639  0.8495
 4172TIP3    H234008   4.360   3.957  12.859 -2.3940  0.8526 -0.0004
 4173TIP3   OH234009   2.890   2.760   5.715  0.0759  0.5829  0.0533
 4173TIP3    H134010   2.817   2.791   5.661  0.8050 -0.2253 -1.4526
 4173TIP3    H234011   2.945   2.710   5.654  0.9838 -0.2854  1.5408
 4174TIP3   OH234012   4.408   0.360   1.046  0.2331 -0.2541  0.0180
 4174TIP3    H134013   4.464   0.373   0.970  1.0711 -2.4872  0.2096
 4174TIP3    H234014   4.424   0.437   1.101  1.9994 -0.1371 -0.6332
 4175TIP3   OH234015   5.603   5.654  16.166  0.2605  0.3263  0.5259
 4175TIP3    H134016   5.535   5.643  16.232 -0.2436  0.6987  0.0668
 4175TIP3    H234017   5.661   5.722  16.202  1.2470 -1.0506  1.6049
 4176TIP3   OH234018   2.920   4.418   1.355 -0.2137  0.3284  0.1199
 4176TIP3    H134019   2.898   4.511   1.361  1.4815  0.8111 -0.7793
 4176TIP3    H234020   2.982   4.403   1.427 -0.6614 -0.1611  0.4082
 4177TIP3   OH234021   3.521   4.240  13.283 -0.2002  0.1467 -0.3044
 4177TIP3    H134022   3.473   4.188  13.218 -0.9181  0.9134 -0.3929
 4177TIP3    H234023   3.609   4.201  13.285 -0.0504  0.3489 -2.0125
 4178TIP3   OH234024   5.503   3.071   5.529  0.0242  0.1173  0.2963
 4178TIP3    H134025   5.473   3.026   5.450  1.4528  2.9917 -1.9742
 4178TIP3    H234026   5.437   3.138   5.545 -0.1993 -0.3770  1.5236
 4179TIP3   OH234027   4.212   5.346  12.727 -0.2293  0.2511  0.7484
 4179TIP3    H134028   4.295   5.302  12.708 -0.2446  1.2626 -1.8217
 4179TIP3    H234029   4.227   5.390  12.811  2.1570  1.1505 -0.1103
 4180TIP3   OH234030   3.207   0.161   0.932  0.3887 -0.4514 -0.3630
 4180TIP3    H134031   3.217   0.204   1.017 -2.7002  0.5271 -0.4435
 4180TIP3    H234032   3.258   0.214   0.872 -0.9604  1.4136  0.0952
 4181TIP3   OH234033   6.006   4.273   2.692  0.3374  0.3562 -0.1890
 4181TIP3    H134034   6.067   4.277   2.618  0.6882  3.1957  0.2195
 4181TIP3    H234035   6.005   4.180   2.716  3.2509 -0.0101 -1.2425
 4182TIP3   OH234036   3.783   3.290  14.668  0.2426 -0.8313 -0.1329
 4182TIP3    H134037   3.815   3.370  14.710  3.2108 -1.4201 -1.1368
 4182TIP3    H234038   3.841   3.278  14.592 -0.8590 -3.3233 -0.6259
 4183TIP3   OH234039   0.452   4.786   2.968  0.2565  0.1832  0.1814
 4183TIP3    H134040   0.483   4.788   2.878 -1.1690 -1.4590 -0.3765
 4183TIP3    H234041   0.490   4.706   3.005 -1.1766 -0.4692  0.2678
 4184TIP3   OH234042   4.234   3.264   5.530 -0.1881  0.0617 -0.6477
 4184TIP3    H134043   4.171   3.227   5.591  0.1366  0.7871  0.1323
 4184TIP3    H234044   4.278   3.333   5.579  0.7147  0.0437 -1.4109
 4185TIP3   OH234045   4.192   0.581  12.542  0.5328 -0.1604  0.3898
 4185TIP3    H134046   4.272   0.534  12.519 -0.2031 -1.2355 -0.0028
 4185TIP3    H234047   4.218   0.640  12.612  1.2861 -1.8005  1.5200
 4186TIP3   OH234048   6.203   1.357  15.179  0.0869  0.1362 -0.3216
 4186TIP3    H134049   6.129   1.330  15.232 -0.4981  0.4776 -0.9615
 4186TIP3    H234050   6.184   1.447  15.154 -0.3224 -0.4694 -2.2771
 4187TIP3   OH234051   1.204   1.297  12.941  0.1289  0.3971  0.2006
 4187TIP3    H134052   1.252   1.366  12.895  2.4642 -1.7488 -0.6938
 4187TIP3    H234053   1.156   1.252  12.871 -1.7029  1.2897  0.8336
 4188TIP3   OH234054   5.475   3.528   0.482 -0.0011 -0.1632 -0.6678
 4188TIP3    H134055   5.470   3.468   0.408 -0.3091  0.0145 -0.7910
 4188TIP3    H234056   5.464   3.472   0.559  0.6401 -0.3926 -0.7413
 4189TIP3   OH234057   4.284   1.916  17.076  0.4041 -0.7569  0.5784
 4189TIP3    H134058   4.200   1.959  17.064  1.0164  0.0437 -0.9679
 4189TIP3    H234059   4.349   1.987  17.069  1.3391 -1.7076 -0.6248
 4190TIP3   OH234060   4.637   0.745   0.318 -0.5741  0.4626 -0.7961
 4190TIP3    H134061   4.607   0.709   0.401 -0.0358  0.5639 -0.5551
 4190TIP3    H234062   4.597   0.688   0.252 -1.1484  0.4944 -0.4779
 4191TIP3   OH234063   1.407   4.043   4.966 -0.1335  0.3317 -0.0534
 4191TIP3    H134064   1.385   4.013   5.054 -0.7359 -0.3907 -0.4385
 4191TIP3    H234065   1.483   4.099   4.977 -0.5757  0.7249  0.9973
 4192TIP3   OH234066   5.179   1.986   4.885 -0.3566 -0.0130 -0.1267
 4192TIP3    H134067   5.121   2.019   4.816 -2.4267 -0.5489  1.3368
 4192TIP3    H234068   5.183   2.058   4.949 -0.9809 -0.7147  0.7117
 4193TIP3   OH234069   6.051   4.901   3.412 -0.1793 -0.8013 -0.7440
 4193TIP3    H134070   6.121   4.850   3.371  0.5344 -0.3444 -0.1163
 4193TIP3    H234071   6.059   4.988   3.374  1.7385  0.1678  1.7446
 4194TIP3   OH234072   3.831   3.885   6.476  0.0628  0.0671 -0.0025
 4194TIP3    H134073   3.816   3.978   6.457 -1.9937 -0.2122  0.0959
 4194TIP3    H234074   3.797   3.874   6.565  1.1944 -0.5916  0.3613
 4195TIP3   OH234075   4.352   0.788  16.905  0.2847  0.1801  0.0509
 4195TIP3    H134076   4.419   0.750  16.848 -0.5277  0.0788 -0.8547
 4195TIP3    H234077   4.344   0.879  16.874 -2.0550 -0.6188 -1.7835
 4196TIP3   OH234078   6.265   3.403   0.481  0.1046 -0.5921  0.1148
 4196TIP3    H134079   6.341   3.361   0.441 -1.5394 -0.3682 -3.4609
 4196TIP3    H234080   6.268   3.494   0.452 -1.7948 -0.7137 -0.5927
 4197TIP3   OH234081   3.796   6.740   5.275  0.0632 -0.4295  0.2055
 4197TIP3    H134082   3.781   6.824   5.231  0.8815 -0.3891 -0.0125
 4197TIP3    H234083   3.813   6.764   5.366 -1.0214 -0.4645  0.4151
 4198TIP3   OH234084   1.801   4.187  14.456 -0.5131  0.1738  0.7122
 4198TIP3    H134085   1.778   4.133  14.531  0.3662 -0.7154  0.3455
 4198TIP3    H234086   1.871   4.244  14.488  0.4558 -0.7949  0.3326
 4199TIP3   OH234087   6.783   5.343  11.930  0.3333 -0.2287 -0.2184
 4199TIP3    H134088   6.849   5.280  11.903 -0.6019 -0.7767 -1.2884
 4199TIP3    H234089   6.761   5.391  11.850 -2.2079 -1.6193 -0.4286
 4200TIP3   OH234090   1.641   0.922  11.040  0.4582 -0.4352  0.0160
 4200TIP3    H134091   1.649   0.841  10.991 -1.6801 -1.3712  1.1538
 4200TIP3    H234092   1.678   0.989  10.982  1.0560 -2.0174 -1.4566
 4201TIP3   OH234093   4.793   1.177  15.723  0.5433 -0.3422  0.2467
 4201TIP3    H134094   4.751   1.235  15.786 -0.3776 -1.1422  0.3774
 4201TIP3    H234095   4.749   1.197  15.639  0.7046 -0.3614  0.1576
 4202TIP3   OH234096   6.483   5.183  15.214  0.0289 -0.3253  0.5714
 4202TIP3    H134097   6.426   5.106  15.208  0.6916 -0.6711 -2.6496
 4202TIP3    H234098   6.545   5.162  15.283  0.5244 -2.9914 -0.6086
 4203TIP3   OH234099   2.249   4.167  11.430  1.0297  0.7674 -0.0107
 4203TIP3    H134100   2.333   4.210  11.445  1.9150 -0.7153 -0.5715
 4203TIP3    H234101   2.258   4.126  11.344 -0.2849  0.6399 -0.0975
 4204TIP3   OH234102   3.965   3.211   0.410 -0.2349 -0.2450 -0.7446
 4204TIP3    H134103   3.982   3.181   0.321  1.6255  1.0005 -0.8324
 4204TIP3    H234104   3.991   3.138   0.465 -0.4384 -0.6438 -1.1666
 4205TIP3   OH234105   4.371   1.512  10.673  0.8659 -0.4222 -0.5716
 4205TIP3    H134106   4.451   1.477  10.635  1.8063  0.0413  0.9369
 4205TIP3    H234107   4.388   1.606  10.684  0.4557 -0.4652  0.5646
 4206TIP3   OH234108   5.891   5.115   2.234 -0.1754  0.0508 -0.5447
 4206TIP3    H134109   5.968   5.072   2.197  2.1052  2.7100  0.8925
 4206TIP3    H234110   5.885   5.199   2.188 -0.3045  1.2123  1.5064
 4207TIP3   OH234111   5.021   0.793  15.627  0.1860 -0.0902  0.1606
 4207TIP3    H134112   4.926   0.781  15.637  0.5149 -1.4722  1.9170
 4207TIP3    H234113   5.048   0.724  15.567  0.2507 -0.4878  0.6401
 4208TIP3   OH234114   5.560   3.484  13.593 -0.1346  0.1601 -0.4268
 4208TIP3    H134115   5.521   3.400  13.615 -1.7733  1.2713  1.0704
 4208TIP3    H234116   5.513   3.513  13.515 -0.2439  0.1081 -0.3808
 4209TIP3   OH234117   4.086   2.708  11.990  0.1507 -0.5539 -0.6214
 4209TIP3    H134118   4.027   2.741  11.922  0.7521 -1.4459 -1.5913
 4209TIP3    H234119   4.141   2.644  11.945 -0.4003 -2.2302  1.0198
 4210TIP3   OH234120   4.785   1.635  13.490 -0.0957 -0.0255 -0.5305
 4210TIP3    H134121   4.733   1.562  13.457  0.4076 -0.1620 -1.0299
 4210TIP3    H234122   4.831   1.668  13.413 -0.9713  1.3593 -0.4741
 4211TIP3   OH234123   5.108   3.434   4.904 -0.0123  0.4646  0.1437
 4211TIP3    H134124   5.177   3.480   4.855 -0.4510  0.5808 -0.3649
 4211TIP3    H234125   5.155   3.391   4.975  0.7378 -0.3910 -0.8550
 4212TIP3   OH234126   2.852   2.520   2.278  0.0208 -0.0356 -1.2580
 4212TIP3    H134127   2.812   2.568   2.205  0.0873 -0.3793 -1.5259
 4212TIP3    H234128   2.829   2.428   2.261 -1.8486  0.0918  0.3200
 4213TIP3   OH234129   3.865   3.028   6.403  0.1546 -0.2127 -0.6543
 4213TIP3    H134130   3.890   2.947   6.449  0.1656  0.4865  0.5885
 4213TIP3    H234131   3.840   3.088   6.473  0.0846  0.8437 -1.5828
 4214TIP3   OH234132   1.403   2.883  11.131 -0.6077  0.4803 -0.1507
 4214TIP3    H134133   1.445   2.957  11.174 -1.3059  0.3441  0.7643
 4214TIP3    H234134   1.334   2.922  11.077 -1.6527  0.4390  1.1226
 4215TIP3   OH234135   0.873   3.015  13.108  0.0560  0.5602  0.1033
 4215TIP3    H134136   0.922   2.951  13.055  0.0812  1.7038 -1.2821
 4215TIP3    H234137   0.782   2.988  13.100 -0.6257  3.6479 -4.8576
 4216TIP3   OH234138   4.038   3.986   4.127  0.1127 -0.6363  0.2402
 4216TIP3    H134139   3.946   3.961   4.122 -0.1651  0.5272 -0.9674
 4216TIP3    H234140   4.068   3.984   4.036  1.1832 -0.6613  0.5897
 4217TIP3   OH234141   0.145   4.969  14.919 -0.2873  0.4567 -0.3418
 4217TIP3    H134142   0.137   4.986  14.825  1.2218  1.2203 -0.3465
 4217TIP3    H234143   0.087   4.895  14.935  0.7573 -0.8105 -2.2217
 4218TIP3   OH234144   4.023   1.281  15.163 -0.4069  0.4928  0.2730
 4218TIP3    H134145   3.939   1.326  15.164  0.0881  1.4704 -0.5298
 4218TIP3    H234146   4.036   1.251  15.253 -0.3755  2.7300  1.0459
 4219TIP3   OH234147   5.594   4.869   4.883 -1.0241  0.2000  0.6490
 4219TIP3    H134148   5.586   4.796   4.822 -0.9165  0.5215  0.2492
 4219TIP3    H234149   5.603   4.828   4.969 -1.0675 -0.2537  0.4351
 4220TIP3   OH234150   0.038   2.980   0.756 -0.5118 -0.0029 -0.1348
 4220TIP3    H134151  -0.007   3.041   0.697  0.2004 -0.1620 -0.8617
 4220TIP3    H234152  -0.031   2.926   0.793 -1.0187  0.4055 -0.4781
 4221TIP3   OH234153   1.430   1.548  13.283  0.4639  0.3254  0.0108
 4221TIP3    H134154   1.358   1.511  13.333 -1.1997  0.3672 -2.2529
 4221TIP3    H234155   1.495   1.478  13.278 -0.0117 -0.1736  0.9336
 4222TIP3   OH234156   2.579   0.527   5.892  0.5116  0.1698  0.2561
 4222TIP3    H134157   2.649   0.592   5.903  1.1408 -0.5842  0.7686
 4222TIP3    H234158   2.500   0.579   5.878  0.8472  1.0551  1.5872
 4223TIP3   OH234159   5.528   2.243  15.770  0.2800 -0.1719  0.3443
 4223TIP3    H134160   5.530   2.270  15.862  1.7138 -1.0787  0.5933
 4223TIP3    H234161   5.437   2.254  15.744  0.0467  1.0440  1.5897
 4224TIP3   OH234162   3.715   2.947   1.047  0.5868  0.4181  0.0112
 4224TIP3    H134163   3.738   3.040   1.038  0.6210  0.4567  0.4703
 4224TIP3    H234164   3.741   2.908   0.964  0.9634  0.7394 -0.0245
 4225TIP3   OH234165   1.272   4.712   5.206 -0.1266  0.6139  0.0905
 4225TIP3    H134166   1.215   4.769   5.155 -2.9108 -1.3926  0.8616
 4225TIP3    H234167   1.271   4.628   5.159 -0.4583 -0.4110  1.8863
 4226TIP3   OH234168   6.221   5.074  15.368 -0.1115  0.2531  0.4078
 4226TIP3    H134169   6.250   5.012  15.434 -1.3030  0.5681  1.2469
 4226TIP3    H234170   6.197   5.153  15.417 -0.1082  0.8244 -0.4861
 4227TIP3   OH234171   5.178   2.044  14.798  0.0074  0.0710  0.0902
 4227TIP3    H134172   5.216   2.131  14.785 -0.0333 -0.0448 -0.8419
 4227TIP3    H234173   5.098   2.045  14.746 -0.5107 -0.1899  0.8729
 4228TIP3   OH234174   0.037   4.953  10.452 -0.8221  0.3326 -0.3386
 4228TIP3    H134175   0.107   4.971  10.390 -0.5229 -0.8510 -0.3709
 4228TIP3    H234176  -0.028   4.905  10.400 -0.9012 -0.0148  0.0726
 4229TIP3   OH234177   6.783   0.081   3.021  0.2223 -0.1954  0.3257
 4229TIP3    H134178   6.841   0.042   3.086  1.5097  0.9055 -0.1276
 4229TIP3    H234179   6.709   0.113   3.072  0.5527 -0.5862  1.0692
 4230TIP3   OH234180   0.308   1.798  11.708  0.1628 -0.1715  0.3097
 4230TIP3    H134181   0.347   1.885  11.703 -0.6689  0.1919  0.1159
 4230TIP3    H234182   0.257   1.799  11.789 -1.5184  0.2247 -0.7316
 4231TIP3   OH234183   4.378   5.441  13.388  0.0763  0.1270 -0.8486
 4231TIP3    H134184   4.399   5.465  13.298 -0.2297 -0.4059 -1.0670
 4231TIP3    H234185   4.463   5.430  13.431  0.2500 -1.3507 -1.5446
 4232TIP3   OH234186   1.992   0.202  13.596  0.3079  0.4463 -0.0461
 4232TIP3    H134187   2.058   0.177  13.531 -1.2336  0.8163 -1.7808
 4232TIP3    H234188   1.962   0.119  13.633  1.8420  0.2831  0.8756
 4233TIP3   OH234189   4.059   0.291   5.176  0.4535 -0.0511  0.5464
 4233TIP3    H134190   4.009   0.210   5.164  0.5742  0.2211 -2.1634
 4233TIP3    H234191   4.139   0.276   5.125  0.0989  2.0681 -0.6864
 4234TIP3   OH234192   2.799   5.157   4.865 -0.8112  0.2103  0.1049
 4234TIP3    H134193   2.836   5.094   4.927  0.5350  0.8662 -0.0167
 4234TIP3    H234194   2.797   5.240   4.913 -0.8434  0.4734 -0.3486
 4235TIP3   OH234195   3.839   5.364  16.548  0.1809 -0.3107 -0.6400
 4235TIP3    H134196   3.885   5.394  16.469 -0.1536 -0.9699 -1.0875
 4235TIP3    H234197   3.871   5.422  16.617  2.9568 -1.7882 -0.5946
 4236TIP3   OH234198   4.645   1.130  15.145 -0.0184 -0.2575  0.4892
 4236TIP3    H134199   4.593   1.173  15.213 -0.8499  1.3441 -1.1378
 4236TIP3    H234200   4.688   1.201  15.098  0.8683 -1.3757 -0.4399
 4237TIP3   OH234201   6.175   5.365   2.686 -0.2624 -0.1013  0.2706
 4237TIP3    H134202   6.135   5.452   2.694 -1.7723 -0.7525 -0.0196
 4237TIP3    H234203   6.180   5.333   2.776  2.2616  1.1343  0.5937
 4238TIP3   OH234204   4.350   1.314  16.448  0.0582  0.6983 -0.3501
 4238TIP3    H134205   4.445   1.308  16.444  0.1777  1.5539  0.8162
 4238TIP3    H234206   4.333   1.381  16.514 -1.3672 -0.0396  0.0616
 4239TIP3   OH234207   3.087   1.876  15.449 -0.1885 -0.3185  0.4373
 4239TIP3    H134208   3.148   1.814  15.409  1.2321 -0.0222  2.0450
 4239TIP3    H234209   3.002   1.833  15.445  0.0979 -0.7099 -1.9469
 4240TIP3   OH234210   0.725   2.048   4.153 -0.6885  0.1692  0.5867
 4240TIP3    H134211   0.745   1.998   4.232  0.0548 -1.3377 -0.5243
 4240TIP3    H234212   0.742   2.139   4.176 -2.8952  0.0398  2.9224
 4241TIP3   OH234213   5.859   2.335  12.615 -0.2589 -0.1340  0.6008
 4241TIP3    H134214   5.919   2.344  12.541  0.4706  0.6983  1.2835
 4241TIP3    H234215   5.825   2.245  12.607  0.7792 -0.4823 -0.0151
 4242TIP3   OH234216   6.618   1.453   2.069  0.8658 -0.0299 -0.2188
 4242TIP3    H134217   6.703   1.450   2.024 -0.2900 -1.8648 -2.3369
 4242TIP3    H234218   6.634   1.510   2.144  4.3384 -1.3509  0.1772
 4243TIP3   OH234219   3.033   5.031  14.622  0.0313 -0.2239  0.3392
 4243TIP3    H134220   2.980   5.103  14.655  0.5035 -0.4270  1.5527
 4243TIP3    H234221   3.026   5.038  14.527 -0.5112  0.9763  0.4612
 4244TIP3   OH234222   4.635   0.117   5.342 -0.0160  0.2731  0.1729
 4244TIP3    H134223   4.569   0.100   5.275 -0.0448  0.8569  0.0504
 4244TIP3    H234224   4.700   0.048   5.330 -0.0970  0.2867 -0.3554
 4245TIP3   OH234225   1.314   6.777   4.008 -0.5220  0.3219  0.3258
 4245TIP3    H134226   1.278   6.689   3.996  1.6020 -0.5173 -0.1746
 4245TIP3    H234227   1.341   6.804   3.920  1.1441  0.4089  0.8380
 4246TIP3   OH234228   5.623   3.552  16.747  0.5092  0.4955 -0.1237
 4246TIP3    H134229   5.657   3.560  16.658 -0.3705 -2.0847 -0.7297
 4246TIP3    H234230   5.688   3.598  16.801  1.4266  1.4612 -1.9909
 4247TIP3   OH234231   1.882   3.430   0.648 -0.3181  0.5434  0.2545
 4247TIP3    H134232   1.895   3.396   0.560  0.3270 -0.5491  0.7687
 4247TIP3    H234233   1.805   3.486   0.641 -1.6996 -1.4200 -0.4845
 4248TIP3   OH234234   0.947   0.577   5.130 -0.4280 -0.2876  0.1093
 4248TIP3    H134235   0.866   0.558   5.176  0.1989 -0.9313  0.9611
 4248TIP3    H234236   0.992   0.641   5.185  0.0225 -0.5557  0.0541
 4249TIP3   OH234237   4.102   3.054   3.906  0.7498 -0.0375  0.1500
 4249TIP3    H134238   4.169   2.994   3.936 -0.3503 -1.5084 -0.2765
 4249TIP3    H234239   4.021   3.003   3.909  0.3415  0.2933 -3.6980
 4250TIP3   OH234240   5.665   3.024   4.995 -0.0338  0.0201 -0.0624
 4250TIP3    H134241   5.749   3.042   4.952  0.0560 -1.4651 -0.5559
 4250TIP3    H234242   5.605   3.089   4.960  0.0788 -1.0612 -2.3571
 4251TIP3   OH234243   0.833   3.722   5.116  0.1943  0.3116  0.1447
 4251TIP3    H134244   0.826   3.659   5.188  0.0347 -0.0537 -0.1909
 4251TIP3    H234245   0.762   3.698   5.057 -0.4096  1.3391  0.4323
 4252TIP3   OH234246   4.171   6.162   4.619 -0.2775 -0.1250  0.1618
 4252TIP3    H134247   4.145   6.114   4.541 -0.4635  0.5700 -0.2117
 4252TIP3    H234248   4.126   6.117   4.691 -1.0604 -0.0480 -0.2669
 4253TIP3   OH234249   6.634   5.774  15.476 -0.1307  0.0331 -0.2933
 4253TIP3    H134250   6.623   5.714  15.402  2.2244 -0.4234 -0.3166
 4253TIP3    H234251   6.709   5.828  15.451 -1.1487  1.8285  0.4950
 4254TIP3   OH234252   3.562   2.532  14.844  0.1661  0.2310 -0.1995
 4254TIP3    H134253   3.571   2.561  14.935  3.6709 -1.3948  0.0767
 4254TIP3    H234254   3.555   2.612  14.793 -1.6268  1.1646  1.4668
 4255TIP3   OH234255   6.030   5.997   3.831  0.7616  0.1559 -0.8957
 4255TIP3    H134256   5.992   6.080   3.862 -0.0638 -0.3735 -0.4522
 4255TIP3    H234257   5.960   5.933   3.846  1.6441 -0.7427 -0.5930
 4256TIP3   OH234258   6.266   5.470   5.600 -0.3335  0.1694  0.3579
 4256TIP3    H134259   6.355   5.454   5.630 -0.2843  0.8731  0.5869
 4256TIP3    H234260   6.236   5.544   5.651 -1.0385 -0.0348  0.2474
 4257TIP3   OH234261   5.796   2.034  16.215 -0.0546  0.3436  0.9601
 4257TIP3    H134262   5.889   2.040  16.193 -0.2420 -1.1679 -0.3365
 4257TIP3    H234263   5.755   2.107  16.169  0.2039 -0.1978 -0.1391
 4258TIP3   OH234264   3.936   2.692   0.934  0.1361  0.6095 -0.0118
 4258TIP3    H134265   3.947   2.626   1.002 -0.3189  2.3830  1.8093
 4258TIP3    H234266   3.883   2.648   0.866 -0.8365 -0.6430  1.5292
 4259TIP3   OH234267   5.591   0.426   6.155  0.4665  0.2112  0.5054
 4259TIP3    H134268   5.539   0.397   6.230 -0.8615 -0.3561 -0.6123
 4259TIP3    H234269   5.567   0.366   6.084 -0.1388  2.2126 -1.0425
 4260TIP3   OH234270   2.384   1.961  13.153  0.2464  0.0656 -0.0847
 4260TIP3    H134271   2.409   1.995  13.239 -0.4661 -0.6920  0.4354
 4260TIP3    H234272   2.461   1.976  13.098  0.8714  0.1716  0.8017
 4261TIP3   OH234273   5.638   1.291   5.538 -0.3711  0.4769  0.3264
 4261TIP3    H134274   5.595   1.279   5.454 -1.6543 -0.0650  1.0591
 4261TIP3    H234275   5.569   1.320   5.597  0.5274  0.8802  1.1994
 4262TIP3   OH234276   1.720   4.579   2.517  0.4413  0.2666  0.0768
 4262TIP3    H134277   1.662   4.509   2.546  1.5431 -0.3364  0.8928
 4262TIP3    H234278   1.667   4.658   2.522 -0.1507 -0.1934  1.3718
 4263TIP3   OH234279   3.886   0.963  16.008  0.0063  0.4247 -0.9344
 4263TIP3    H134280   3.960   0.917  16.048 -0.3251 -0.0669 -0.8890
 4263TIP3    H234281   3.813   0.948  16.067 -0.0292  1.2801 -0.7565
 4264TIP3   OH234282   5.073   6.054   5.290  0.5245  0.3581 -0.1659
 4264TIP3    H134283   5.040   5.978   5.337  1.4627  1.3439  2.1980
 4264TIP3    H234284   5.002   6.080   5.232 -1.0632 -0.3210  1.4388
 4265TIP3   OH234285   6.399   3.068  16.513  0.6131 -0.0711 -0.3558
 4265TIP3    H134286   6.306   3.055  16.493  0.7492 -0.4092 -0.7747
 4265TIP3    H234287   6.401   3.084  16.607  0.0972  0.2560 -0.3991
 4266TIP3   OH234288   1.333   4.829  13.002 -0.3946 -1.0037 -0.4159
 4266TIP3    H134289   1.246   4.864  12.982 -0.8264 -1.4890  0.5384
 4266TIP3    H234290   1.316   4.749  13.051  0.5944 -1.3252 -0.5766
 4267TIP3   OH234291   4.243   2.383  13.194  0.0755  0.1650  0.0498
 4267TIP3    H134292   4.193   2.457  13.228  1.0409  0.9842 -0.2905
 4267TIP3    H234293   4.295   2.419  13.123  1.7184 -0.4894  0.8785
 4268TIP3   OH234294   2.785   0.091   2.249  0.4109  0.3814  0.4601
 4268TIP3    H134295   2.843   0.154   2.292 -0.4887  2.2627 -0.9916
 4268TIP3    H234296   2.729   0.145   2.192 -0.3396 -1.7430 -0.8729
 4269TIP3   OH234297   2.306   6.484  12.042 -0.1407  0.2036 -0.0671
 4269TIP3    H134298   2.328   6.567  12.000  1.9562  0.0597  0.6601
 4269TIP3    H234299   2.346   6.417  11.986 -0.6359 -0.2303  0.0887
 4270TIP3   OH234300   2.566   4.535  15.663 -0.2771  0.2442 -0.6825
 4270TIP3    H134301   2.509   4.566  15.733 -1.0642  1.5322 -1.8727
 4270TIP3    H234302   2.533   4.578  15.584 -0.2083 -2.1495 -2.0678
 4271TIP3   OH234303   0.787   0.263  13.479 -0.5049  0.4355 -0.1522
 4271TIP3    H134304   0.754   0.313  13.405  0.6053  1.6085  0.1317
 4271TIP3    H234305   0.882   0.260  13.467 -0.3850 -0.0487  0.7948
 4272TIP3   OH234306   5.740   6.133   4.934 -0.0078  0.4814 -0.3904
 4272TIP3    H134307   5.756   6.059   4.992  1.1065  0.2281 -1.0183
 4272TIP3    H234308   5.709   6.203   4.992 -0.4441 -0.2693  0.2879
 4273TIP3   OH234309   0.787   0.977   3.444 -0.5358  0.2263  0.5619
 4273TIP3    H134310   0.840   0.959   3.521  1.4289 -1.0646 -1.0391
 4273TIP3    H234311   0.757   0.891   3.415  0.4374  0.4902 -1.2796
 4274TIP3   OH234312   4.337   3.542  15.565  0.1694  0.2297 -0.2414
 4274TIP3    H134313   4.271   3.481  15.600 -0.1904  1.1060  0.6228
 4274TIP3    H234314   4.378   3.494  15.493 -1.6922 -0.1610 -1.0431
 4275TIP3   OH234315   2.303   4.731  12.484 -0.3725 -0.2653  0.3431
 4275TIP3    H134316   2.296   4.825  12.504 -0.3699 -0.5159  1.5519
 4275TIP3    H234317   2.362   4.727  12.409 -0.9855  0.7561 -0.2069
 4276TIP3   OH234318   2.750   1.947   0.370  0.4100  0.2917 -0.1469
 4276TIP3    H134319   2.803   1.944   0.449 -0.9034  0.1596  0.7591
 4276TIP3    H234320   2.697   1.867   0.374  0.4021  0.2424 -1.2028
 4277TIP3   OH234321   4.075   4.146   1.744  0.5059  0.1321 -0.3419
 4277TIP3    H134322   4.008   4.096   1.696  0.4692 -1.2912  1.1501
 4277TIP3    H234323   4.133   4.079   1.780  1.7943  1.2958 -0.2204
 4278TIP3   OH234324   1.777   6.341   4.791 -0.0831 -0.2016 -0.2648
 4278TIP3    H134325   1.809   6.306   4.708  0.7222  0.9942 -0.4694
 4278TIP3    H234326   1.850   6.330   4.851 -0.7876 -1.3819  0.3779
 4279TIP3   OH234327   6.069   4.037  16.101 -0.2448  0.3686  0.2237
 4279TIP3    H134328   6.131   4.023  16.173 -0.0457  0.9662  0.1746
 4279TIP3    H234329   6.122   4.030  16.022 -0.2870  0.6191  0.1718
 4280TIP3   OH234330   6.211   1.736   1.442 -0.2590 -0.0671  0.2951
 4280TIP3    H134331   6.128   1.729   1.489 -1.0096 -2.1798 -1.2325
 4280TIP3    H234332   6.189   1.781   1.361  0.4149  0.8428  0.6199
 4281TIP3   OH234333   3.614   3.989  17.204 -0.7663  0.0497 -0.0144
 4281TIP3    H134334   3.577   4.055  17.145 -1.0003 -2.0651 -2.2773
 4281TIP3    H234335   3.557   3.913  17.195  1.2073 -1.5074  0.2513
 4282TIP3   OH234336   3.333   1.124  15.918 -0.9385 -0.6485  0.3613
 4282TIP3    H134337   3.287   1.208  15.925  1.6156  0.9514 -1.1811
 4282TIP3    H234338   3.341   1.109  15.824 -1.0310 -2.4442  0.6261
 4283TIP3   OH234339   4.748   1.229   3.486 -0.4194  0.3398  0.2422
 4283TIP3    H134340   4.703   1.312   3.503  0.1487  0.3856  1.5416
 4283TIP3    H234341   4.835   1.240   3.524 -0.1855 -0.6931  0.0228
 4284TIP3   OH234342   3.611   0.746  15.808 -0.3010 -0.2291 -0.2887
 4284TIP3    H134343   3.592   0.786  15.724  0.8725 -0.7455 -0.8127
 4284TIP3    H234344   3.526   0.720  15.843 -0.9749  1.5947 -0.4892
 4285TIP3   OH234345   4.021   3.801   2.549  0.1166 -0.0112  0.6299
 4285TIP3    H134346   3.951   3.741   2.523  0.4759 -0.1977  0.0889
 4285TIP3    H234347   4.080   3.748   2.602 -0.7748  0.4438  2.1034
 4286TIP3   OH234348   3.159   4.097  15.862  0.2456 -0.3072  0.0391
 4286TIP3    H134349   3.155   4.115  15.956  1.8336 -0.4769  0.1408
 4286TIP3    H234350   3.092   4.155  15.824 -0.6505 -0.4971  1.2969
 4287TIP3   OH234351   0.305   2.092   3.567 -0.4574  0.2439  0.7953
 4287TIP3    H134352   0.337   2.121   3.653 -0.7810  2.8209  0.0711
 4287TIP3    H234353   0.227   2.040   3.587  1.0128 -1.4844  2.2191
 4288TIP3   OH234354   0.579   1.621  13.431 -0.2689 -0.4068  0.5311
 4288TIP3    H134355   0.539   1.579  13.507 -1.1762  0.3192  0.4652
 4288TIP3    H234356   0.596   1.711  13.460  1.7253 -0.8004  0.7008
 4289TIP3   OH234357   2.822   2.885  15.895  0.5743 -0.0178  0.4043
 4289TIP3    H134358   2.737   2.840  15.892  0.8235 -0.5544  1.4449
 4289TIP3    H234359   2.833   2.920  15.806 -0.7852  0.1568  0.2951
 4290TIP3   OH234360   3.910   3.801  14.392  0.0426 -0.3980 -0.3872
 4290TIP3    H134361   3.880   3.723  14.441 -0.5321  0.1400  0.1305
 4290TIP3    H234362   3.945   3.859  14.459  1.1235 -0.4996 -0.8584
 4291TIP3   OH234363   3.625   2.264   3.667 -0.0210 -0.3741 -0.7639
 4291TIP3    H134364   3.691   2.207   3.627 -0.9452 -2.2577  0.2714
 4291TIP3    H234365   3.588   2.313   3.594  3.0541  1.3455 -1.2700
 4292TIP3   OH234366   0.408   3.858   5.349 -0.5684  0.5798 -0.0835
 4292TIP3    H134367   0.320   3.883   5.378 -1.7705 -0.1004 -2.9798
 4292TIP3    H234368   0.406   3.869   5.254  2.1507 -0.5101 -0.3113
 4293TIP3   OH234369   3.868   6.292   2.973 -0.2079  0.2872 -0.1024
 4293TIP3    H134370   3.863   6.291   3.069  0.1324 -0.4752 -0.0882
 4293TIP3    H234371   3.828   6.209   2.946  0.1981  0.2493 -0.5880
 4294TIP3   OH234372   1.914   2.877   2.285  0.1076  0.6791 -0.5419
 4294TIP3    H134373   1.985   2.815   2.305  0.9184  1.3105 -1.4158
 4294TIP3    H234374   1.844   2.824   2.248  0.4991  0.1768 -0.5587
 4295TIP3   OH234375   3.682   3.671   2.218 -0.6269 -0.4414 -0.0923
 4295TIP3    H134376   3.685   3.735   2.147  0.6994 -0.1463  0.2141
 4295TIP3    H234377   3.620   3.707   2.281 -1.0061 -0.1888 -0.6030
 4296TIP3   OH234378   2.999   2.264   1.017 -0.4305 -0.0885  0.0569
 4296TIP3    H134379   3.002   2.281   0.923  3.6296 -1.1228 -0.0873
 4296TIP3    H234380   2.998   2.168   1.024 -0.8225 -0.0160  1.0891
 4297TIP3   OH234381   0.076   2.088   5.970 -0.3537 -0.2004 -0.8967
 4297TIP3    H134382   0.021   2.041   6.032  0.0387 -0.4961 -0.7694
 4297TIP3    H234383   0.145   2.128   6.024 -0.8178  0.7115 -0.9761
 4298TIP3   OH234384   6.249   5.327   2.262  0.7037  0.5279 -0.4090
 4298TIP3    H134385   6.207   5.378   2.193  1.8473  1.1582 -0.6568
 4298TIP3    H234386   6.318   5.278   2.217  1.0610  0.4866  0.1804
 4299TIP3   OH234387   4.877   1.852  12.372  0.2077  0.7919  0.1946
 4299TIP3    H134388   4.852   1.759  12.374  0.9371  0.5871 -0.0321
 4299TIP3    H234389   4.849   1.886  12.457 -1.4149  0.7265 -0.2917
 4300TIP3   OH234390   6.120   4.832   3.065  0.0789 -0.4795  0.4574
 4300TIP3    H134391   6.030   4.861   3.054 -0.2514 -1.8116 -0.5241
 4300TIP3    H234392   6.133   4.769   2.994  1.9920  0.2048  0.1696
 4301TIP3   OH234393   5.230   3.666   3.312  0.4737 -0.0155  0.5044
 4301TIP3    H134394   5.137   3.649   3.298  0.2026  0.7911  1.3496
 4301TIP3    H234395   5.274   3.594   3.265 -0.5691 -0.6036  0.4050
 4302TIP3   OH234396   5.615   1.949  11.942 -0.2510  0.3328 -0.2053
 4302TIP3    H134397   5.624   1.860  11.974  0.9685  1.3910  2.5038
 4302TIP3    H234398   5.615   2.004  12.021 -0.0284  2.8037 -1.8555
 4303TIP3   OH234399   4.373   4.431  11.833 -0.3462  0.4199 -0.6991
 4303TIP3    H134400   4.300   4.468  11.783 -0.8869  0.4922  0.1296
 4303TIP3    H234401   4.362   4.466  11.921  1.8756  2.0354 -1.0400
 4304TIP3   OH234402   3.182   5.201  14.261  0.3246 -0.0009 -0.2101
 4304TIP3    H134403   3.153   5.227  14.348 -0.1682  0.1392 -0.4154
 4304TIP3    H234404   3.118   5.136  14.233  0.8892 -0.5644 -0.1774
 4305TIP3   OH234405   6.766   2.670   1.991 -0.3100 -0.6612  0.1624
 4305TIP3    H134406   6.808   2.729   1.928  0.1894 -0.9091  0.2649
 4305TIP3    H234407   6.694   2.722   2.026  0.4024  0.0642  0.5897
 4306TIP3   OH234408   0.376   2.483  12.200 -0.2303  0.0043  0.4801
 4306TIP3    H134409   0.328   2.431  12.134 -0.3613  0.9168 -0.1594
 4306TIP3    H234410   0.454   2.432  12.219  0.7464  0.5833 -1.7852
 4307TIP3   OH234411   6.485   6.416   1.679  0.6727 -0.2223 -0.2771
 4307TIP3    H134412   6.550   6.348   1.660  0.0556 -0.3113 -2.1692
 4307TIP3    H234413   6.445   6.435   1.594 -0.3739  1.2677  0.5350
 4308TIP3   OH234414   6.361   3.431  11.840  0.2251  0.0671 -0.1733
 4308TIP3    H134415   6.276   3.441  11.796  0.9025 -0.1449 -1.5849
 4308TIP3    H234416   6.382   3.338  11.828  0.4551  0.0297  0.5406
 4309TIP3   OH234417   2.571   0.184   1.377 -0.2825  0.5656  0.3615
 4309TIP3    H134418   2.513   0.230   1.317  1.6980 -0.6704 -2.6249
 4309TIP3    H234419   2.656   0.229   1.367  0.7261 -1.3327  0.2219
 4310TIP3   OH234420   3.487   4.205   2.335  0.1139  0.4230  0.0851
 4310TIP3    H134421   3.562   4.192   2.278 -0.4094 -0.3173 -0.4341
 4310TIP3    H234422   3.420   4.144   2.303 -1.2930  2.2165 -0.4969
 4311TIP3   OH234423   4.397   0.974   2.175 -0.2641 -0.1455  0.1520
 4311TIP3    H134424   4.337   0.978   2.249  0.1409 -1.5934  0.5768
 4311TIP3    H234425   4.341   0.969   2.098 -0.6844 -0.4973  0.4790
 4312TIP3   OH234426   4.384   0.115  13.312  0.5227 -0.0670  0.2768
 4312TIP3    H134427   4.400   0.205  13.286  1.2633 -1.0402 -2.8125
 4312TIP3    H234428   4.292   0.099  13.288  0.4766 -0.2102  0.5482
 4313TIP3   OH234429   3.955   1.280  16.059  0.1382  0.0461  0.3647
 4313TIP3    H134430   3.994   1.215  16.118  2.5227  1.6580  0.6217
 4313TIP3    H234431   3.888   1.324  16.113 -0.2136 -0.9416  0.7437
 4314TIP3   OH234432   5.008   2.156   5.516  0.3645 -0.1549 -0.6819
 4314TIP3    H134433   5.050   2.075   5.484  0.1948 -0.2587 -0.6420
 4314TIP3    H234434   5.063   2.183   5.590 -0.5567 -1.1786  0.4006
 4315TIP3   OH234435   5.434   1.700  13.080 -0.6780  0.4000  0.2915
 4315TIP3    H134436   5.492   1.659  13.017  0.1412  0.3212  1.0815
 4315TIP3    H234437   5.449   1.793  13.070  3.4081  0.2951  3.9515
 4316TIP3   OH234438   5.758   4.705  12.436  0.1510  0.0469  0.3309
 4316TIP3    H134439   5.834   4.682  12.382  0.2764  1.5135 -0.1541
 4316TIP3    H234440   5.793   4.712  12.525  0.1943 -1.1363  0.4157
 4317TIP3   OH234441   2.476   6.245   0.660 -0.1244  0.2225  0.6714
 4317TIP3    H134442   2.393   6.280   0.628 -0.3945  0.5054  1.6850
 4317TIP3    H234443   2.532   6.243   0.582 -0.6191  1.3779  0.2663
 4318TIP3   OH234444   5.518   2.591  11.734 -0.3531  0.1670 -0.3020
 4318TIP3    H134445   5.439   2.571  11.785 -0.5970  0.6904 -0.4639
 4318TIP3    H234446   5.489   2.588  11.643  0.1827 -1.2041 -0.4416
 4319TIP3   OH234447   1.499   5.728   1.151  0.0017  0.3125  0.0973
 4319TIP3    H134448   1.436   5.745   1.082 -0.1739  1.6791  0.5785
 4319TIP3    H234449   1.480   5.639   1.180 -1.1666  0.4192 -0.3172
 4320TIP3   OH234450   0.934   3.853   1.616 -0.6349  0.1430 -0.1428
 4320TIP3    H134451   0.871   3.819   1.680 -0.8928 -2.6223 -1.8191
 4320TIP3    H234452   1.006   3.790   1.617 -0.6244  0.0758 -2.5522
 4321TIP3   OH234453   3.064   2.642   1.994  0.3132 -0.1035 -0.1559
 4321TIP3    H134454   3.104   2.670   2.076  0.8346 -1.6562  0.1302
 4321TIP3    H234455   2.970   2.637   2.013  0.5505 -1.6076  0.7063
 4322TIP3   OH234456   0.989   4.397   6.290  0.3906 -0.2809  0.4569
 4322TIP3    H134457   1.058   4.389   6.356  1.9815 -1.3170 -1.2588
 4322TIP3    H234458   0.964   4.307   6.270  1.5976 -0.1090 -2.0084
 4323TIP3   OH234459   2.687   0.667  11.203  0.4291 -0.2567  0.0513
 4323TIP3    H134460   2.739   0.617  11.265 -1.8220 -0.0330  2.1828
 4323TIP3    H234461   2.600   0.628  11.207 -1.1454  3.2089  1.1222
 4324TIP3   OH234462   1.589   3.993  11.206  0.0555  0.2045 -0.4991
 4324TIP3    H134463   1.514   3.934  11.195 -0.3548  0.8721 -1.3574
 4324TIP3    H234464   1.659   3.936  11.237 -0.4266 -0.6871 -1.0075
 4325TIP3   OH234465   1.229   3.145  11.258  0.3480 -0.6658 -0.0750
 4325TIP3    H134466   1.256   3.127  11.348 -0.1918  0.5308  0.3340
 4325TIP3    H234467   1.242   3.239  11.248  0.6396 -0.8344 -1.3340
 4326TIP3   OH234468   6.751   1.306  15.243 -0.4025 -0.3055  0.5711
 4326TIP3    H134469   6.656   1.294  15.250 -0.8606  2.5914  0.0646
 4326TIP3    H234470   6.767   1.306  15.148  0.2178 -1.4768  0.6706
 4327TIP3   OH234471   0.735   0.633   1.098 -0.2290  0.1436  0.1349
 4327TIP3    H134472   0.662   0.688   1.068  0.7760  0.5633 -1.6301
 4327TIP3    H234473   0.781   0.608   1.018  1.4762 -0.2467  1.1933
 4328TIP3   OH234474   6.708   4.259   4.095 -0.1067  0.2036 -0.6521
 4328TIP3    H134475   6.781   4.288   4.150  1.5823  0.7266 -3.1279
 4328TIP3    H234476   6.633   4.257   4.155  2.0559 -1.2144  2.1713
 4329TIP3   OH234477   6.343   5.498  12.492 -0.0725  0.1667  0.2931
 4329TIP3    H134478   6.359   5.562  12.423  0.5435 -0.1439  0.1501
 4329TIP3    H234479   6.251   5.474  12.481 -0.1713  0.6613  0.0354
 4330TIP3   OH234480   4.058   0.108   0.521 -0.0663 -0.1855  0.3929
 4330TIP3    H134481   4.037   0.115   0.614 -0.5797 -0.8253  0.3295
 4330TIP3    H234482   4.114   0.184   0.503 -2.6716  1.8210  0.4754
 4331TIP3   OH234483   3.633   5.927  13.528  0.2009 -0.0219  0.3228
 4331TIP3    H134484   3.597   5.952  13.443 -1.5235  0.1441  1.0808
 4331TIP3    H234485   3.594   5.988  13.590 -1.1743 -2.2142  1.6825
 4332TIP3   OH234486   0.498   4.525   4.680 -0.3250  0.1709  0.1921
 4332TIP3    H134487   0.439   4.600   4.690 -1.3372 -0.5182 -0.5065
 4332TIP3    H234488   0.475   4.488   4.595 -0.3904 -1.4231  0.8975
 4333TIP3   OH234489   4.126   3.625  14.241  0.4258 -0.0314 -0.1033
 4333TIP3    H134490   4.051   3.670  14.280 -1.8013 -2.0620 -1.8345
 4333TIP3    H234491   4.192   3.622  14.310 -1.2095  1.5229  1.5688
 4334TIP3   OH234492   5.087   6.561   1.011  0.0229  0.5247  0.0838
 4334TIP3    H134493   5.119   6.609   1.088 -3.4435 -0.2917  2.1311
 4334TIP3    H234494   5.003   6.604   0.990 -1.0851 -1.9366 -0.6432
 4335TIP3   OH234495   2.112   6.309  12.157 -0.3104  1.0671 -0.3953
 4335TIP3    H134496   2.192   6.359  12.141  0.8807 -0.7409 -0.2548
 4335TIP3    H234497   2.122   6.275  12.246 -1.2696  0.8844 -0.3478
 4336TIP3   OH234498   0.852   4.651   2.884 -0.1241 -0.3455  0.2346
 4336TIP3    H134499   0.808   4.643   2.968 -2.0503 -0.5456 -0.7662
 4336TIP3    H234500   0.877   4.561   2.861  0.5040 -0.2763  0.6332
 4337TIP3   OH234501   3.526   6.486   3.440 -0.0478  0.0571 -0.4505
 4337TIP3    H134502   3.458   6.486   3.373 -0.0842 -0.2603 -0.4136
 4337TIP3    H234503   3.482   6.454   3.519  0.3626 -1.0386 -0.6514
 4338TIP3   OH234504   0.156   4.712  14.545  0.1798 -0.3542  0.2104
 4338TIP3    H134505   0.136   4.805  14.541  0.9487 -0.1944 -0.0282
 4338TIP3    H234506   0.189   4.698  14.633  0.2367 -0.3633  0.1879
 4339TIP3   OH234507   4.953   0.800   1.574 -0.3466  0.1281 -0.7186
 4339TIP3    H134508   5.033   0.853   1.566 -0.0941 -0.1405  0.0149
 4339TIP3    H234509   4.902   0.823   1.496  0.9050 -0.4557 -1.7501
 4340TIP3   OH234510   0.613   5.347   5.785 -0.3222  0.1147  0.5183
 4340TIP3    H134511   0.691   5.299   5.758  1.1110  2.0887  0.9896
 4340TIP3    H234512   0.603   5.327   5.878 -1.1850 -1.1978  0.1550
 4341TIP3   OH234513   6.378   0.360  11.355  0.2734 -0.1140  0.4151
 4341TIP3    H134514   6.473   0.347  11.364  0.3943  1.5986  1.8130
 4341TIP3    H234515   6.369   0.409  11.273  0.5700 -0.3991  0.2063
 4342TIP3   OH234516   1.024   0.075   5.736 -0.2312 -0.2930 -0.2860
 4342TIP3    H134517   1.112   0.045   5.712 -0.3302  0.1106 -1.1617
 4342TIP3    H234518   0.978  -0.005   5.761 -0.1651 -0.7368 -1.5605
 4343TIP3   OH234519   1.131   6.395   2.550 -0.5616  0.1238  0.1442
 4343TIP3    H134520   1.036   6.401   2.562 -0.5385 -0.9593  0.9582
 4343TIP3    H234521   1.159   6.485   2.532 -1.6785  0.5257  0.3859
 4344TIP3   OH234522   6.022   1.495   4.362  0.0021  0.3909 -0.1848
 4344TIP3    H134523   6.036   1.401   4.352  1.9475  0.5779  0.6926
 4344TIP3    H234524   6.028   1.510   4.456 -1.1656  1.2704 -0.2440
 4345TIP3   OH234525   4.166   0.835  12.055  0.0932  0.3308  0.3997
 4345TIP3    H134526   4.246   0.792  12.085  0.9077 -0.4720 -2.7483
 4345TIP3    H234527   4.095   0.780  12.089  1.0436 -1.7087 -0.8070
 4346TIP3   OH234528   6.669   3.076  11.171  0.0408 -0.4175  0.4649
 4346TIP3    H134529   6.717   3.076  11.255  0.1261  0.8656  0.4260
 4346TIP3    H234530   6.653   3.169  11.153 -0.8528 -0.7492 -0.4498
 4347TIP3   OH234531   5.345   5.852  14.221 -0.1217  0.1726 -0.1289
 4347TIP3    H134532   5.261   5.807  14.215 -0.2425  0.4314 -0.4104
 4347TIP3    H234533   5.335   5.912  14.295 -0.5213  0.8873 -0.7447
 4348TIP3   OH234534   1.548   0.449   3.934 -0.5475 -0.0796  0.3463
 4348TIP3    H134535   1.540   0.524   3.875  0.2224  1.2001  1.8341
 4348TIP3    H234536   1.638   0.418   3.921 -0.7624 -0.5356 -0.0340
 4349TIP3   OH234537   5.297   1.508   4.681 -0.3792  0.0582  0.3385
 4349TIP3    H134538   5.279   1.593   4.722 -0.4855  0.0402  0.3298
 4349TIP3    H234539   5.282   1.522   4.588  0.3986  0.2408  0.2457
 4350TIP3   OH234540   1.693   2.974   6.145  0.7784  0.0989 -0.1280
 4350TIP3    H134541   1.685   2.886   6.108  1.7083  0.5158 -1.3842
 4350TIP3    H234542   1.636   3.029   6.090  1.3521  0.5304 -0.3087
 4351TIP3   OH234543   6.800   2.971  12.972 -0.5645  0.4038 -0.2514
 4351TIP3    H134544   6.746   3.020  13.035  0.6719  1.7021 -0.1575
 4351TIP3    H234545   6.746   2.965  12.894 -1.3630  0.5119  0.2876
 4352TIP3   OH234546   4.293   3.038   3.049  0.4136 -0.0100  0.1461
 4352TIP3    H134547   4.282   2.946   3.027  0.0874  0.1670 -0.4134
 4352TIP3    H234548   4.375   3.063   3.008  1.7121 -0.6614  2.2348
 4353TIP3   OH234549   4.040   4.722  14.553 -0.4911  0.0283  0.3039
 4353TIP3    H134550   4.088   4.790  14.506  0.6872  0.1821  1.6832
 4353TIP3    H234551   4.095   4.644  14.544 -0.8305 -0.2287  0.4474
 4354TIP3   OH234552   5.962   1.798   2.144 -0.7586 -0.5656 -0.0468
 4354TIP3    H134553   5.874   1.789   2.179 -0.3374 -1.2190  0.8683
 4354TIP3    H234554   5.954   1.863   2.074 -1.9104 -0.4363  0.2043
 4355TIP3   OH234555   0.807   3.033  16.861 -0.1392 -0.2228 -0.4565
 4355TIP3    H134556   0.758   2.965  16.907 -0.5885  0.4035  0.0138
 4355TIP3    H234557   0.898   3.017  16.884 -0.2744 -0.4762 -0.0911
 4356TIP3   OH234558   0.169   0.545   2.539  0.2102  0.0591 -0.4449
 4356TIP3    H134559   0.196   0.573   2.452 -2.8744  0.8767 -1.2074
 4356TIP3    H234560   0.103   0.477   2.523  0.3453 -0.4998  1.2614
 4357TIP3   OH234561   4.693   6.483   1.501  0.0153 -0.1225 -0.8714
 4357TIP3    H134562   4.700   6.389   1.515  0.7856 -0.0641 -0.8055
 4357TIP3    H234563   4.780   6.517   1.523 -0.7905  0.8491  0.8826
 4358TIP3   OH234564   0.310   3.224   5.088  0.2583  0.1976 -0.6053
 4358TIP3    H134565   0.330   3.257   5.176 -1.0433  1.8780 -0.9302
 4358TIP3    H234566   0.340   3.133   5.090  1.1227  0.4966  1.2726
 4359TIP3   OH234567   1.222   6.762   4.755  0.4122  0.4012 -0.5872
 4359TIP3    H134568   1.185   6.849   4.773 -1.1791 -0.1969 -0.9080
 4359TIP3    H234569   1.200   6.745   4.663  2.1643  0.3451 -1.0247
 4360TIP3   OH234570   2.366   3.414   5.799  0.0776 -0.2790 -0.7802
 4360TIP3    H134571   2.431   3.346   5.780 -2.1992 -2.0401 -2.6974
 4360TIP3    H234572   2.403   3.494   5.761  3.3780 -0.0836  2.6127
 4361TIP3   OH234573   5.985   4.772   2.290 -0.1506  0.5775 -0.6760
 4361TIP3    H134574   6.034   4.833   2.235  0.0869  1.4596  0.4934
 4361TIP3    H234575   6.002   4.802   2.380  0.3021 -1.4495 -0.0559
 4362TIP3   OH234576   6.311   6.174  15.225  1.0738 -0.1641  0.2685
 4362TIP3    H134577   6.260   6.181  15.306  0.8904  0.8328  0.0833
 4362TIP3    H234578   6.324   6.081  15.212 -1.0700 -0.4632  0.1038
 4363TIP3   OH234579   5.845   0.496   0.073 -0.4190 -0.5190 -0.4918
 4363TIP3    H134580   5.837   0.592   0.072 -4.1873 -0.7788 -1.3106
 4363TIP3    H234581   5.933   0.480   0.108 -0.2117  3.2037  0.9304
 4364TIP3   OH234582   0.564   3.624   0.854  0.0513  0.0316  0.3278
 4364TIP3    H134583   0.537   3.634   0.946 -0.3675 -2.2434  0.4871
 4364TIP3    H234584   0.484   3.597   0.809  0.9244 -1.7989 -0.1448
 4365TIP3   OH234585   2.789   0.456   0.875 -0.5568  0.0439 -0.3814
 4365TIP3    H134586   2.760   0.438   0.964  2.2950  1.0170  0.8065
 4365TIP3    H234587   2.750   0.386   0.822 -0.3240 -1.9706  2.0261
 4366TIP3   OH234588   0.732   3.261  17.014  0.1130  0.4751  0.5771
 4366TIP3    H134589   0.638   3.259  17.000  0.0874  0.7103  0.7173
 4366TIP3    H234590   0.766   3.192  16.956 -0.0612  0.9496 -0.0914
 4367TIP3   OH234591   1.551   0.302   4.210 -0.0876  0.1192 -0.1310
 4367TIP3    H134592   1.640   0.267   4.202 -0.8091 -1.3739 -2.0681
 4367TIP3    H234593   1.544   0.366   4.139 -0.9410 -0.7018 -0.8174
 4368TIP3   OH234594   1.155   5.695  17.142 -0.1423 -0.8280  0.1086
 4368TIP3    H134595   1.242   5.693  17.104  0.0696 -0.8732  0.5901
 4368TIP3    H234596   1.100   5.733  17.074  0.3091 -0.5198 -0.0873
 4369TIP3   OH234597   5.082   3.656   4.680 -0.5355 -0.4608  0.3380
 4369TIP3    H134598   5.070   3.561   4.675 -0.9905 -0.3989  0.2510
 4369TIP3    H234599   4.996   3.692   4.660  0.5356  0.0499 -3.7291
 4370TIP3   OH234600   1.975   4.822   0.031  0.3729  0.3164  0.0494
 4370TIP3    H134601   1.989   4.746  -0.026 -0.0480 -0.4677  0.9621
 4370TIP3    H234602   1.880   4.835   0.030  0.4684  0.9951 -0.3071
 4371TIP3   OH234603   6.632   4.576  10.620  0.3510  0.2431  0.5199
 4371TIP3    H134604   6.631   4.533  10.535  2.9944  1.7587 -0.2987
 4371TIP3    H234605   6.545   4.616  10.627 -0.2334 -0.7074 -1.0145
 4372TIP3   OH234606   0.686   5.412   1.358 -0.4774  0.3760 -0.2408
 4372TIP3    H134607   0.751   5.438   1.293 -0.7270  0.1493 -0.5828
 4372TIP3    H234608   0.619   5.365   1.308  0.0906 -1.1687  0.4022
 4373TIP3   OH234609   6.136   2.891   5.814 -0.3813  0.5987 -0.2234
 4373TIP3    H134610   6.156   2.804   5.780  1.5881  0.7381  0.5135
 4373TIP3    H234611   6.087   2.874   5.895  0.1612  0.1678  0.0170
 4374TIP3   OH234612   1.771   2.976   5.256 -0.0836 -0.0176  0.0158
 4374TIP3    H134613   1.716   3.000   5.331  0.4299 -0.3587  0.5029
 4374TIP3    H234614   1.826   3.052   5.241 -0.5942  0.2791 -0.3968
 4375TIP3   OH234615   2.990   6.553  15.007 -0.3044  0.4192 -0.1442
 4375TIP3    H134616   3.062   6.502  15.042  0.2017  0.7694 -0.6738
 4375TIP3    H234617   2.961   6.505  14.930  0.3840  1.0934 -0.8296
 4376TIP3   OH234618   2.004   2.144   5.266 -0.1547  0.7315  0.1913
 4376TIP3    H134619   2.005   2.237   5.243 -1.6214  0.0153 -3.0641
 4376TIP3    H234620   1.917   2.130   5.305 -0.7672  0.3126 -1.2983
 4377TIP3   OH234621   1.408   1.875  13.984 -0.3765 -0.0271 -0.4041
 4377TIP3    H134622   1.500   1.875  14.009 -0.1366 -0.7670 -1.2592
 4377TIP3    H234623   1.369   1.806  14.038 -0.9276  1.8206  1.6510
 4378TIP3   OH234624   2.179   0.040   3.061 -0.1882  0.1053 -0.6486
 4378TIP3    H134625   2.213   0.129   3.047 -0.6569  0.3465 -0.2508
 4378TIP3    H234626   2.215  -0.010   2.988 -0.1901  0.6971 -1.0657
 4379TIP3   OH234627   2.965   4.635  12.410 -0.1612 -0.1566 -0.8268
 4379TIP3    H134628   2.962   4.549  12.452  0.1603  0.4357  0.4261
 4379TIP3    H234629   2.880   4.674  12.429 -1.0622 -0.9420 -3.0474
 4380TIP3   OH234630   5.292   6.044  10.910  0.0519 -0.3089  0.2899
 4380TIP3    H134631   5.365   6.099  10.884 -0.8798 -0.4762 -2.9938
 4380TIP3    H234632   5.219   6.105  10.923  0.2588 -0.3261  1.5734
 4381TIP3   OH234633   4.657   1.850  14.306 -0.2068 -0.0158  0.7018
 4381TIP3    H134634   4.667   1.759  14.277 -1.2388 -0.6543  2.3041
 4381TIP3    H234635   4.747   1.878  14.325  0.2510 -0.2868 -0.9876
 4382TIP3   OH234636   3.856   1.191   4.789 -0.0430  0.4593 -0.2240
 4382TIP3    H134637   3.790   1.257   4.810 -1.1899 -0.5638 -0.5046
 4382TIP3    H234638   3.871   1.145   4.872 -0.3046  0.1540 -0.3441
 4383TIP3   OH234639   3.403   0.009   5.665 -0.2953 -0.8540 -0.2522
 4383TIP3    H134640   3.390  -0.048   5.588 -1.1757 -0.6495 -0.2534
 4383TIP3    H234641   3.399  -0.051   5.739 -2.5249 -0.6309 -0.1636
 4384TIP3   OH234642   1.900   1.816   6.115 -0.1926 -0.3711 -0.1319
 4384TIP3    H134643   1.808   1.800   6.133 -0.0131  0.9135  2.1615
 4384TIP3    H234644   1.935   1.852   6.197  2.1083  0.1099 -1.2682
 4385TIP3   OH234645   0.512   5.806  15.859  0.5514 -0.2336  0.1042
 4385TIP3    H134646   0.496   5.721  15.899  0.0620  0.6267  1.7768
 4385TIP3    H234647   0.487   5.795  15.767 -1.0049 -1.4373  0.6629
 4386TIP3   OH234648   4.273   6.629   2.973  0.3516 -0.0241  0.5850
 4386TIP3    H134649   4.265   6.538   3.001  0.0420 -0.7594 -1.7462
 4386TIP3    H234650   4.364   6.653   2.991  0.5773 -0.9776  0.7123
 4387TIP3   OH234651   1.228   3.493   1.866 -0.4817  0.4778 -0.0455
 4387TIP3    H134652   1.225   3.546   1.945  1.0981  0.0841  0.2956
 4387TIP3    H234653   1.312   3.515   1.825 -0.2963 -0.9176 -0.4632
 4388TIP3   OH234654   5.806   4.444   1.891  0.6805 -0.2877 -0.2253
 4388TIP3    H134655   5.825   4.386   1.965 -0.7341 -1.6751 -0.9201
 4388TIP3    H234656   5.715   4.470   1.903  1.2356  1.6564 -0.0410
 4389TIP3   OH234657   1.742   2.402   6.375  0.0423 -0.2364 -0.3418
 4389TIP3    H134658   1.649   2.417   6.362 -0.5785 -3.3974  0.1076
 4389TIP3    H234659   1.750   2.377   6.467  1.6205  1.7517  0.1109
 4390TIP3   OH234660   4.875   0.812  15.206 -0.0857  0.3027 -0.3092
 4390TIP3    H134661   4.810   0.763  15.256 -2.1645  1.0212 -2.1892
 4390TIP3    H234662   4.939   0.841  15.271 -0.8918 -1.6059  1.3928
 4391TIP3   OH234663   2.978   4.657   3.990 -0.4376  0.1985 -0.0202
 4391TIP3    H134664   2.999   4.686   4.079 -0.4650 -1.2189  0.4668
 4391TIP3    H234665   2.887   4.626   3.997  0.8388 -3.6165  0.4244
 4392TIP3   OH234666   4.766   1.262   0.165 -0.2338 -0.2471 -0.9788
 4392TIP3    H134667   4.741   1.170   0.180 -2.0825 -0.0813 -2.8347
 4392TIP3    H234668   4.706   1.312   0.220  0.9542 -0.1361  0.2407
 4393TIP3   OH234669   1.480   0.360   0.047  0.1185 -0.0557 -0.4708
 4393TIP3    H134670   1.409   0.424   0.050  0.6327  0.4828  0.6063
 4393TIP3    H234671   1.507   0.357  -0.045 -1.3455 -0.3290 -0.9023
 4394TIP3   OH234672   3.051   4.198  16.784  0.4004  0.7709  0.0622
 4394TIP3    H134673   3.078   4.195  16.876  3.3243 -0.2297 -0.7609
 4394TIP3    H234674   3.133   4.205  16.735 -0.9239 -1.3059 -2.5900
 4395TIP3   OH234675   2.954   2.843   0.072  0.3358  0.1443 -0.0275
 4395TIP3    H134676   2.910   2.887   0.144 -1.9858 -3.1583  0.7086
 4395TIP3    H234677   3.038   2.817   0.108 -0.5943 -1.0080  1.3683
 4396TIP3   OH234678   4.181   6.170   0.565 -0.0902  0.4067 -0.2625
 4396TIP3    H134679   4.252   6.233   0.552  1.4843 -1.3525 -0.2769
 4396TIP3    H234680   4.180   6.155   0.660 -2.4740  2.7285  0.1292
 4397TIP3   OH234681   1.544   2.908  15.403  0.0943  0.1377  0.3968
 4397TIP3    H134682   1.516   2.821  15.432 -0.9285 -0.0092 -0.9963
 4397TIP3    H234683   1.489   2.969  15.452 -1.7319 -0.1174 -1.2794
 4398TIP3   OH234684   3.260   5.322  16.594 -0.1656 -0.1230  0.2964
 4398TIP3    H134685   3.181   5.358  16.633 -1.2976 -0.8349 -1.3005
 4398TIP3    H234686   3.298   5.394  16.545 -0.4493 -0.1061  0.1024
 4399TIP3   OH234687   5.823   0.008   4.795 -0.0345  0.3462  0.4887
 4399TIP3    H134688   5.795  -0.071   4.747  1.2132 -1.0363  1.9658
 4399TIP3    H234689   5.744   0.040   4.837 -0.5639 -0.0991 -0.1598
 4400TIP3   OH234690   6.481   3.174   4.638 -0.5447  0.5354 -0.4553
 4400TIP3    H134691   6.534   3.101   4.668 -0.1036  1.2102  0.4404
 4400TIP3    H234692   6.544   3.246   4.625 -1.2704  1.4472  0.9618
 4401TIP3   OH234693   5.210   1.770   2.233  0.0053 -0.2822 -0.2651
 4401TIP3    H134694   5.270   1.749   2.305 -1.9477  0.3045  1.5926
 4401TIP3    H234695   5.175   1.856   2.255  0.0347  0.3143 -2.4099
 4402TIP3   OH234696   4.248   6.725   4.466 -0.4678  0.0311  0.7054
 4402TIP3    H134697   4.313   6.740   4.398 -1.4504  0.9672 -0.0513
 4402TIP3    H234698   4.196   6.651   4.434 -0.2395 -0.2481  0.9705
 4403TIP3   OH234699   0.020   0.881   4.354 -0.1960 -0.0341  0.0894
 4403TIP3    H134700   0.073   0.923   4.287 -0.9045  2.6522  1.1401
 4403TIP3    H234701   0.083   0.833   4.407  0.6680 -0.1975 -1.0630
 4404TIP3   OH234702   1.735   0.079   4.883  0.1799  0.3041 -0.4441
 4404TIP3    H134703   1.672   0.009   4.868  1.7832 -1.1284 -0.6541
 4404TIP3    H234704   1.708   0.119   4.965 -2.4965  1.3925 -1.8172
 4405TIP3   OH234705   1.436   2.452   4.448 -0.4404 -0.0816  0.1373
 4405TIP3    H134706   1.468   2.539   4.426 -1.1792  0.5250  1.3657
 4405TIP3    H234707   1.341   2.462   4.455 -0.6264 -1.2006 -0.6334
 4406TIP3   OH234708   6.488   1.605   5.801 -0.0888 -0.3739 -0.5376
 4406TIP3    H134709   6.464   1.530   5.855  0.2693 -0.5347 -0.5979
 4406TIP3    H234710   6.407   1.631   5.758 -0.7281  0.7320  1.2617
 4407TIP3   OH234711   6.420   2.019   5.622  0.4430 -0.0030 -0.5526
 4407TIP3    H134712   6.492   2.051   5.568  0.8565 -1.3437 -0.8272
 4407TIP3    H234713   6.462   1.985   5.701  0.1309 -0.8319 -0.7312
 4408TIP3   OH234714   0.367   0.764   4.529  0.1543  0.5824  0.3229
 4408TIP3    H134715   0.383   0.670   4.521 -1.5796  0.4213 -1.7668
 4408TIP3    H234716   0.311   0.772   4.606  0.2936 -0.1046  0.4998
 4409TIP3   OH234717   1.468   3.232   2.280 -0.0239  0.0050 -0.5098
 4409TIP3    H134718   1.471   3.159   2.342  0.6263  0.9257  0.5555
 4409TIP3    H234719   1.463   3.310   2.335  1.7638  0.9081 -1.5831
 4410TIP3   OH234720   1.779   1.063   1.884  0.0564  0.4774 -0.0683
 4410TIP3    H134721   1.753   1.082   1.975 -0.2104 -1.6534  0.3277
 4410TIP3    H234722   1.706   1.094   1.831 -1.4229 -1.5661  0.7320
 4411TIP3   OH234723   4.252   5.981   0.951 -0.3122  0.4847  0.3635
 4411TIP3    H134724   4.235   5.890   0.924 -1.1130  0.6002  0.4740
 4411TIP3    H234725   4.294   6.021   0.875  0.4515 -0.1060  0.4767
 4412TIP3   OH234726   2.807   2.551  11.419  0.3177 -0.2659  0.3796
 4412TIP3    H134727   2.800   2.455  11.418 -0.0008 -0.2476 -2.8928
 4412TIP3    H234728   2.877   2.571  11.356 -1.1546  1.7458 -0.6616
 4413TIP3   OH234729   6.345   6.368  16.393  0.0157  0.1432  0.7866
 4413TIP3    H134730   6.310   6.359  16.482 -1.5832  1.0699  0.2532
 4413TIP3    H234731   6.355   6.462  16.380  0.4287  0.0030  0.0495
 4414TIP3   OH234732   0.008   5.235  10.578 -0.6140  0.5946  0.3501
 4414TIP3    H134733  -0.007   5.164  10.516 -0.1042  0.2155  0.6603
 4414TIP3    H234734  -0.077   5.278  10.585 -1.0513 -0.2947  0.5438
 4415TIP3   OH234735   6.165   1.765  11.655 -0.1116  0.2250  0.4426
 4415TIP3    H134736   6.223   1.689  11.651  1.4041  1.3919  0.2823
 4415TIP3    H234737   6.101   1.750  11.585  1.7068  0.3590 -1.2761
 4416TIP3   OH234738   3.390   0.578  15.430  0.1577  0.0910 -0.1409
 4416TIP3    H134739   3.340   0.500  15.410 -0.5859  0.5551 -0.1184
 4416TIP3    H234740   3.458   0.582  15.363  0.5348 -0.8657  0.1803
 4417TIP3   OH234741   6.566   1.078  14.689 -0.0252  0.2145 -0.1171
 4417TIP3    H134742   6.485   1.088  14.740 -0.4514  2.6936 -1.2101
 4417TIP3    H234743   6.537   1.070  14.598  0.8785 -0.7504 -0.3238
 4418TIP3   OH234744   1.147   0.575  12.108  0.3551 -0.2879  0.3490
 4418TIP3    H134745   1.091   0.620  12.045  1.8345  0.3815 -0.4959
 4418TIP3    H234746   1.185   0.645  12.161  0.9791 -0.6911  0.4345
 4419TIP3   OH234747   0.476   5.460  15.547  0.2139 -0.4487 -0.0601
 4419TIP3    H134748   0.489   5.490  15.456 -2.1350  1.9393  0.3263
 4419TIP3    H234749   0.422   5.381  15.539  1.9372 -1.5762 -0.8292
 4420TIP3   OH234750   1.562   4.481  14.506 -0.4662 -0.4061  0.2576
 4420TIP3    H134751   1.653   4.498  14.531  0.0320 -1.9647 -0.4715
 4420TIP3    H234752   1.556   4.386  14.501 -2.0779 -0.2975  0.0365
 4421TIP3   OH234753   1.987   3.472   4.855  0.4958  0.4495 -0.1167
 4421TIP3    H134754   2.047   3.453   4.927  0.5286  0.8250 -0.0431
 4421TIP3    H234755   1.970   3.387   4.815  1.7605  0.4574 -0.6763
 4422TIP3   OH234756   2.032   2.387   2.773  0.5165 -0.7969  0.3138
 4422TIP3    H134757   2.083   2.401   2.852  0.9043 -0.4784  0.0021
 4422TIP3    H234758   2.037   2.292   2.757  3.5901 -0.3845 -1.4668
 4423TIP3   OH234759   3.356   4.259  15.556  0.1709  0.5789  0.0368
 4423TIP3    H134760   3.430   4.215  15.597  1.6894  2.1998 -0.8937
 4423TIP3    H234761   3.375   4.352  15.565 -2.1104  1.0382  0.3998
 4424TIP3   OH234762   6.761   1.980  12.891 -0.2042  0.3458 -0.0740
 4424TIP3    H134763   6.768   2.003  12.984  0.9076  1.0649 -0.3312
 4424TIP3    H234764   6.765   2.064  12.845  0.1033 -0.0757 -0.8253
 4425TIP3   OH234765   0.727   2.433  11.918 -0.0197  0.2006 -0.0700
 4425TIP3    H134766   0.813   2.470  11.940  0.0007  0.5498 -0.7417
 4425TIP3    H234767   0.666   2.477  11.977  0.1980  0.2685  0.1077
 4426TIP3   OH234768   1.213   6.771   0.974 -0.0736  0.4078  1.0871
 4426TIP3    H134769   1.275   6.748   0.905  1.1913  1.7003  1.7367
 4426TIP3    H234770   1.268   6.780   1.052 -1.0759  1.6180  1.6722
 4427TIP3   OH234771   2.545   0.199  13.908  0.3583 -0.6380  0.0753
 4427TIP3    H134772   2.475   0.194  13.843  1.1616 -1.1909 -0.7536
 4427TIP3    H234773   2.503   0.236  13.986 -0.8906 -1.1196 -0.3625
 4428TIP3   OH234774   3.772   3.459  14.165 -0.3717 -0.1187 -0.5318
 4428TIP3    H134775   3.745   3.551  14.168  0.5805  0.2036 -1.4218
 4428TIP3    H234776   3.798   3.445  14.074  0.3910 -1.0198 -0.1860
 4429TIP3   OH234777   2.208   3.398  16.883  0.3160 -0.1765  0.5527
 4429TIP3    H134778   2.230   3.443  16.801  3.0729 -0.2533  1.2018
 4429TIP3    H234779   2.227   3.463  16.951 -1.3756 -0.3237  1.1862
 4430TIP3   OH234780   0.021   0.144   2.079 -0.1817  0.4057 -0.0397
 4430TIP3    H134781  -0.063   0.154   2.035 -0.3928 -0.5711  0.1278
 4430TIP3    H234782   0.018   0.056   2.115  0.2270  0.9743  1.4202
 4431TIP3   OH234783   3.080   6.290  12.565  0.1076 -0.4061  0.6115
 4431TIP3    H134784   3.015   6.247  12.621 -0.9912 -0.3140 -0.5556
 4431TIP3    H234785   3.132   6.343  12.625  1.0170 -2.7531  2.0040
 4432TIP3   OH234786   0.011   6.612  11.218  0.8028  0.1795  0.5987
 4432TIP3    H134787   0.105   6.593  11.213  0.7391 -0.4562  1.6677
 4432TIP3    H234788  -0.001   6.653  11.303  0.5755  3.1479 -0.8083
 4433TIP3   OH234789   4.248   3.484  12.098  0.2736  0.8785  0.3393
 4433TIP3    H134790   4.306   3.435  12.156  1.2473  1.8775  0.2212
 4433TIP3    H234791   4.165   3.487  12.145  0.1344 -1.0345  0.2687
 4434TIP3   OH234792   2.846   3.485   3.173  0.0146  0.5111  0.3869
 4434TIP3    H134793   2.915   3.550   3.157  1.8328 -1.2323  0.9560
 4434TIP3    H234794   2.844   3.475   3.268 -0.9087  0.4103  0.3611
 4435TIP3   OH234795   2.010   2.734   1.697  0.1427  0.5467  0.4333
 4435TIP3    H134796   2.096   2.767   1.723  0.6665  0.1370 -0.7182
 4435TIP3    H234797   1.959   2.813   1.677  0.4020  0.7747  0.6705
 4436TIP3   OH234798   4.174   6.010  16.318  0.2474 -0.6303 -0.4216
 4436TIP3    H134799   4.093   5.966  16.289 -0.9212  0.1306  1.6086
 4436TIP3    H234800   4.183   6.085  16.259 -0.8714 -0.3733 -0.2753
 4437TIP3   OH234801   6.105   5.033  14.978 -0.4361  0.2395 -0.0365
 4437TIP3    H134802   6.078   4.986  15.057 -0.0772 -0.1795 -0.1681
 4437TIP3    H234803   6.028   5.029  14.921 -1.2467  1.8375  0.8698
 4438TIP3   OH234804   1.697   3.475  12.627  0.0537 -0.2383  0.2380
 4438TIP3    H134805   1.670   3.417  12.555  1.1045  0.8802 -1.0775
 4438TIP3    H234806   1.619   3.482  12.682  0.0765 -3.3868  0.7737
 4439TIP3   OH234807   3.059   6.362   3.834 -0.2430  0.1248 -0.3477
 4439TIP3    H134808   3.145   6.357   3.792  0.0289 -0.9644  0.2943
 4439TIP3    H234809   2.996   6.358   3.762  0.2255 -1.3486 -0.7010
 4440TIP3   OH234810   5.445   5.949   5.640  0.6474  0.0051 -1.1036
 4440TIP3    H134811   5.404   5.866   5.614  0.3278 -0.6770  1.4234
 4440TIP3    H234812   5.539   5.931   5.642  0.6936  0.1359 -2.0130
 4441TIP3   OH234813   2.525   5.184   6.056 -0.3171 -0.2554 -0.2921
 4441TIP3    H134814   2.457   5.202   6.121 -1.3320  0.5836 -1.5592
 4441TIP3    H234815   2.543   5.269   6.016  0.9186 -0.6108 -0.5173
 4442TIP3   OH234816   0.758   3.408  12.442 -0.3882 -0.8049 -0.6123
 4442TIP3    H134817   0.717   3.418  12.528 -0.4286  1.6563 -0.8736
 4442TIP3    H234818   0.790   3.495  12.420  0.8266 -1.6852 -2.5147
 4443TIP3   OH234819   2.452   2.617  16.173  0.5968  0.1515  0.0091
 4443TIP3    H134820   2.383   2.671  16.135 -0.4212 -0.8207  0.4433
 4443TIP3    H234821   2.444   2.630  16.267  0.8615 -0.1366  0.0731
 4444TIP3   OH234822   5.592   0.436   0.120  0.0778 -0.3223  0.1492
 4444TIP3    H134823   5.685   0.459   0.124 -0.0449  0.1052  0.6937
 4444TIP3    H234824   5.549   0.514   0.086 -0.3118  0.1875  1.7546
 4445TIP3   OH234825   1.986   5.714   4.340  0.3149  0.3293 -0.6780
 4445TIP3    H134826   1.922   5.649   4.309  1.6892 -0.2998 -2.2484
 4445TIP3    H234827   1.972   5.790   4.283 -1.1421  1.3619  1.0157
 4446TIP3   OH234828   1.018   2.844   2.758  0.1335 -0.2989 -0.1094
 4446TIP3    H134829   1.038   2.769   2.815  1.1933  0.0336 -0.0252
 4446TIP3    H234830   0.964   2.902   2.812 -2.6535 -2.0608 -0.9282
 4447TIP3   OH234831   6.250   6.788   2.214  0.4075  0.2031 -0.6060
 4447TIP3    H134832   6.247   6.703   2.170 -3.1931 -0.2646  0.3492
 4447TIP3    H234833   6.200   6.846   2.158 -0.2057  0.7817  0.5246
 4448TIP3   OH234834   3.494   2.143  16.070 -0.2668 -0.1636  0.0563
 4448TIP3    H134835   3.498   2.208  16.140 -0.0843 -1.1800  1.0068
 4448TIP3    H234836   3.401   2.137  16.048 -0.2019  0.9322 -0.5296
 4449TIP3   OH234837   3.036   0.264  13.541  0.6242  0.7449 -0.4072
 4449TIP3    H134838   2.961   0.320  13.561 -0.3409 -0.4616 -0.5771
 4449TIP3    H234839   3.091   0.316  13.482 -1.5247  0.5933 -2.6218
 4450TIP3   OH234840   4.091   5.391  11.555 -0.0234 -0.1230 -0.2510
 4450TIP3    H134841   4.029   5.441  11.609  1.8554  0.0502  1.8097
 4450TIP3    H234842   4.117   5.452  11.486  1.6236  1.5805  1.7810
 4451TIP3   OH234843   1.061   3.191   4.885  0.3182  0.0300 -0.2773
 4451TIP3    H134844   1.100   3.199   4.972 -0.8983 -1.9623  0.4982
 4451TIP3    H234845   0.969   3.173   4.902 -0.2511  1.1349 -2.0278
 4452TIP3   OH234846   2.028   2.838  15.248 -0.0344 -0.4348  0.0681
 4452TIP3    H134847   2.066   2.917  15.211 -0.5204 -1.3598 -2.4723
 4452TIP3    H234848   2.052   2.841  15.341  0.8552  2.1297 -0.2146
 4453TIP3   OH234849   2.546   6.191   6.752 -0.0056 -0.4503  0.1667
 4453TIP3    H134850   2.606   6.189   6.677  1.7295 -3.3467  1.5453
 4453TIP3    H234851   2.507   6.104   6.753 -0.6284 -0.1704  2.1609
 4454TIP3   OH234852   0.201   2.163  16.547 -0.5411 -0.3536 -0.1092
 4454TIP3    H134853   0.174   2.221  16.476 -1.6011  1.2117  1.5455
 4454TIP3    H234854   0.297   2.160  16.540 -0.6064  0.0468 -1.3897
 4455TIP3   OH234855   5.260   0.077   5.453 -0.4766  0.3999 -0.2846
 4455TIP3    H134856   5.219   0.040   5.375 -1.9189  0.0973  0.6025
 4455TIP3    H234857   5.333   0.129   5.419 -0.2589 -0.8168 -1.7360
 4456TIP3   OH234858   2.470   1.817  16.138 -0.4345  0.6518  0.2029
 4456TIP3    H134859   2.563   1.795  16.150 -0.5157  0.4955  0.5405
 4456TIP3    H234860   2.433   1.812  16.226 -0.7676  0.7091  0.0636
 4457TIP3   OH234861   0.896   1.282   6.245 -0.0268  0.3103 -0.2369
 4457TIP3    H134862   0.973   1.226   6.251 -0.3692 -0.2156 -0.6350
 4457TIP3    H234863   0.930   1.371   6.245  0.5796  0.0776 -0.4279
 4458TIP3   OH234864   0.839   0.676  17.230 -0.1252 -0.0092 -0.2440
 4458TIP3    H134865   0.772   0.640  17.288 -0.7087  0.5080 -0.5912
 4458TIP3    H234866   0.836   0.619  17.153 -0.8378  0.5981 -0.6642
 4459TIP3   OH234867   1.178   4.798  13.912  0.2981 -0.1982 -0.2115
 4459TIP3    H134868   1.203   4.740  13.984 -1.0301  0.0164  0.4304
 4459TIP3    H234869   1.224   4.763  13.836  1.3398 -0.7092  0.6402
 4460TIP3   OH234870   4.129   6.024   1.189 -0.5873 -0.0293  0.1015
 4460TIP3    H134871   4.176   6.000   1.110 -1.5308 -1.7151  0.0091
 4460TIP3    H234872   4.179   5.984   1.260 -0.0390  1.0266  0.3212
 4461TIP3   OH234873   1.436   5.731  13.899 -0.2392 -0.0408 -0.2303
 4461TIP3    H134874   1.454   5.671  13.826 -0.4463 -0.5607  0.1440
 4461TIP3    H234875   1.522   5.745  13.939 -0.0985  0.3755 -0.6713
 4462TIP3   OH234876   5.097   1.172  15.023  0.1754 -0.5149  0.2276
 4462TIP3    H134877   5.107   1.108  15.093  1.7009  0.9161  1.3692
 4462TIP3    H234878   5.115   1.256  15.065  3.9988  0.1207 -2.4305
 4463TIP3   OH234879   4.882   0.530  11.887  0.4048  0.1517  0.5242
 4463TIP3    H134880   4.855   0.520  11.978  1.2036  1.1598  0.8916
 4463TIP3    H234881   4.936   0.609  11.887 -0.8026  1.0089 -1.1000
 4464TIP3   OH234882   2.659   5.846   4.147  0.3402  0.5421 -0.0790
 4464TIP3    H134883   2.566   5.853   4.166  0.9133 -0.0852  3.1684
 4464TIP3    H234884   2.662   5.827   4.053 -2.8117  0.0248 -0.1421
 4465TIP3   OH234885   1.928   5.345  14.801  0.0501 -0.1269  0.2351
 4465TIP3    H134886   2.006   5.370  14.751 -0.0857  0.3401  0.2521
 4465TIP3    H234887   1.952   5.263  14.844  0.6992  0.2586  0.6220
 4466TIP3   OH234888   0.345   4.706  10.773  0.1007 -0.1250 -0.3308
 4466TIP3    H134889   0.268   4.654  10.752  1.3236 -1.4633 -1.6580
 4466TIP3    H234890   0.412   4.642  10.795  1.5732  0.8924 -1.7476
 4467TIP3   OH234891   2.128   3.972   4.857 -0.3744  0.0752  0.2206
 4467TIP3    H134892   2.196   4.040   4.857  0.3488 -0.6323 -0.0454
 4467TIP3    H234893   2.057   4.009   4.909  0.4352  0.6260  0.9598
 4468TIP3   OH234894   2.513   2.071  14.598 -0.1679 -0.0806 -0.1645
 4468TIP3    H134895   2.495   1.982  14.568  0.7322 -0.0548 -0.7962
 4468TIP3    H234896   2.608   2.080  14.594 -0.2661  1.0002 -0.3950
 4469TIP3   OH234897   4.672   2.755   4.779  0.7012  0.2038  0.0603
 4469TIP3    H134898   4.600   2.759   4.715 -1.2414  1.2557  2.2289
 4469TIP3    H234899   4.748   2.728   4.728 -0.6147  1.7643 -2.8380
 4470TIP3   OH234900   3.364   0.705  12.716  0.2597  0.9713  0.2295
 4470TIP3    H134901   3.358   0.796  12.745  0.2093  1.4415 -1.2211
 4470TIP3    H234902   3.304   0.699  12.641 -0.8132 -0.6157  1.1592
 4471TIP3   OH234903   2.514   0.283  16.852 -0.3769 -0.1014  0.2455
 4471TIP3    H134904   2.583   0.308  16.913  1.8509  1.4290 -2.7801
 4471TIP3    H234905   2.473   0.366  16.827 -0.5735 -0.6049 -1.1472
 4472TIP3   OH234906   2.919   5.177  15.912 -0.1593  0.0861  0.2017
 4472TIP3    H134907   2.860   5.200  15.983  0.0626  1.4142 -0.0317
 4472TIP3    H234908   3.006   5.198  15.945 -0.0432  0.5752 -0.4013
 4473TIP3   OH234909   5.256   0.657  15.469 -0.0896 -0.1351 -0.1684
 4473TIP3    H134910   5.263   0.725  15.402  0.6660 -2.1629 -2.2009
 4473TIP3    H234911   5.171   0.616  15.454  0.8139 -1.7334 -1.0219
 4474TIP3   OH234912   6.118   0.770  13.536  0.4480  0.3163  0.0589
 4474TIP3    H134913   6.139   0.709  13.466 -0.0461  0.9945 -0.6921
 4474TIP3    H234914   6.032   0.806  13.512 -0.3593 -0.4652  1.7220
 4475TIP3   OH234915   5.333   3.396  11.730 -0.1501 -0.3786  0.0981
 4475TIP3    H134916   5.376   3.452  11.665  1.5275 -0.3641  1.1979
 4475TIP3    H234917   5.405   3.348  11.771 -1.1128  0.1425  2.4646
 4476TIP3   OH234918   5.228   4.148  13.982 -0.0681 -0.0235  0.1843
 4476TIP3    H134919   5.190   4.235  13.985  0.8021  0.3789 -0.1713
 4476TIP3    H234920   5.318   4.162  13.953  0.6237 -0.8735  1.8495
 4477TIP3   OH234921   6.171   5.035   2.847  0.3386 -0.4364  0.2963
 4477TIP3    H134922   6.182   4.962   2.908  0.0403 -1.6044 -1.0243
 4477TIP3    H234923   6.220   5.008   2.769  1.5842  1.4927  0.3906
 4478TIP3   OH234924   2.318   2.978   4.644 -0.2074 -0.6469  0.8392
 4478TIP3    H134925   2.367   2.897   4.631 -0.3062 -0.4398 -0.9704
 4478TIP3    H234926   2.334   3.029   4.565 -1.6972  0.2795  1.1062
 4479TIP3   OH234927   6.379   6.121  13.224 -0.1491 -0.6909  0.0825
 4479TIP3    H134928   6.297   6.076  13.247  0.3983 -2.1211 -0.6389
 4479TIP3    H234929   6.444   6.084  13.283 -0.2888  1.5620  1.6972
 4480TIP3   OH234930   5.065   5.334   2.547  0.3744 -0.5686  0.3667
 4480TIP3    H134931   5.102   5.394   2.611  0.8876 -2.4947  1.9409
 4480TIP3    H234932   5.037   5.390   2.474  0.9013  1.5262  1.7361
 4481TIP3   OH234933   1.839   1.108  13.912  0.0654 -0.0743 -0.0127
 4481TIP3    H134934   1.907   1.126  13.847 -0.6804 -0.8622 -1.0182
 4481TIP3    H234935   1.831   1.012  13.912  0.9199 -0.1894  2.1291
 4482TIP3   OH234936   5.503   4.311  13.528  0.1607 -0.7802  0.3026
 4482TIP3    H134937   5.495   4.237  13.467  3.4497 -2.3991  1.6527
 4482TIP3    H234938   5.553   4.275  13.602 -2.3439  1.5330  3.2555
 4483TIP3   OH234939   4.514   5.989   4.992 -0.0436  0.2331  0.6374
 4483TIP3    H134940   4.528   6.071   5.040  0.0872 -0.0084  1.0234
 4483TIP3    H234941   4.588   5.933   5.020 -1.4111 -0.8499  2.2090
 4484TIP3   OH234942   1.217   5.382   0.620 -0.2026  0.0066  0.4876
 4484TIP3    H134943   1.211   5.402   0.527  0.3864 -0.7317  0.2784
 4484TIP3    H234944   1.186   5.461   0.665  0.1820  0.6188 -0.3237
 4485TIP3   OH234945   0.231   0.067   0.206 -0.3011  0.2463  0.2425
 4485TIP3    H134946   0.242   0.161   0.194 -0.1519  0.0906 -0.9895
 4485TIP3    H234947   0.304   0.041   0.263  0.6747  0.6078 -0.8269
 4486TIP3   OH234948   1.196   1.090  12.393  0.1936  0.3050 -0.7288
 4486TIP3    H134949   1.101   1.078  12.391  0.0027  1.3518  0.7205
 4486TIP3    H234950   1.212   1.134  12.477  2.2071 -1.9740  0.1449
 4487TIP3   OH234951   1.198   2.763  12.438  0.9121 -0.0849  0.6857
 4487TIP3    H134952   1.266   2.750  12.504  1.2270  1.1547  0.6092
 4487TIP3    H234953   1.246   2.777  12.357  0.5832  1.0130  0.6699
 4488TIP3   OH234954   1.905   1.566  12.606  0.6863 -0.3308  0.2834
 4488TIP3    H134955   1.878   1.504  12.674  1.5795 -0.3211  0.6479
 4488TIP3    H234956   1.930   1.511  12.532  3.4463 -0.5305  1.3011
 4489TIP3   OH234957   4.540   3.672   4.293  0.1511  0.0723  0.0160
 4489TIP3    H134958   4.600   3.599   4.278  0.7259  1.1266 -3.1769
 4489TIP3    H234959   4.466   3.655   4.234 -0.7378  0.9764  0.8399
 4490TIP3   OH234960   5.139   1.287   2.283 -0.4936  0.3398  0.2884
 4490TIP3    H134961   5.133   1.360   2.222 -0.0967  0.8542  0.8510
 4490TIP3    H234962   5.059   1.237   2.270 -0.6753  0.7704 -0.2386
 4491TIP3   OH234963   2.804   6.188  15.253 -0.0266  0.3474 -0.0676
 4491TIP3    H134964   2.867   6.183  15.181  0.5890  0.8709  0.4281
 4491TIP3    H234965   2.851   6.155  15.329 -0.7691 -0.4620  0.0367
 4492TIP3   OH234966   3.395   5.314   5.134  0.1397  0.3448 -0.1629
 4492TIP3    H134967   3.371   5.345   5.047 -0.1119 -0.5965 -0.4324
 4492TIP3    H234968   3.484   5.347   5.147 -0.3415  1.6927 -0.1904
 4493TIP3   OH234969   5.326   5.700  15.071  0.1248 -0.3664  0.4112
 4493TIP3    H134970   5.262   5.629  15.083 -0.6428 -0.3086 -2.8667
 4493TIP3    H234971   5.400   5.675  15.127 -0.2133 -3.6743 -0.4701
 4494TIP3   OH234972   2.566   0.843  15.814 -0.1203  0.1093 -0.3336
 4494TIP3    H134973   2.557   0.938  15.816 -1.7511 -0.0447  0.2029
 4494TIP3    H234974   2.535   0.817  15.728 -1.7200 -0.1226  0.3017
 4495TIP3   OH234975   2.190   1.365   2.126  0.7214 -0.4889 -0.0217
 4495TIP3    H134976   2.096   1.359   2.105  0.5445 -1.8705  1.0764
 4495TIP3    H234977   2.205   1.458   2.140 -0.6514 -0.3251  0.5037
 4496TIP3   OH234978   4.281   1.532  16.254  0.2749 -0.4763  0.6059
 4496TIP3    H134979   4.271   1.459  16.315  2.4375 -1.1150  0.2510
 4496TIP3    H234980   4.227   1.508  16.179  2.6100 -2.7625 -0.4047
 4497TIP3   OH234981   4.700   3.177  11.327 -0.0873 -0.6761  0.2034
 4497TIP3    H134982   4.640   3.112  11.364  0.1754 -0.5465  0.8507
 4497TIP3    H234983   4.669   3.188  11.237 -0.3454 -1.4396  0.1928
 4498TIP3   OH234984   2.637   5.080   1.703  0.2291  0.4304  0.1788
 4498TIP3    H134985   2.583   5.003   1.719  0.4268 -0.1102 -1.6832
 4498TIP3    H234986   2.727   5.046   1.699  0.5390  1.0760  1.5426
 4499TIP3   OH234987   5.725   5.204   2.724  0.1702 -0.1311  0.7777
 4499TIP3    H134988   5.631   5.197   2.708  0.2831 -1.4019  0.6452
 4499TIP3    H234989   5.738   5.161   2.809  0.4584  1.1214  1.3726
 4500TIP3   OH234990   6.317   1.098  11.213 -0.0461 -0.0618  0.4528
 4500TIP3    H134991   6.367   1.047  11.150  1.0561 -0.7072  1.8344
 4500TIP3    H234992   6.226   1.084  11.188  0.3475 -0.9959 -0.4818
 4501TIP3   OH234993   1.714   2.987  13.400  0.0137 -0.6935 -0.2342
 4501TIP3    H134994   1.708   2.916  13.464 -0.6201 -1.3801 -1.0281
 4501TIP3    H234995   1.786   3.042  13.431 -1.0748 -0.3481  1.7006
 4502TIP3   OH234996   6.308   6.431  14.672 -0.0616 -0.3852  0.2457
 4502TIP3    H134997   6.268   6.515  14.649  0.7571 -0.0909 -0.1196
 4502TIP3    H234998   6.238   6.367  14.658 -0.2649  0.0628 -0.8740
 4503TIP3   OH234999   4.482   4.199  13.942 -0.4753 -0.1696  0.3538
 4503TIP3    H135000   4.451   4.202  14.033  1.9629  0.3362  1.2148
 4503TIP3    H235001   4.411   4.157  13.894 -2.0875  0.1412  2.3792
 4504TIP3   OH235002   3.491   5.916   6.280  0.0432 -0.2675  0.0629
 4504TIP3    H135003   3.504   5.865   6.201 -0.8849 -0.0159 -0.2551
 4504TIP3    H235004   3.402   5.950   6.273  0.4968  1.0322  0.4830
 4505TIP3   OH235005   4.044   3.778  15.119 -0.1401 -0.0092  0.0565
 4505TIP3    H135006   4.123   3.804  15.072 -1.2223  2.7534 -0.2809
 4505TIP3    H235007   3.977   3.768  15.051 -0.8664  0.6948  0.6604
 4506TIP3   OH235008   1.330   5.005   2.498 -0.6126 -0.2483 -0.0336
 4506TIP3    H135009   1.354   5.055   2.576 -1.3087 -0.1363  0.1082
 4506TIP3    H235010   1.260   4.947   2.527  0.0049 -1.1163 -0.2673
 4507TIP3   OH235011   2.159   5.456  16.404  0.0206 -0.3712 -0.2374
 4507TIP3    H135012   2.087   5.427  16.461 -1.6181  0.7926 -1.6496
 4507TIP3    H235013   2.143   5.411  16.321  0.0626  1.0430 -1.0245
 4508TIP3   OH235014   4.227   5.662  10.437  0.6718  0.4715 -0.2333
 4508TIP3    H135015   4.261   5.663  10.347 -1.5204 -0.5209 -1.1317
 4508TIP3    H235016   4.296   5.621  10.489  0.8688 -1.5192 -1.9807
 4509TIP3   OH235017   2.671   0.621  13.056  0.1900 -0.2886  0.1032
 4509TIP3    H135018   2.665   0.580  13.142  0.2060  1.1961  0.8318
 4509TIP3    H235019   2.596   0.585  13.008 -1.4180  0.8928  1.6395
 4510TIP3   OH235020   3.195   1.950  17.013  0.2475  0.1463 -0.5222
 4510TIP3    H135021   3.252   1.938  17.090 -0.3722 -0.4364 -0.1425
 4510TIP3    H235022   3.239   1.903  16.943  2.2359  2.9910 -1.2553
 4511TIP3   OH235023   0.907   2.916   3.294 -0.2009 -0.4407 -0.1815
 4511TIP3    H135024   0.943   3.002   3.270 -0.6021 -0.2780 -0.2028
 4511TIP3    H235025   0.977   2.854   3.273  1.0379  0.1131  2.0492
 4512TIP3   OH235026   3.005   1.576  12.633  0.6642  0.1213 -0.6212
 4512TIP3    H135027   3.096   1.595  12.657  0.8859 -1.4123 -0.1902
 4512TIP3    H235028   3.012   1.513  12.561 -0.0481 -1.8685  0.9994
 4513TIP3   OH235029   3.848   3.615   2.435  0.7777 -0.5298  0.2764
 4513TIP3    H135030   3.790   3.561   2.488  1.3289 -0.8844  0.5295
 4513TIP3    H235031   3.799   3.631   2.354  0.0036 -0.1275  0.8231
 4514TIP3   OH235032   2.024   6.366  12.926 -0.5665 -0.2317  0.2532
 4514TIP3    H135033   2.012   6.400  13.015 -1.3280  0.9106 -0.2828
 4514TIP3    H235034   2.030   6.271  12.938 -0.2459 -0.0650  1.5638
 4515TIP3   OH235035   2.201   1.133   4.150 -0.1417 -0.0463  0.6369
 4515TIP3    H135036   2.191   1.227   4.136 -1.6427 -0.0926  1.3315
 4515TIP3    H235037   2.128   1.109   4.207 -0.2703 -1.7913 -0.2253
 4516TIP3   OH235038   5.589   5.149   4.108  0.8721 -0.7521 -0.4418
 4516TIP3    H135039   5.599   5.167   4.202 -1.7585  0.8486 -0.4142
 4516TIP3    H235040   5.506   5.102   4.102 -0.5340  1.8169 -2.2215
 4517TIP3   OH235041   1.638   2.759  17.096  0.3157  0.3712 -0.2974
 4517TIP3    H135042   1.693   2.807  17.159 -0.8382 -0.2279  1.2086
 4517TIP3    H235043   1.549   2.781  17.122 -0.1751 -0.3724 -1.3662
 4518TIP3   OH235044   0.418   6.224   3.572 -0.0114  0.9726 -0.2824
 4518TIP3    H135045   0.388   6.209   3.482 -0.3675  0.6682 -0.1183
 4518TIP3    H235046   0.351   6.281   3.610 -0.9671 -0.5435  0.4036
 4519TIP3   OH235047   4.174   5.574  15.702  0.0245  0.9003 -0.0319
 4519TIP3    H135048   4.113   5.574  15.628  0.0088 -0.3442 -0.0318
 4519TIP3    H235049   4.261   5.574  15.661  0.0236 -1.5493 -0.0907
 4520TIP3   OH235050   1.204   0.746  12.710 -0.1362  0.0177  0.3350
 4520TIP3    H135051   1.114   0.747  12.676  0.5074 -1.4689 -1.5091
 4520TIP3    H235052   1.259   0.749  12.632  1.4055 -1.5033  1.3177
 4521TIP3   OH235053   1.132   4.091   5.650  0.8410  0.1417  0.2420
 4521TIP3    H135054   1.126   4.141   5.732 -0.0640  2.6608 -1.3075
 4521TIP3    H235055   1.054   4.117   5.600  1.7798 -0.7556 -1.7466
 4522TIP3   OH235056   4.956   3.138   5.482 -0.3880  0.3513  0.0849
 4522TIP3    H135057   4.872   3.099   5.505  0.2510 -0.6134  0.8398
 4522TIP3    H235058   4.972   3.203   5.550  0.3335 -0.7670  1.0125
 4523TIP3   OH235059   3.295   0.248  17.230  0.2008  0.4336  0.3589
 4523TIP3    H135060   3.289   0.323  17.289  1.0871  1.9840 -1.4862
 4523TIP3    H235061   3.226   0.263  17.166  0.6060 -0.1509 -0.2158
 4524TIP3   OH235062   4.630   6.588   4.351  0.8465  0.3624  0.4182
 4524TIP3    H135063   4.633   6.528   4.425 -2.7784 -0.9553 -0.3908
 4524TIP3    H235064   4.663   6.536   4.277  0.3461  0.2591  0.2652
 4525TIP3   OH235065   0.360   1.911   1.967 -0.6523  0.1936  0.0769
 4525TIP3    H135066   0.440   1.949   2.005 -1.2378  0.1589  1.3557
 4525TIP3    H235067   0.388   1.877   1.882 -0.3336  4.4734 -1.6371
 4526TIP3   OH235068   4.445   4.592  14.412  0.3222 -0.0886  0.0411
 4526TIP3    H135069   4.477   4.525  14.351 -2.2152  0.4724 -1.9553
 4526TIP3    H235070   4.518   4.654  14.419  2.1824 -2.2859  0.8275
 4527TIP3   OH235071   6.224   0.151  11.458  0.0118 -0.8225  0.3253
 4527TIP3    H135072   6.145   0.205  11.464 -0.5254 -1.6010  0.2374
 4527TIP3    H235073   6.293   0.213  11.433 -0.2016  0.1871  2.2047
 4528TIP3   OH235074   6.119   5.159  10.606 -0.3815  0.5223  0.3130
 4528TIP3    H135075   6.037   5.122  10.640  0.1859  0.6862  1.9038
 4528TIP3    H235076   6.129   5.242  10.652 -0.7398  1.8507 -1.9582
 4529TIP3   OH235077   1.424   0.088  15.183 -0.2515 -0.1228  0.4109
 4529TIP3    H135078   1.514   0.094  15.149 -1.2619 -1.3468 -2.6211
 4529TIP3    H235079   1.396   0.179  15.192  0.7200  0.2562 -0.2265
 4530TIP3   OH235080   3.625   6.196   3.344  0.5920 -0.0392 -0.0358
 4530TIP3    H135081   3.599   6.104   3.354 -0.0434  0.1764  0.3886
 4530TIP3    H235082   3.575   6.242   3.412 -1.2156  1.0203 -2.0101
 4531TIP3   OH235083   3.342   6.384   5.074 -0.0159  0.1828  0.4036
 4531TIP3    H135084   3.423   6.436   5.069 -0.5120  0.8915 -0.6899
 4531TIP3    H235085   3.272   6.450   5.076 -0.6631 -0.4170 -1.2000
 4532TIP3   OH235086   5.032   4.278   5.600 -0.0744  0.5906  0.2242
 4532TIP3    H135087   5.115   4.325   5.606  0.9558 -0.8412 -2.1265
 4532TIP3    H235088   4.976   4.335   5.547 -0.8150  1.8102  2.2698
 4533TIP3   OH235089   0.029   6.707   5.047 -0.2964  0.0265 -0.3686
 4533TIP3    H135090  -0.057   6.683   5.081  0.3199 -0.8052  0.6312
 4533TIP3    H235091   0.021   6.696   4.952 -1.5104  0.6862 -0.3533
 4534TIP3   OH235092   4.785   1.880  14.935 -0.1866  0.0526 -0.1256
 4534TIP3    H135093   4.761   1.836  14.853 -0.5806  0.4167 -0.2095
 4534TIP3    H235094   4.822   1.964  14.906  2.3182 -0.9922 -0.0569
 4535TIP3   OH235095   3.043   1.545  12.016 -0.1809 -0.4371 -0.1699
 4535TIP3    H135096   3.114   1.493  11.978 -0.9142 -1.2113 -0.4977
 4535TIP3    H235097   3.083   1.589  12.091  0.7949 -0.3994 -0.6926
 4536TIP3   OH235098   3.678   2.687   5.300 -0.6014 -0.8569  0.0912
 4536TIP3    H135099   3.586   2.675   5.323 -0.7920  0.5514  0.1426
 4536TIP3    H235100   3.686   2.647   5.213 -1.5794  0.1713 -0.4866
 4537TIP3   OH235101   3.023   2.153   6.235  0.8111  0.2141  0.9191
 4537TIP3    H135102   3.056   2.201   6.311  1.6251  0.8513  0.1718
 4537TIP3    H235103   3.064   2.067   6.241 -0.6612 -0.4320  2.2692
 4538TIP3   OH235104   0.523   2.357   2.341 -0.4223 -0.5348 -0.3445
 4538TIP3    H135105   0.571   2.356   2.258  0.5533 -0.2565  0.2146
 4538TIP3    H235106   0.574   2.301   2.399 -0.0997  0.7359  0.6190
 4539TIP3   OH235107   0.192   1.443   3.568 -0.1198 -0.0040 -0.2506
 4539TIP3    H135108   0.101   1.449   3.599  0.2199  1.1277  0.5348
 4539TIP3    H235109   0.239   1.398   3.638 -0.3062 -1.6987 -1.1837
 4540TIP3   OH235110   2.533   0.647   3.887 -0.5169 -0.3577  0.2625
 4540TIP3    H135111   2.609   0.651   3.828 -1.3203  0.8507 -0.7240
 4540TIP3    H235112   2.504   0.738   3.894 -0.7028 -0.5524  2.2012
 4541TIP3   OH235113   4.419   4.148   5.431  0.4542  0.4101 -0.2995
 4541TIP3    H135114   4.339   4.143   5.379  0.5054  0.2311 -0.3606
 4541TIP3    H235115   4.434   4.059   5.462  1.2640  0.2042 -1.2499
 4542TIP3   OH235116   4.927   5.877  16.031 -0.7615 -0.3109  0.0732
 4542TIP3    H135117   4.996   5.853  15.969  0.4987  2.1898  0.4539
 4542TIP3    H235118   4.889   5.957  15.995 -3.2831 -1.4604  0.0448
 4543TIP3   OH235119   4.885   2.287  12.376 -0.3035 -0.3271 -0.3370
 4543TIP3    H135120   4.849   2.346  12.309  0.7061  0.1359 -0.4828
 4543TIP3    H235121   4.976   2.274  12.351  0.6934  1.5267  2.0540
 4544TIP3   OH235122   2.759   4.607  15.248  0.4613  0.4966  1.1351
 4544TIP3    H135123   2.758   4.676  15.314 -0.2594  0.2818  1.3574
 4544TIP3    H235124   2.849   4.574  15.248  0.8628  1.5940  0.8536
 4545TIP3   OH235125   1.575   2.079  15.681  0.6070  0.0584  0.2736
 4545TIP3    H135126   1.624   2.116  15.607  1.8641 -0.3913  0.8735
 4545TIP3    H235127   1.599   2.134  15.756  2.1745 -1.6769  1.0871
 4546TIP3   OH235128   6.720   4.457  16.797  0.3068 -0.0990  0.5261
 4546TIP3    H135129   6.708   4.393  16.868  0.9257  1.2203  1.8547
 4546TIP3    H235130   6.794   4.422  16.747 -0.5741 -1.3976  0.1212
 4547TIP3   OH235131   4.003   4.297  15.854 -0.0213  0.0410 -0.1209
 4547TIP3    H135132   3.916   4.257  15.847  0.2863 -0.4849 -1.0396
 4547TIP3    H235133   4.045   4.251  15.927 -0.0154 -0.6788 -0.5684
 4548TIP3   OH235134   6.359   6.395  14.938  0.1470 -0.1080 -0.4674
 4548TIP3    H135135   6.267   6.403  14.963  0.4813  0.3185  0.6486
 4548TIP3    H235136   6.359   6.406  14.843 -1.0395 -0.8741 -0.5608
 4549TIP3   OH235137   6.275   3.685  15.899  0.0671  0.2074 -0.1087
 4549TIP3    H135138   6.351   3.637  15.866 -0.1572 -1.0744  1.1953
 4549TIP3    H235139   6.202   3.654  15.846 -0.1983 -1.4576  1.1643
 4550TIP3   OH235140   2.684   6.616  13.383  0.0418 -0.1216 -0.7811
 4550TIP3    H135141   2.719   6.569  13.458 -1.5428 -1.2888 -0.7392
 4550TIP3    H235142   2.738   6.694  13.375 -0.4783  0.5833  2.2632
 4551TIP3   OH235143   2.726   4.456  15.896 -0.1098 -0.5172 -0.3957
 4551TIP3    H135144   2.643   4.469  15.943  0.0303 -1.2441  0.0691
 4551TIP3    H235145   2.711   4.494  15.810 -0.1279  1.4997  0.4654
 4552TIP3   OH235146   6.423   0.886   1.514  0.4411  0.0621 -0.4520
 4552TIP3    H135147   6.395   0.797   1.536  1.2120 -0.6949 -2.4220
 4552TIP3    H235148   6.403   0.895   1.421 -0.7925  2.4267  0.0070
 4553TIP3   OH235149   6.121   0.538   0.146  0.3072  0.2312 -0.2198
 4553TIP3    H135150   6.205   0.581   0.163  1.6698 -2.2390 -0.5103
 4553TIP3    H235151   6.100   0.493   0.228 -1.1067  1.3927  0.0823
 4554TIP3   OH235152   6.765   1.886   5.401  0.2269 -0.0916 -0.6335
 4554TIP3    H135153   6.709   1.940   5.344 -0.9763 -0.9737 -0.3238
 4554TIP3    H235154   6.703   1.832   5.450  1.2593  0.5634  1.4422
 4555TIP3   OH235155   4.281   1.916   5.877 -0.3011 -0.1002 -0.3187
 4555TIP3    H135156   4.339   1.990   5.889  0.8977 -1.0079 -0.4316
 4555TIP3    H235157   4.195   1.948   5.905  0.1160  1.4453 -0.7755
 4556TIP3   OH235158   0.138   0.031  16.831  0.7414  0.0032 -0.9254
 4556TIP3    H135159   0.058   0.027  16.883  0.6174  0.7031 -1.0532
 4556TIP3    H235160   0.164  -0.060  16.820 -0.0044 -0.2261 -0.8334
 4557TIP3   OH235161   5.713   3.369  17.192  0.3671  0.0226  0.3601
 4557TIP3    H135162   5.748   3.338  17.275 -1.3062  0.3146  1.1870
 4557TIP3    H235163   5.624   3.335  17.189  0.2539  0.4217 -1.0961
 4558TIP3   OH235164   0.354   1.439   3.340  0.1627 -0.6260 -0.1630
 4558TIP3    H135165   0.432   1.441   3.396 -0.9371 -2.7062  1.4961
 4558TIP3    H235166   0.280   1.444   3.400 -1.0332  1.7367 -1.7517
 4559TIP3   OH235167   2.439   6.202  14.903 -0.0682  0.8250  0.6945
 4559TIP3    H135168   2.461   6.226  14.993 -0.4180  1.8767  0.5011
 4559TIP3    H235169   2.461   6.279  14.851  2.3679 -0.6158 -0.4653
 4560TIP3   OH235170   2.115   3.643  14.214 -0.0333  0.3293  0.5825
 4560TIP3    H135171   2.138   3.725  14.257 -1.0799  0.5523  0.7258
 4560TIP3    H235172   2.091   3.668  14.125  2.3409 -0.1572 -0.2443
 4561TIP3   OH235173   0.758   4.173   5.222  0.3754 -0.5970 -0.0604
 4561TIP3    H135174   0.831   4.141   5.170 -1.3037 -2.4300 -1.3756
 4561TIP3    H235175   0.728   4.096   5.271 -1.3535 -0.1776 -0.4057
 4562TIP3   OH235176   2.929   1.226  15.109 -0.4609  0.5474 -0.6560
 4562TIP3    H135177   2.983   1.270  15.045  0.1322 -1.5438 -1.6473
 4562TIP3    H235178   2.991   1.190  15.173 -0.8401  0.1348 -0.5147
 4563TIP3   OH235179   2.062   2.167   5.990  0.6692  0.1295  0.0647
 4563TIP3    H135180   1.987   2.175   6.048 -0.1245 -1.4850 -0.7237
 4563TIP3    H235181   2.025   2.162   5.902  1.7914  1.0182 -0.4880
 4564TIP3   OH235182   2.557   5.047  16.357  0.0591 -0.0491  0.0148
 4564TIP3    H135183   2.571   4.952  16.360  0.6966  0.0459  0.1003
 4564TIP3    H235184   2.633   5.081  16.310 -0.1233  0.4340  0.0637
 4565TIP3   OH235185   0.073   4.091  12.695 -0.7239  0.0694  0.1029
 4565TIP3    H135186   0.074   4.043  12.778 -0.2711  1.4271  0.8963
 4565TIP3    H235187   0.133   4.165  12.709 -3.5501  2.4927 -0.0907
 4566TIP3   OH235188   5.704   0.732   0.743  0.6971 -0.3248 -0.0300
 4566TIP3    H135189   5.722   0.816   0.785  1.0058 -1.0364  1.2965
 4566TIP3    H235190   5.672   0.755   0.656  3.7298  1.1326 -0.8424
 4567TIP3   OH235191   2.041   1.180  13.073  0.0407  0.2040 -0.3847
 4567TIP3    H135192   2.128   1.191  13.112 -0.4346  0.8425  0.5143
 4567TIP3    H235193   2.015   1.091  13.099  0.0903  0.3042  0.0086
 4568TIP3   OH235194   6.532   2.651  16.415  0.5864 -0.0577 -0.1664
 4568TIP3    H135195   6.537   2.599  16.335 -0.6767 -0.6941  0.1576
 4568TIP3    H235196   6.443   2.685  16.416  1.2549  1.7487 -0.1378
 4569TIP3   OH235197   5.122   6.791  12.294  0.0417  0.4554  0.0395
 4569TIP3    H135198   5.055   6.731  12.327 -0.6716  1.0851 -0.2541
 4569TIP3    H235199   5.109   6.791  12.199 -0.0205  1.1502  0.0494
 4570TIP3   OH235200   5.980   3.818  11.467  0.0381 -0.5096  0.6916
 4570TIP3    H135201   5.991   3.757  11.541  0.2569 -1.0828  0.1897
 4570TIP3    H235202   5.894   3.796  11.431  0.0770 -0.4574  0.5673
 4571TIP3   OH235203   2.378   5.519  11.337 -0.0011 -0.4771 -0.1475
 4571TIP3    H135204   2.386   5.615  11.340 -0.7205 -0.4484  3.7071
 4571TIP3    H235205   2.284   5.503  11.351 -0.5438 -1.7406 -4.4834
 4572TIP3   OH235206   0.256   4.295  12.729  0.1987 -0.5548  0.3552
 4572TIP3    H135207   0.245   4.387  12.753 -0.3248 -0.6127  0.3472
 4572TIP3    H235208   0.350   4.286  12.710 -0.2634  0.7496 -2.8401
 4573TIP3   OH235209   4.293   0.935  15.451  0.3546  0.5961  0.0459
 4573TIP3    H135210   4.264   0.990  15.524 -2.2309 -0.4909 -0.0783
 4573TIP3    H235211   4.306   0.996  15.378 -0.1835  1.3191  0.5462
 4574TIP3   OH235212   6.552   4.264   2.375 -0.3750 -0.2536 -0.0709
 4574TIP3    H135213   6.539   4.358   2.392  0.0338 -0.1862 -0.1254
 4574TIP3    H235214   6.472   4.223   2.405 -1.0806  0.2541 -1.2090
 4575TIP3   OH235215   4.790   6.651  15.418  0.3400 -1.0129  0.3172
 4575TIP3    H135216   4.800   6.573  15.364  1.9839 -0.8163  0.3011
 4575TIP3    H235217   4.874   6.696  15.411 -0.7189  0.9799 -0.0013
 4576TIP3   OH235218   1.385   6.598  14.914  0.1661 -0.0211 -0.0542
 4576TIP3    H135219   1.388   6.507  14.943  2.9290  0.0596  0.0475
 4576TIP3    H235220   1.467   6.636  14.945 -0.6998  2.3755 -0.5601
 4577TIP3   OH235221   6.132   3.533  16.088  0.0380 -0.4261  0.6817
 4577TIP3    H135222   6.213   3.557  16.043 -0.9813  0.6272 -0.6373
 4577TIP3    H235223   6.144   3.441  16.113  0.8291 -0.8841 -1.3400
 4578TIP3   OH235224   4.854   5.245   3.793 -0.5152  0.2140  0.3147
 4578TIP3    H135225   4.860   5.307   3.720 -0.9669  1.2199  1.1084
 4578TIP3    H235226   4.876   5.297   3.871  1.8042 -1.2840  0.7109
 4579TIP3   OH235227   2.628   6.784  11.919 -0.4138 -0.6322  0.3951
 4579TIP3    H135228   2.582   6.748  11.994 -1.6718 -0.1081 -0.1137
 4579TIP3    H235229   2.662   6.868  11.949 -1.5568 -0.0772  0.1724
 4580TIP3   OH235230   3.922   3.342   5.840 -0.2845  0.2755  0.2226
 4580TIP3    H135231   3.892   3.283   5.909  1.2114 -1.0420 -0.2278
 4580TIP3    H235232   3.993   3.391   5.880  1.9361 -1.9031 -0.9352
 4581TIP3   OH235233   0.245   1.149  13.582 -0.9286 -0.0795  0.6077
 4581TIP3    H135234   0.289   1.085  13.637  1.3548  0.2873 -0.7528
 4581TIP3    H235235   0.186   1.195  13.642 -0.2060 -1.2369  2.2481
 4582TIP3   OH235236   5.504   3.188   4.067 -0.3221 -0.3942  0.3814
 4582TIP3    H135237   5.516   3.245   4.143  0.3467  0.5854 -0.4411
 4582TIP3    H235238   5.592   3.182   4.028 -0.6288 -1.0164 -0.2209
 4583TIP3   OH235239   5.015   5.365  16.200 -0.1495 -0.1177 -0.4255
 4583TIP3    H135240   5.027   5.429  16.270  1.4562 -0.5526 -0.2843
 4583TIP3    H235241   5.027   5.280  16.242  0.5405 -0.3960 -1.1693
 4584TIP3   OH235242   2.183   0.840  16.365 -0.2611  0.2850  0.2945
 4584TIP3    H135243   2.225   0.830  16.279  0.2920  1.8205  0.3728
 4584TIP3    H235244   2.110   0.900  16.349 -0.6996 -0.1367  0.7153
 4585TIP3   OH235245   0.779   2.468  11.411  0.0154 -0.2795  0.0097
 4585TIP3    H135246   0.821   2.551  11.385  1.5523 -0.7274  0.9643
 4585TIP3    H235247   0.720   2.493  11.481  1.0135 -0.0745  0.7939
 4586TIP3   OH235248   0.563   3.055  11.202 -0.3775  0.9531  0.7026
 4586TIP3    H135249   0.483   3.063  11.151 -0.8905  0.8422  1.4863
 4586TIP3    H235250   0.538   3.080  11.291  1.1372  3.8463  0.3522
 4587TIP3   OH235251   6.316   4.320   4.168  0.8880  0.9423  0.0158
 4587TIP3    H135252   6.326   4.241   4.115 -0.9166 -0.1689  1.2813
 4587TIP3    H235253   6.255   4.374   4.118 -0.6641 -0.0238  0.8421
 4588TIP3   OH235254   5.587   2.332   6.318  0.3778  0.2880  0.2908
 4588TIP3    H135255   5.532   2.370   6.387  2.1102  2.6892  0.3789
 4588TIP3    H235256   5.647   2.274   6.365 -0.3495 -0.3395  0.4645
 4589TIP3   OH235257   1.897   3.186   0.159  0.1653 -0.1568  0.3053
 4589TIP3    H135258   1.975   3.226   0.119  0.0521  0.4727  0.7179
 4589TIP3    H235259   1.854   3.141   0.086  0.9039 -0.4972  0.0689
 4590TIP3   OH235260   2.186   5.688  12.159  0.0474  0.7313 -0.0988
 4590TIP3    H135261   2.207   5.710  12.250  1.7397  1.4772 -0.6461
 4590TIP3    H235262   2.264   5.715  12.109 -0.6453 -0.1570 -1.6985
 4591TIP3   OH235263   6.437   6.357  11.216  0.1249 -0.5780  0.4348
 4591TIP3    H135264   6.444   6.275  11.167 -1.6580 -2.0767  2.5714
 4591TIP3    H235265   6.343   6.366  11.234  0.3273  1.8452  0.3943
 4592TIP3   OH235266   2.968   2.108  17.145  0.4591 -0.4101  1.0118
 4592TIP3    H135267   3.050   2.157  17.155 -0.2898  0.7629  1.5061
 4592TIP3    H235268   2.996   2.016  17.139  1.7729 -0.0727  1.7214
 4593TIP3   OH235269   3.033   3.943  14.530 -0.0789  0.5106  0.0024
 4593TIP3    H135270   3.108   3.887  14.551 -0.4028  0.0069 -0.1661
 4593TIP3    H235271   3.029   3.944  14.434 -1.5792 -1.2380  0.0102
 4594TIP3   OH235272   2.560   2.238   5.567 -0.4107 -0.5924  0.3672
 4594TIP3    H135273   2.550   2.332   5.551 -0.5196 -0.6197  0.2740
 4594TIP3    H235274   2.596   2.232   5.655  0.4459 -0.4317  0.0357
 4595TIP3   OH235275   0.268   4.123   5.084 -0.2011 -0.1669 -0.1578
 4595TIP3    H135276   0.356   4.123   5.047 -0.6784 -0.1434 -1.3098
 4595TIP3    H235277   0.213   4.086   5.015 -0.8379 -1.7849  1.1781
 4596TIP3   OH235278   2.063   6.124   1.563  0.1763 -0.3698  0.1217
 4596TIP3    H135279   2.043   6.041   1.608  0.6966  0.0985  1.2351
 4596TIP3    H235280   2.139   6.105   1.509  0.7660 -0.4233  0.9662
 4597TIP3   OH235281   3.835   0.161  13.775  0.4496  0.2356  0.1150
 4597TIP3    H135282   3.850   0.248  13.737 -1.2195  0.5458  0.1555
 4597TIP3    H235283   3.886   0.102  13.719 -0.9763  0.8398 -1.8703
 4598TIP3   OH235284   5.350   2.561   3.642 -0.3365  0.3832  0.2374
 4598TIP3    H135285   5.260   2.577   3.670 -0.8960 -3.0340  0.6080
 4598TIP3    H235286   5.343   2.546   3.547 -0.4451 -1.5754  0.5340
 4599TIP3   OH235287   6.415   0.984  13.234  0.3703 -0.2242 -0.0281
 4599TIP3    H135288   6.387   0.904  13.191  0.1601 -1.1393  1.7932
 4599TIP3    H235289   6.423   0.961  13.326  2.0788  1.3657  0.2540
 4600TIP3   OH235290   3.314   5.245   3.767  0.3910  0.6213  0.1021
 4600TIP3    H135291   3.367   5.271   3.691 -0.6000 -0.5430 -1.0040
 4600TIP3    H235292   3.379   5.214   3.831  1.3136  2.6403  0.1660
 4601TIP3   OH235293   5.055   3.187   6.261 -0.1170 -0.6539 -0.0179
 4601TIP3    H135294   5.044   3.147   6.174  0.8871 -0.4108 -0.2618
 4601TIP3    H235295   5.079   3.114   6.318  1.6853 -0.4171 -0.4574
 4602TIP3   OH235296   0.884   2.462   1.471 -0.3210  0.3168 -0.0472
 4602TIP3    H135297   0.916   2.397   1.534  2.3601  2.3345  0.7523
 4602TIP3    H235298   0.962   2.488   1.422 -1.9025  0.7743 -2.4084
 4603TIP3   OH235299   5.530   0.868   4.210 -0.7597  0.2812  0.0203
 4603TIP3    H135300   5.520   0.961   4.191 -0.5185  0.4125  0.5069
 4603TIP3    H235301   5.441   0.838   4.230 -1.0701  0.0549 -1.6276
 4604TIP3   OH235302   5.993   4.137   3.640 -0.2748  0.0224 -0.1596
 4604TIP3    H135303   5.971   4.201   3.573 -1.0528 -1.7001 -1.5879
 4604TIP3    H235304   5.957   4.174   3.721  0.1679  1.8355 -0.7706
 4605TIP3   OH235305   0.757   4.862   5.807 -0.4121 -0.8880 -0.1548
 4605TIP3    H135306   0.801   4.911   5.738 -0.9722  0.7011  0.5717
 4605TIP3    H235307   0.817   4.868   5.882 -1.2733  0.2620  0.4749
 4606TIP3   OH235308   2.013   6.576   1.880  0.7076 -0.3788  0.5679
 4606TIP3    H135309   1.993   6.572   1.786 -1.4968 -0.6405  1.0165
 4606TIP3    H235310   1.928   6.566   1.923  1.5087  1.1804  2.5856
 4607TIP3   OH235311   4.553   1.825   2.712  0.4370  0.0897  0.2008
 4607TIP3    H135312   4.625   1.841   2.651  1.8616 -0.4567  1.7052
 4607TIP3    H235313   4.577   1.744   2.757 -1.2204 -0.2102  0.5584
 4608TIP3   OH235314   1.817   4.928  15.701  0.1976  0.3737  0.6269
 4608TIP3    H135315   1.785   5.013  15.671  0.0136  0.5245  1.2435
 4608TIP3    H235316   1.838   4.942  15.793  0.4418 -0.1745  0.6535
 4609TIP3   OH235317   4.407   3.106  10.602 -0.2925  0.4725 -0.4591
 4609TIP3    H135318   4.476   3.155  10.647  0.2335  1.0907 -1.8954
 4609TIP3    H235319   4.331   3.112  10.659  0.7999 -0.1014  1.0915
 4610TIP3   OH235320   1.164   1.030  13.091  0.2695  0.7005 -0.1375
 4610TIP3    H135321   1.156   1.035  12.996 -1.4181  1.9793  0.0291
 4610TIP3    H235322   1.158   1.121  13.120 -0.0385  0.2534  1.2352
 4611TIP3   OH235323   2.403   6.538  11.764 -0.3867  0.3975  0.0308
 4611TIP3    H135324   2.402   6.463  11.705 -0.9939  0.1654  0.3354
 4611TIP3    H235325   2.483   6.526  11.816  0.3910  0.8418 -1.0398
 4612TIP3   OH235326   6.761   4.292  17.017 -0.6726  0.2488  0.1569
 4612TIP3    H135327   6.684   4.240  16.993 -1.2560  1.2527 -0.1777
 4612TIP3    H235328   6.767   4.283  17.112 -0.2269 -1.1653 -0.0005
 4613TIP3   OH235329   2.239   3.571  13.066  0.4306 -0.1611  0.3210
 4613TIP3    H135330   2.183   3.507  13.023 -1.2066  1.1547  0.4326
 4613TIP3    H235331   2.312   3.584  13.005  0.5303 -1.7533  0.0910
 4614TIP3   OH235332   4.589   4.171   5.210 -0.1891  0.2733  0.0809
 4614TIP3    H135333   4.534   4.137   5.281 -0.1493 -0.1213 -0.0768
 4614TIP3    H235334   4.586   4.266   5.221 -0.0980  0.2062  0.6762
 4615TIP3   OH235335   6.214   2.202  14.695 -0.2828  0.1821 -0.2420
 4615TIP3    H135336   6.208   2.124  14.639  1.0123  0.1868 -0.4041
 4615TIP3    H235337   6.180   2.273  14.641  1.2720  0.2486 -1.1663
 4616TIP3   OH235338   3.353   0.864  12.136  0.4263 -0.0351 -0.1512
 4616TIP3    H135339   3.403   0.943  12.114  0.4058 -0.6116 -2.3758
 4616TIP3    H235340   3.262   0.893  12.136  0.4463  0.0371 -0.5739
 4617TIP3   OH235341   6.708   4.368   4.499 -0.0421  0.7131  0.2138
 4617TIP3    H135342   6.633   4.316   4.471  0.2834  0.1345  0.3983
 4617TIP3    H235343   6.770   4.362   4.426  0.7049 -0.5920  0.9233
 4618TIP3   OH235344   5.575   6.502   5.838  0.0108  0.2385  0.1645
 4618TIP3    H135345   5.628   6.551   5.774  0.4934 -0.1039  0.3010
 4618TIP3    H235346   5.485   6.532   5.822  0.3175  1.2665  0.3303
 4619TIP3   OH235347   4.272   5.840  15.144 -0.3202 -0.0567  0.1146
 4619TIP3    H135348   4.269   5.814  15.236 -0.1015 -0.2107  0.0795
 4619TIP3    H235349   4.230   5.926  15.142 -1.1251 -0.4387  0.2174
 4620TIP3   OH235350   2.417   1.766   6.718 -0.0133  0.0365 -0.6183
 4620TIP3    H135351   2.330   1.730   6.734  0.2142 -0.1107  0.3777
 4620TIP3    H235352   2.472   1.690   6.701  0.3911 -0.0944  1.1162
 4621TIP3   OH235353   0.514   1.255   1.409 -0.4596  0.1086  0.4988
 4621TIP3    H135354   0.425   1.237   1.380 -0.2758  0.0246 -0.0123
 4621TIP3    H235355   0.533   1.342   1.373 -0.3161  0.1027  0.5622
 4622TIP3   OH235356   0.376   2.821   5.623  0.2702 -0.5445  0.1321
 4622TIP3    H135357   0.320   2.743   5.628 -0.3155 -0.1485 -0.1355
 4622TIP3    H235358   0.456   2.790   5.581  0.1275 -1.0543  0.2339
 4623TIP3   OH235359   0.267   3.013   4.228  0.1051  0.1353 -0.0422
 4623TIP3    H135360   0.222   2.941   4.272 -0.0162  0.6286  0.6380
 4623TIP3    H235361   0.196   3.067   4.193  0.1307  1.4809  1.9306
 4624TIP3   OH235362   0.933   5.743  16.014 -0.6347  0.4048  0.3624
 4624TIP3    H135363   0.884   5.825  16.009 -1.1086  0.1033 -0.0519
 4624TIP3    H235364   0.885   5.684  15.955 -0.5908 -0.3124  1.0460
 4625TIP3   OH235365   0.950   1.226  11.769 -0.4113  0.1930 -0.4032
 4625TIP3    H135366   0.935   1.134  11.787 -2.7890  0.7160  0.4538
 4625TIP3    H235367   0.937   1.234  11.674  0.8268 -0.5283 -0.6378
 4626TIP3   OH235368   0.669   1.679   5.332 -0.1472 -0.2423  0.0985
 4626TIP3    H135369   0.614   1.614   5.376  1.1467 -0.6985  1.0783
 4626TIP3    H235370   0.718   1.722   5.403 -0.5741  1.4248 -0.5906
 4627TIP3   OH235371   0.209   4.962  11.125 -0.0658  0.5743  0.7074
 4627TIP3    H135372   0.249   5.038  11.167  0.6404  0.1574  0.7969
 4627TIP3    H235373   0.259   4.950  11.044 -1.4896  1.4488 -0.3453
 4628TIP3   OH235374   3.357   2.589  16.119  0.6360  0.2374 -0.2982
 4628TIP3    H135375   3.415   2.586  16.195  1.2512  0.7393 -0.7463
 4628TIP3    H235376   3.385   2.667  16.070  0.6707 -0.4508 -1.3876
 4629TIP3   OH235377   2.014   1.929  16.943  0.1388 -0.1954 -0.9995
 4629TIP3    H135378   2.091   1.952  16.994 -0.7605 -1.9569  1.2438
 4629TIP3    H235379   2.046   1.923  16.853  2.2928  0.5510 -0.3110
 4630TIP3   OH235380   3.578   5.807   3.616  0.0165 -0.5263 -0.3795
 4630TIP3    H135381   3.599   5.859   3.693  0.4953 -0.1527 -0.7562
 4630TIP3    H235382   3.636   5.731   3.622 -2.1687 -2.1202  1.2879
 4631TIP3   OH235383   4.518   6.093   1.087 -0.2321 -0.2646 -0.3665
 4631TIP3    H135384   4.572   6.116   1.011  0.2956  0.3897  0.2040
 4631TIP3    H235385   4.439   6.054   1.049 -0.4450  1.0404 -1.2962
 4632TIP3   OH235386   1.203   3.660  11.373  0.2471  0.2011  0.2017
 4632TIP3    H135387   1.142   3.636  11.303  1.2476 -0.9068 -0.2953
 4632TIP3    H235388   1.222   3.752  11.357  1.3169 -0.3143 -1.6456
 4633TIP3   OH235389   4.948   3.117   0.344 -0.0989 -0.3095 -0.6949
 4633TIP3    H135390   4.877   3.055   0.359 -0.9032  0.9699  0.9416
 4633TIP3    H235391   5.006   3.106   0.419  1.4541 -1.3266 -2.0023
 4634TIP3   OH235392   1.388   2.647  12.591  0.6053 -0.3199 -0.0279
 4634TIP3    H135393   1.468   2.644  12.643 -0.7328  0.3714  2.1550
 4634TIP3    H235394   1.340   2.568  12.617 -0.6223  0.6610  0.7166
 4635TIP3   OH235395   2.567   5.636  16.858  0.2287  0.3417 -0.2083
 4635TIP3    H135396   2.620   5.569  16.901 -1.0882 -0.4214  0.2872
 4635TIP3    H235397   2.590   5.630  16.765 -0.7579 -1.6531 -0.3446
 4636TIP3   OH235398   4.766   1.414  17.189 -0.2761 -0.5527  0.0653
 4636TIP3    H135399   4.807   1.375  17.267 -0.2370 -0.2544  0.1962
 4636TIP3    H235400   4.727   1.340  17.143 -0.4264 -0.7158  0.4483
 4637TIP3   OH235401   6.485   2.562   5.696  0.2762 -0.7089  0.2040
 4637TIP3    H135402   6.424   2.635   5.707 -0.4534 -1.0958 -1.2018
 4637TIP3    H235403   6.428   2.485   5.691  0.7837 -0.9631 -2.2305
 4638TIP3   OH235404   0.945   2.834   2.509  0.2479  0.3744 -0.0226
 4638TIP3    H135405   1.009   2.813   2.577  0.6169 -0.0947 -0.5076
 4638TIP3    H235406   0.887   2.898   2.549  1.8525  1.8763 -0.0065
 4639TIP3   OH235407   0.207   3.778  15.738  0.4339  0.4023  0.1834
 4639TIP3    H135408   0.186   3.723  15.814  2.1930  0.9853  1.1413
 4639TIP3    H235409   0.139   3.845  15.738  0.1043  0.0825  0.9300
 4640TIP3   OH235410   6.503   4.301  11.342  0.2228  0.2605  0.2220
 4640TIP3    H135411   6.442   4.337  11.277 -0.0982  1.1546  0.9956
 4640TIP3    H235412   6.488   4.355  11.420  1.1051 -0.3449  0.8109
 4641TIP3   OH235413   0.279   0.690  15.073  0.5774  0.0874  0.0317
 4641TIP3    H135414   0.370   0.663  15.056  0.5622  0.0815 -0.0436
 4641TIP3    H235415   0.280   0.785  15.065  0.3624  0.0103 -1.0413
 4642TIP3   OH235416   6.611   1.300  14.353  0.3974 -0.1971  0.4546
 4642TIP3    H135417   6.596   1.206  14.342  1.6621 -0.1859 -1.6887
 4642TIP3    H235418   6.580   1.319  14.441 -0.4419 -2.5114  0.6946
 4643TIP3   OH235419   1.376   0.248   3.992 -0.6869 -0.3369 -0.3440
 4643TIP3    H135420   1.410   0.330   3.956 -1.7433 -0.0425 -0.6685
 4643TIP3    H235421   1.436   0.228   4.065 -1.9560  2.1156  1.4589
 4644TIP3   OH235422   5.007   5.748  15.380  0.8789 -0.0932 -0.1106
 4644TIP3    H135423   4.949   5.684  15.422  0.2060  0.1016 -0.7356
 4644TIP3    H235424   5.088   5.742  15.430 -0.1486  0.6554  1.7271
 4645TIP3   OH235425   5.746   3.125  11.975 -0.3433 -0.4828  0.4440
 4645TIP3    H135426   5.684   3.190  11.944  0.1802  0.3648  1.1710
 4645TIP3    H235427   5.767   3.151  12.065  2.1294  0.0515 -0.2405
 4646TIP3   OH235428   6.111   4.905  17.026 -0.4516  0.2111 -0.2353
 4646TIP3    H135429   6.111   4.998  17.006 -1.0895  0.3579  0.3821
 4646TIP3    H235430   6.085   4.901  17.118  1.7670 -0.4632  0.3832
 4647TIP3   OH235431   4.670   2.189   0.900  0.4023  0.0880  0.0283
 4647TIP3    H135432   4.664   2.252   0.829  1.2336  1.9396  1.5577
 4647TIP3    H235433   4.762   2.188   0.924 -0.2358  1.2730  2.6463
 4648TIP3   OH235434   3.394   5.565  14.977  1.0916 -0.1294 -0.0860
 4648TIP3    H135435   3.351   5.518  15.049 -0.9207 -0.1565 -1.2517
 4648TIP3    H235436   3.481   5.585  15.010  0.0270  0.3393  2.5531
 4649TIP3   OH235437   4.759   0.271  11.668  0.0299  0.4846  0.1790
 4649TIP3    H135438   4.816   0.335  11.711 -0.6842  0.6338  0.9089
 4649TIP3    H235439   4.803   0.187  11.681  0.6307  0.7423 -0.1973
 4650TIP3   OH235440   3.165   6.395  17.238  0.2724  0.4219  0.0392
 4650TIP3    H135441   3.176   6.370  17.147  1.3275  2.2428 -0.3351
 4650TIP3    H235442   3.177   6.313  17.287  1.0818 -0.2918 -1.3502
 4651TIP3   OH235443   6.092   1.758   5.428 -0.2856 -0.6493 -0.3781
 4651TIP3    H135444   6.015   1.759   5.372  0.3092  0.7564 -1.2067
 4651TIP3    H235445   6.136   1.841   5.410  0.8582 -0.9548  0.8706
 4652TIP3   OH235446   1.536   0.981   1.534 -0.4708 -0.5251 -0.0115
 4652TIP3    H135447   1.461   0.921   1.534  1.5114 -3.1048 -0.0567
 4652TIP3    H235448   1.609   0.928   1.503  0.8620  2.6605 -2.6497
 4653TIP3   OH235449   5.102   1.234  13.183 -0.4177  0.2464 -0.2956
 4653TIP3    H135450   5.170   1.217  13.248 -0.2827 -0.6589 -0.6660
 4653TIP3    H235451   5.140   1.301  13.126 -0.6274  1.2109  0.6836
 4654TIP3   OH235452   5.978   2.808   2.570 -0.0459 -0.3164 -0.0477
 4654TIP3    H135453   6.000   2.716   2.586 -1.4398 -0.4495  1.1774
 4654TIP3    H235454   5.883   2.808   2.559  0.0819  0.8257 -1.2162
 4655TIP3   OH235455   2.550   3.787   0.451  0.7368  0.2946 -0.1380
 4655TIP3    H135456   2.591   3.846   0.388 -0.3715  1.2923  0.0629
 4655TIP3    H235457   2.470   3.832   0.478  0.2113 -0.9984  0.5221
 4656TIP3   OH235458   3.009   4.286   2.504 -0.8380 -0.4481 -0.0491
 4656TIP3    H135459   2.985   4.363   2.452  0.4869 -0.5933 -0.8825
 4656TIP3    H235460   3.103   4.295   2.520 -1.1040 -0.7495  1.7710
 4657TIP3   OH235461   3.163   4.618   2.511 -0.0250 -1.0544  0.0608
 4657TIP3    H135462   3.182   4.535   2.555  1.1726  0.6055  2.7859
 4657TIP3    H235463   3.068   4.628   2.518 -0.1368 -2.0132  0.0351
 4658TIP3   OH235464   3.564   5.837   2.212 -0.1816 -0.4501  0.0157
 4658TIP3    H135465   3.619   5.907   2.177 -0.2850 -0.6950 -0.6338
 4658TIP3    H235466   3.627   5.771   2.241 -0.1172 -0.5340 -0.3119
 4659TIP3   OH235467   6.493   2.448  13.644  0.0391 -0.0711 -0.7972
 4659TIP3    H135468   6.552   2.410  13.580  1.9956  0.2656  0.7414
 4659TIP3    H235469   6.414   2.471  13.595  0.4984 -2.1448 -2.5483
 4660TIP3   OH235470   1.786   6.410  13.344  0.6877  0.7444  0.4371
 4660TIP3    H135471   1.852   6.391  13.278 -0.1726 -0.0951 -0.2089
 4660TIP3    H235472   1.717   6.345  13.328  0.4393  0.5724  2.1173
 4661TIP3   OH235473   0.775   6.298   2.669  0.4790 -1.2579  0.1919
 4661TIP3    H135474   0.789   6.361   2.598 -2.9996 -0.3269  0.2243
 4661TIP3    H235475   0.794   6.213   2.630 -0.1566 -0.6470 -1.5104
 4662TIP3   OH235476   3.704   5.576   3.980 -0.3989  0.6066 -0.7182
 4662TIP3    H135477   3.705   5.564   4.075 -0.4626  1.0181 -0.6638
 4662TIP3    H235478   3.691   5.671   3.968 -0.3236  0.5647 -1.1336
 4663TIP3   OH235479   1.058   5.564   2.112 -0.2544  0.5038  0.1039
 4663TIP3    H135480   1.082   5.599   2.198 -1.6386  2.8786 -0.4336
 4663TIP3    H235481   1.140   5.563   2.063  0.7782 -1.9314  1.7508
 4664TIP3   OH235482   5.204   0.815  14.422  0.3978 -1.0775 -0.0017
 4664TIP3    H135483   5.291   0.785  14.397  0.4808  0.9646 -2.3517
 4664TIP3    H235484   5.145   0.774  14.360  0.1539  0.7390 -1.0188
 4665TIP3   OH235485   5.423   5.729  12.826 -0.2165 -0.5089  0.1366
 4665TIP3    H135486   5.514   5.718  12.853 -0.3903 -2.6075  0.0096
 4665TIP3    H235487   5.422   5.811  12.777  0.8765  1.3443  3.0888
 4666TIP3   OH235488   6.336   2.332   2.551  0.3459 -0.1225 -0.0138
 4666TIP3    H135489   6.327   2.382   2.470 -0.9967  0.3865  0.4383
 4666TIP3    H235490   6.339   2.241   2.523 -0.8624  0.0112 -0.5883
 4667TIP3   OH235491   2.874   0.080  16.755 -0.2657  0.1091  0.5866
 4667TIP3    H135492   2.962   0.064  16.721 -1.2880 -0.2784 -2.0127
 4667TIP3    H235493   2.869   0.028  16.835  1.4165 -0.9095  0.0546
 4668TIP3   OH235494   1.466   4.961   5.581  0.1727 -0.1732  0.0721
 4668TIP3    H135495   1.500   5.040   5.623  0.7535 -0.3384 -0.0741
 4668TIP3    H235496   1.395   4.932   5.637  0.3259  0.1410  0.4290
 4669TIP3   OH235497   3.408   1.510  16.502 -0.1670  0.5603  0.0646
 4669TIP3    H135498   3.411   1.418  16.529 -1.7042  1.0721  2.0841
 4669TIP3    H235499   3.498   1.542  16.515  0.3936 -0.6479 -0.7368
 4670TIP3   OH235500   0.864   3.007   3.543  0.1784  0.3468  0.1617
 4670TIP3    H135501   0.943   2.965   3.576  0.5875 -0.4134 -1.6960
 4670TIP3    H235502   0.861   2.983   3.450 -0.8915  2.4110 -0.3820
 4671TIP3   OH235503   3.820   4.202   2.895 -0.0134  0.2779  0.0950
 4671TIP3    H135504   3.739   4.154   2.907  0.5525 -0.7910 -0.3287
 4671TIP3    H235505   3.878   4.141   2.850  0.5987  1.4654 -0.7571
 4672TIP3   OH235506   1.107   2.865  13.878  0.0305 -0.2486 -0.5961
 4672TIP3    H135507   1.129   2.914  13.957 -0.8814  0.1164 -0.5598
 4672TIP3    H235508   1.132   2.922  13.806 -2.5690  1.0249 -0.5583
 4673TIP3   OH235509   4.281   6.186  16.119 -0.0217  0.2810 -0.1788
 4673TIP3    H135510   4.281   6.280  16.139 -0.7338  0.9929 -3.1377
 4673TIP3    H235511   4.358   6.174  16.063  0.4818 -1.0644  0.7853
 4674TIP3   OH235512   1.256   5.041   5.105 -0.1290 -0.1487 -0.1397
 4674TIP3    H135513   1.243   5.009   5.194 -1.6304  1.6293  0.3103
 4674TIP3    H235514   1.168   5.055   5.071  0.4389 -0.4212 -1.7805
 4675TIP3   OH235515   2.942   6.619   3.061  0.6527  0.1048 -0.3482
 4675TIP3    H135516   2.891   6.647   3.136 -0.4566 -1.7951 -0.3551
 4675TIP3    H235517   3.007   6.688   3.048  0.1860  0.9457  1.6964
 4676TIP3   OH235518   4.761   2.388   0.552 -0.4214 -0.0438 -0.0797
 4676TIP3    H135519   4.762   2.463   0.612  0.2435  0.0340 -0.1838
 4676TIP3    H235520   4.842   2.396   0.503  0.0771 -1.3309  0.5256
 4677TIP3   OH235521   2.095   2.460  11.435 -0.6230  0.1223 -0.3018
 4677TIP3    H135522   2.037   2.402  11.485 -2.3608  1.2555 -0.9626
 4677TIP3    H235523   2.038   2.529  11.403  1.1042  1.2387 -1.0366
 4678TIP3   OH235524   5.561   5.347   1.812  1.0002 -0.4628  0.4274
 4678TIP3    H135525   5.562   5.322   1.720 -1.4050  0.6040  0.0802
 4678TIP3    H235526   5.608   5.431   1.814 -0.3791  0.3281 -0.0904
 4679TIP3   OH235527   6.167   5.685   2.419 -0.5031 -0.2072 -0.1763
 4679TIP3    H135528   6.148   5.743   2.493  1.1386 -1.8560  1.5988
 4679TIP3    H235529   6.082   5.659   2.386 -1.2616  0.6248  1.0818
 4680TIP3   OH235530   4.173   6.764   1.090 -0.2569 -0.3470  0.3438
 4680TIP3    H135531   4.105   6.827   1.068 -0.6710 -0.9011  0.0209
 4680TIP3    H235532   4.147   6.728   1.174  0.4787  0.5951  0.9894
 4681TIP3   OH235533   2.371   3.168  16.755 -0.5116  0.2094  0.9190
 4681TIP3    H135534   2.323   3.243  16.791  1.1353  1.7191  0.0338
 4681TIP3    H235535   2.342   3.162  16.664  0.0669  0.3304  0.7319
 4682TIP3   OH235536   0.225   4.997  17.067  0.3605  0.3046 -0.1930
 4682TIP3    H135537   0.284   5.049  17.011  1.7689 -0.6296  0.3990
 4682TIP3    H235538   0.175   5.063  17.115  1.2070  1.1397 -0.4198
 4683TIP3   OH235539   5.268   3.348   3.391 -0.1544 -0.4012 -0.4702
 4683TIP3    H135540   5.174   3.344   3.412 -0.3398  1.4495 -0.8414
 4683TIP3    H235541   5.298   3.257   3.397 -1.5932 -0.7958  1.3703
 4684TIP3   OH235542   2.543   3.592  16.230  0.2695 -0.2648 -0.3154
 4684TIP3    H135543   2.574   3.644  16.305 -0.3391 -0.7921  0.3045
 4684TIP3    H235544   2.451   3.573  16.250 -0.0468  0.0193 -1.4409
 4685TIP3   OH235545   0.379   6.063   0.637  0.5215  0.3341 -0.2981
 4685TIP3    H135546   0.411   5.983   0.596  1.6533  1.3376 -1.4092
 4685TIP3    H235547   0.289   6.043   0.662  0.9450 -1.4309 -0.1363
 4686TIP3   OH235548   1.114   3.342   6.215 -0.3538  0.0242  0.0887
 4686TIP3    H135549   1.042   3.327   6.153 -1.5432  2.5968  0.7942
 4686TIP3    H235550   1.181   3.387   6.163  0.4315 -1.6150 -0.3539
 4687TIP3   OH235551   0.157   0.435   3.194  0.1079  0.1767  0.1850
 4687TIP3    H135552   0.187   0.410   3.282 -0.1224 -1.2845 -0.1469
 4687TIP3    H235553   0.063   0.414   3.194  0.1177  0.1242 -0.4200
 4688TIP3   OH235554   5.362   5.381   0.098  0.0282 -0.4756  0.3386
 4688TIP3    H135555   5.340   5.474   0.094  2.2361  0.0017 -2.0081
 4688TIP3    H235556   5.406   5.370   0.183 -0.3718  0.5796  0.6831
 4689TIP3   OH235557   4.140   0.937   4.930 -0.8783 -0.3746  0.1655
 4689TIP3    H135558   4.080   0.909   4.861 -1.8435  0.0249  0.8237
 4689TIP3    H235559   4.225   0.900   4.905 -1.6685 -2.0840 -0.0946
 4690TIP3   OH235560   6.208   3.413   5.420 -0.5426  0.3501 -0.7781
 4690TIP3    H135561   6.115   3.427   5.402 -1.1647 -1.8228  0.6943
 4690TIP3    H235562   6.232   3.487   5.476 -1.3268  0.9751 -1.2409
 4691TIP3   OH235563   0.314   6.524  11.803 -0.1813 -0.0504 -0.4063
 4691TIP3    H135564   0.335   6.612  11.772  1.4524 -0.6697 -1.1351
 4691TIP3    H235565   0.364   6.466  11.745  0.7621 -1.3556  1.6459
 4692TIP3   OH235566   4.797   3.628   0.534 -0.1070 -0.0496 -0.1496
 4692TIP3    H135567   4.737   3.702   0.520  1.0645  0.8609 -0.4386
 4692TIP3    H235568   4.780   3.601   0.625  0.3482  1.3953  0.3784
 4693TIP3   OH235569   3.638   0.925  13.322  0.0872 -0.2909  0.5223
 4693TIP3    H135570   3.612   0.871  13.248 -1.1877  1.5224 -0.3977
 4693TIP3    H235571   3.733   0.933  13.315  0.2221 -1.9857  0.3947
 4694TIP3   OH235572   2.628   1.289   2.652 -0.8334  0.1030 -0.0180
 4694TIP3    H135573   2.723   1.287   2.636 -1.2127  1.0583 -2.7528
 4694TIP3    H235574   2.616   1.236   2.731  1.9591 -0.1587  0.3005
 4695TIP3   OH235575   5.350   4.129   3.643  0.2363  0.0423  0.2126
 4695TIP3    H135576   5.365   4.051   3.697  0.3749 -0.1592 -0.1179
 4695TIP3    H235577   5.437   4.152   3.610  0.2271  0.4628  0.4795
 4696TIP3   OH235578   2.108   0.962  13.396  0.7543  0.1920 -0.8732
 4696TIP3    H135579   2.049   0.959  13.321  0.4974 -0.4904 -0.6509
 4696TIP3    H235580   2.054   0.935  13.470  1.2131  0.0707 -0.5819
 4697TIP3   OH235581   3.905   1.964  15.810  0.4568  0.0888 -0.1644
 4697TIP3    H135582   3.828   2.020  15.816 -0.3286 -0.8399 -1.3273
 4697TIP3    H235583   3.909   1.919  15.894  0.2696  0.8378  0.2463
 4698TIP3   OH235584   3.606   2.266  11.674 -0.1999 -0.2081  0.9435
 4698TIP3    H135585   3.522   2.285  11.716  0.1932  1.0124  1.2062
 4698TIP3    H235586   3.627   2.346  11.626  0.2566 -0.9307 -0.0712
 4699TIP3   OH235587   1.401   5.670  14.428  0.0276  0.4109 -0.3443
 4699TIP3    H135588   1.392   5.688  14.521  0.4257  0.2566 -0.2776
 4699TIP3    H235589   1.458   5.594  14.423 -0.6179 -0.0508 -0.6858
 4700TIP3   OH235590   2.435   5.617   0.927  0.3306  0.1337 -0.0097
 4700TIP3    H135591   2.512   5.666   0.899  0.4515 -0.0787 -0.0457
 4700TIP3    H235592   2.365   5.649   0.870  1.0238 -1.8679 -2.0726
 4701TIP3   OH235593   3.441   1.824   1.870 -0.0163 -0.8263  0.0373
 4701TIP3    H135594   3.478   1.912   1.882 -3.3524  0.3968  1.8635
 4701TIP3    H235595   3.518   1.767   1.867  2.1996  2.0493 -0.5540
 4702TIP3   OH235596   0.456   5.422   6.598  0.1858  0.4888 -0.1433
 4702TIP3    H135597   0.372   5.432   6.555  0.4008  0.7631 -0.5035
 4702TIP3    H235598   0.501   5.506   6.583  1.4993 -0.5176 -2.0524
 4703TIP3   OH235599   5.485   4.949  15.210  0.3545 -0.2553  0.4403
 4703TIP3    H135600   5.573   4.946  15.248  0.0689 -0.8223  1.0695
 4703TIP3    H235601   5.498   4.984  15.122  1.0944  0.5735  0.8643
 4704TIP3   OH235602   0.238   1.613  13.411  0.5115 -0.0030 -0.3125
 4704TIP3    H135603   0.148   1.634  13.383  0.0673 -1.4004  0.0296
 4704TIP3    H235604   0.281   1.698  13.417 -0.7922  0.6908 -0.4892
 4705TIP3   OH235605   3.973   2.817  17.267 -0.1015 -0.1221 -0.5279
 4705TIP3    H135606   3.915   2.790  17.338 -1.1345 -1.8046 -1.9925
 4705TIP3    H235607   4.015   2.896  17.300 -2.7293  0.7636  0.8192
 4706TIP3   OH235608   1.854   3.337  12.291  0.1538 -0.6139  0.3425
 4706TIP3    H135609   1.931   3.299  12.333  0.4933  0.7776  1.0153
 4706TIP3    H235610   1.785   3.272  12.303  1.5841 -2.5759 -1.5990
 4707TIP3   OH235611   5.603   3.963   5.711 -0.1584 -0.0683 -0.4275
 4707TIP3    H135612   5.532   3.935   5.768  0.2635 -0.7690 -0.2331
 4707TIP3    H235613   5.584   4.055   5.691 -0.4347  0.1059  0.6412
 4708TIP3   OH235614   1.629   3.147  16.999 -0.4835  0.7006  1.0961
 4708TIP3    H135615   1.662   3.231  16.968 -0.6625  0.8322  1.2649
 4708TIP3    H235616   1.571   3.116  16.929  0.1622  0.3699  0.6987
 4709TIP3   OH235617   0.246   3.492   2.802  0.1919 -0.0983  0.3324
 4709TIP3    H135618   0.265   3.415   2.855  0.5528 -0.0592  0.2609
 4709TIP3    H235619   0.332   3.526   2.777  0.0405  0.6181  0.7710
 4710TIP3   OH235620   3.676   6.304  15.372  0.2138  0.6777 -0.0948
 4710TIP3    H135621   3.659   6.368  15.442  3.7234  1.9429 -0.3264
 4710TIP3    H235622   3.644   6.346  15.292 -1.2533  0.3830  0.3189
 4711TIP3   OH235623   5.305   2.555  11.904  0.6515  0.0619 -0.4106
 4711TIP3    H135624   5.358   2.611  11.960  0.0505 -0.7166  0.9520
 4711TIP3    H235625   5.215   2.587  11.917  0.4447 -0.4824 -0.5063
 4712TIP3   OH235626   4.536   2.969   4.947  0.2786  0.7050 -0.3673
 4712TIP3    H135627   4.466   2.924   4.995  0.1424  0.8928 -0.3908
 4712TIP3    H235628   4.576   2.901   4.893  0.2678  0.5470 -0.1748
 4713TIP3   OH235629   1.271   1.862  15.198 -0.2048  0.0019 -0.3911
 4713TIP3    H135630   1.339   1.893  15.257  1.8771 -0.7305 -2.3362
 4713TIP3    H235631   1.237   1.783  15.240 -0.2603  0.6874  0.8705
 4714TIP3   OH235632   5.778   2.120   2.074  0.3938 -0.7006  0.3541
 4714TIP3    H135633   5.710   2.154   2.131  0.5520 -0.8863  0.6561
 4714TIP3    H235634   5.731   2.085   1.999  0.2311  0.2085  0.0254
 4715TIP3   OH235635   4.160   3.441  15.257 -0.0104 -0.3308  0.8567
 4715TIP3    H135636   4.145   3.370  15.195 -1.1527 -0.2157  1.0020
 4715TIP3    H235637   4.254   3.436  15.277  0.4581 -0.0958 -1.2004
 4716TIP3   OH235638   3.659   5.094  12.457 -0.4824 -0.5418  0.3666
 4716TIP3    H135639   3.565   5.094  12.439 -0.7703  2.7388  1.5632
 4716TIP3    H235640   3.697   5.145  12.386  0.2874 -1.1035  0.3753
 4717TIP3   OH235641   3.981   2.104   0.716 -0.3210 -0.7373  0.4962
 4717TIP3    H135642   4.068   2.068   0.737 -0.3216 -0.9032  0.2270
 4717TIP3    H235643   4.000   2.178   0.659 -0.3851 -1.1724 -0.0960
 4718TIP3   OH235644   6.680   6.118  13.700 -0.5115  0.1511  0.1184
 4718TIP3    H135645   6.721   6.050  13.646 -2.3402  0.3460 -1.5782
 4718TIP3    H235646   6.670   6.077  13.786  4.1187  0.4627  0.9386
 4719TIP3   OH235647   2.661   2.512   6.388  0.1720  0.3042  0.6823
 4719TIP3    H135648   2.585   2.570   6.397  0.4325  0.7562  0.0238
 4719TIP3    H235649   2.663   2.462   6.470  0.1484  1.4682  1.4125
 4720TIP3   OH235650   5.820   2.500   4.035  0.2487  0.1835  0.1371
 4720TIP3    H135651   5.885   2.565   4.010 -1.1363  1.2285 -0.8466
 4720TIP3    H235652   5.742   2.551   4.055 -0.7449 -1.1367 -0.2661
 4721TIP3   OH235653   1.879   4.998   5.299  0.1834  0.0709  0.7716
 4721TIP3    H135654   1.963   4.997   5.344  0.9191 -1.0303 -0.6068
 4721TIP3    H235655   1.893   5.051   5.221 -0.6933  0.7625  1.0741
 4722TIP3   OH235656   6.820   2.624   1.427 -0.1280  0.0020  0.1670
 4722TIP3    H135657   6.768   2.703   1.415  0.9424  0.3232 -2.7521
 4722TIP3    H235658   6.771   2.573   1.492 -1.2613  2.6382  1.4597
 4723TIP3   OH235659   5.694   5.755   3.281 -0.2385  0.5751  0.1492
 4723TIP3    H135660   5.614   5.763   3.333 -0.6316 -0.5770 -0.2658
 4723TIP3    H235661   5.764   5.784   3.340 -0.7862  0.1129  1.0320
 4724TIP3   OH235662   2.721   0.983   5.841 -0.1892 -0.0899 -0.2748
 4724TIP3    H135663   2.704   1.025   5.925  2.2470  0.4723 -0.0253
 4724TIP3    H235664   2.736   0.891   5.862 -0.2486 -0.0717 -0.1593
 4725TIP3   OH235665   1.181   6.238  16.373 -0.3500 -0.1595  0.4210
 4725TIP3    H135666   1.194   6.143  16.377  0.6561 -0.1728 -2.0660
 4725TIP3    H235667   1.089   6.249  16.351 -0.7923 -0.5072  2.0528
 4726TIP3   OH235668   6.175   5.614   3.046  0.2560  0.1803 -0.5156
 4726TIP3    H135669   6.132   5.612   2.961 -0.4210 -1.4191 -0.1460
 4726TIP3    H235670   6.109   5.651   3.105  0.3179  0.1939 -0.4552
 4727TIP3   OH235671   1.647   1.842   6.361  0.2157  0.1850 -0.0624
 4727TIP3    H135672   1.674   1.762   6.315  0.3983  1.0355 -1.4522
 4727TIP3    H235673   1.729   1.891   6.373  0.1005  0.1918  0.7706
 4728TIP3   OH235674   1.021   6.402  12.148 -0.7505  0.1132  0.3377
 4728TIP3    H135675   0.982   6.388  12.062  0.9407 -0.3550 -0.3789
 4728TIP3    H235676   0.969   6.472  12.187 -2.0425 -0.2281 -0.7269
 4729TIP3   OH235677   6.529   0.894  11.515 -0.0769  0.0426  0.0597
 4729TIP3    H135678   6.509   0.968  11.458  1.5655 -0.0162 -0.6124
 4729TIP3    H235679   6.465   0.827  11.491 -2.4580  1.6723  1.5995
 4730TIP3   OH235680   1.039   4.948  14.482  0.9570  0.4499 -0.1529
 4730TIP3    H135681   1.126   4.909  14.485  1.0958  0.7445 -0.3237
 4730TIP3    H235682   1.033   4.998  14.564  0.4011 -0.7164  0.5405
 4731TIP3   OH235683   0.695   1.776  16.993 -0.1260  0.7265  0.3257
 4731TIP3    H135684   0.668   1.866  17.013 -1.4499 -0.0036  1.9216
 4731TIP3    H235685   0.710   1.737  17.079  3.1810  0.2231 -0.4439
 4732TIP3   OH235686   3.629   0.131  15.845  0.4353  0.0140  0.0561
 4732TIP3    H135687   3.568   0.106  15.776  0.9663 -1.3740  0.0692
 4732TIP3    H235688   3.585   0.108  15.926  0.3319  0.4626  0.1257
 4733TIP3   OH235689   1.135   1.644  13.172  0.0978  0.9820  0.0352
 4733TIP3    H135690   1.116   1.632  13.265  2.2112  3.2989  0.8012
 4733TIP3    H235691   1.054   1.679  13.135  0.0163  2.3715  1.4940
 4734TIP3   OH235692   5.545   0.747  13.342  0.2063 -0.2441 -0.3215
 4734TIP3    H135693   5.588   0.681  13.288  0.0455 -0.7437  0.1547
 4734TIP3    H235694   5.555   0.829  13.294  1.7569 -0.3473 -0.1761
 4735TIP3   OH235695   2.851   2.032  15.534 -0.1451 -0.2753 -0.1226
 4735TIP3    H135696   2.881   2.117  15.565  0.6980 -0.5785 -0.1029
 4735TIP3    H235697   2.819   2.049  15.445 -0.4939  0.1640  0.0855
 4736TIP3   OH235698   2.008   4.864  14.002  0.3661 -0.2943  0.5811
 4736TIP3    H135699   2.055   4.946  13.985  0.5173 -0.3955  0.5193
 4736TIP3    H235700   1.926   4.892  14.043  0.1040 -0.0667 -0.0965
 4737TIP3   OH235701   0.651   4.430   0.494  0.4626  0.2426 -0.0502
 4737TIP3    H135702   0.745   4.424   0.480  0.4164  1.1268 -0.8110
 4737TIP3    H235703   0.638   4.405   0.586  1.5001  0.7045  0.2215
 4738TIP3   OH235704   4.985   1.478   0.967 -0.2016  0.6343  0.0944
 4738TIP3    H135705   4.996   1.388   0.937 -1.9373  0.3314  0.3140
 4738TIP3    H235706   5.047   1.487   1.040  1.1694  0.1500 -1.0064
 4739TIP3   OH235707   6.244   3.579   6.184 -0.1829  0.1994  0.1073
 4739TIP3    H135708   6.293   3.638   6.242 -0.2227 -1.9365  2.4256
 4739TIP3    H235709   6.296   3.499   6.182 -2.1093 -1.1064  0.3221
 4740TIP3   OH235710   6.317   1.394   1.827 -0.4046 -0.0108  0.8665
 4740TIP3    H135711   6.361   1.459   1.883 -1.2021  0.9074  0.4208
 4740TIP3    H235712   6.274   1.336   1.889  0.0681  0.0448  1.2583
 4741TIP3   OH235713   6.780   0.439  11.554 -0.5348 -0.0423  0.4351
 4741TIP3    H135714   6.870   0.452  11.522  0.1050 -1.4986  1.6083
 4741TIP3    H235715   6.746   0.367  11.501 -0.9915  0.4518  0.0506
 4742TIP3   OH235716   3.904   3.536   5.339  0.3208  0.1225  0.4300
 4742TIP3    H135717   3.986   3.487   5.352  1.5237  2.2825  1.2626
 4742TIP3    H235718   3.906   3.603   5.407 -2.1691  0.2242  0.4474
 4743TIP3   OH235719   4.948   4.859  15.347 -0.2392 -0.1511  0.2075
 4743TIP3    H135720   4.924   4.894  15.261 -1.2747 -0.9728  0.1444
 4743TIP3    H235721   5.022   4.912  15.375  0.7863 -0.5606 -1.6455
 4744TIP3   OH235722   2.305   1.686   5.064 -0.5838  0.4281 -0.6517
 4744TIP3    H135723   2.306   1.591   5.073 -1.9070  0.4915  0.3293
 4744TIP3    H235724   2.383   1.706   5.012 -0.7434 -1.2471 -1.5609
 4745TIP3   OH235725   0.278   4.382   4.142  0.0593 -0.2532  0.2796
 4745TIP3    H135726   0.363   4.425   4.142 -1.0724  2.0785  0.0218
 4745TIP3    H235727   0.247   4.389   4.052 -1.1440  0.4422  0.7339
 4746TIP3   OH235728   3.847   0.891  14.351  0.3852 -0.0252  0.0631
 4746TIP3    H135729   3.777   0.873  14.289 -1.2155 -1.3933  2.1923
 4746TIP3    H235730   3.850   0.986  14.358 -1.1025  0.0506 -0.2270
 4747TIP3   OH235731   2.519   2.549   3.064 -0.2569 -0.1388  0.0517
 4747TIP3    H135732   2.466   2.470   3.075 -0.8689  0.3384  0.6109
 4747TIP3    H235733   2.601   2.529   3.110 -1.4183  0.4986  2.5100
 4748TIP3   OH235734   0.200   3.754   1.588 -0.2330  0.4691 -0.4689
 4748TIP3    H135735   0.183   3.766   1.681 -0.0047 -0.9181 -0.2374
 4748TIP3    H235736   0.260   3.679   1.584  0.8307  1.3595 -1.6469
 4749TIP3   OH235737   0.244   3.410  17.040  0.0877  0.3949  0.0420
 4749TIP3    H135738   0.198   3.468  17.101  0.1788 -1.7125  2.2221
 4749TIP3    H235739   0.176   3.375  16.983 -0.1023  1.8754 -0.6560
 4750TIP3   OH235740   4.863   0.473  17.206  0.8144 -0.1151 -0.3614
 4750TIP3    H135741   4.901   0.421  17.135 -1.4615 -0.5015 -1.3337
 4750TIP3    H235742   4.866   0.563  17.174  1.1302 -0.1102 -0.3234
 4751TIP3   OH235743   3.770   0.900   2.543  0.0708 -0.4724 -0.0894
 4751TIP3    H135744   3.724   0.866   2.619 -0.7390  0.3552 -0.1924
 4751TIP3    H235745   3.701   0.912   2.477  0.9057 -2.1807 -1.3284
 4752TIP3   OH235746   1.564   4.297   1.981 -0.0127  0.7949 -0.5533
 4752TIP3    H135747   1.583   4.391   1.978  1.3624  0.5228 -0.7894
 4752TIP3    H235748   1.644   4.256   1.948 -0.1807 -0.5063  0.6192
 4753TIP3   OH235749   4.900   5.609  13.952  0.1960 -0.3579 -0.2162
 4753TIP3    H135750   4.951   5.544  13.999  1.0821 -0.2376 -1.0142
 4753TIP3    H235751   4.916   5.691  13.999 -0.0905 -0.5058  0.1496
 4754TIP3   OH235752   3.349   5.923   0.540 -0.0500 -0.3009 -0.0945
 4754TIP3    H135753   3.313   5.929   0.628  0.7931 -2.0118  0.3754
 4754TIP3    H235754   3.351   5.829   0.521 -0.1163  0.0446 -1.8908
 4755TIP3   OH235755   3.347   3.988   1.786  0.4564  0.2430 -0.1206
 4755TIP3    H135756   3.366   4.068   1.737 -0.2671 -0.0991 -0.9695
 4755TIP3    H235757   3.270   4.010   1.838  0.2682  0.1094 -0.3404
 4756TIP3   OH235758   2.685   1.066  11.246  0.2394  0.6878 -0.3201
 4756TIP3    H135759   2.677   1.042  11.153 -1.0131 -0.6044  0.0860
 4756TIP3    H235760   2.596   1.088  11.272  0.4026  0.0527  0.8189
 4757TIP3   OH235761   5.659   4.251  15.667 -0.8352  0.2078  0.3579
 4757TIP3    H135762   5.632   4.232  15.757  1.2695  0.8892  1.1582
 4757TIP3    H235763   5.752   4.271  15.674 -0.8814  1.2797 -1.8405
 4758TIP3   OH235764   1.824   4.676   3.129  0.4297 -0.1825 -0.0634
 4758TIP3    H135765   1.874   4.734   3.071  0.0624 -0.9213 -1.1445
 4758TIP3    H235766   1.851   4.587   3.102 -2.3481 -0.6351 -1.4983
 4759TIP3   OH235767   3.516   0.964  17.167  0.6621 -0.6294 -0.4480
 4759TIP3    H135768   3.553   0.952  17.254  0.1690  0.2629 -0.1052
 4759TIP3    H235769   3.586   1.009  17.118 -0.0539  1.3936  0.3059
 4760TIP3   OH235770   6.524   4.056  12.434 -0.5346  0.3178  0.2170
 4760TIP3    H135771   6.580   4.133  12.446  0.5265  0.1425 -2.9516
 4760TIP3    H235772   6.436   4.087  12.455 -0.0260  2.2518 -0.3564
 4761TIP3   OH235773   4.680   4.114   0.822  0.3125 -0.6911 -0.0827
 4761TIP3    H135774   4.753   4.053   0.812  0.9028 -0.2390  1.3164
 4761TIP3    H235775   4.608   4.060   0.856  0.7058 -0.7161  0.7435
 4762TIP3   OH235776   6.567   1.744   6.037 -0.0064  0.5406 -0.2126
 4762TIP3    H135777   6.540   1.725   5.947 -1.1377  2.9702 -0.4117
 4762TIP3    H235778   6.487   1.769   6.082  0.6848  0.1726  1.2694
 4763TIP3   OH235779   0.548   1.276   4.744 -0.3447  0.2256 -0.9960
 4763TIP3    H135780   0.519   1.257   4.654 -1.4370  1.7809 -0.9849
 4763TIP3    H235781   0.528   1.196   4.793  0.4435 -0.7110 -2.1638
 4764TIP3   OH235782   3.709   3.436  13.580 -0.0201 -0.4884  0.2241
 4764TIP3    H135783   3.634   3.396  13.536 -0.4871  1.6151 -0.9852
 4764TIP3    H235784   3.724   3.518  13.533  2.0232 -0.0861  1.4781
 4765TIP3   OH235785   1.884   0.529  16.857 -0.3522  0.1036 -0.3234
 4765TIP3    H135786   1.862   0.520  16.949 -1.8015  0.6721 -0.5969
 4765TIP3    H235787   1.959   0.470  16.844  0.9803  1.3427  1.5854
 4766TIP3   OH235788   0.404   5.974   6.567 -1.4186  0.0674 -0.5185
 4766TIP3    H135789   0.370   6.002   6.482 -2.2126 -0.1436 -0.2807
 4766TIP3    H235790   0.364   5.888   6.581  0.5296 -0.9502 -0.9892
 4767TIP3   OH235791   4.651   0.056   2.261  0.6198  0.5291  0.1857
 4767TIP3    H135792   4.593  -0.008   2.301 -0.9867  1.5466 -0.4529
 4767TIP3    H235793   4.681   0.014   2.180  1.4551 -0.3384  0.9517
 4768TIP3   OH235794   0.694   1.462  13.229  0.1636  0.2916  0.3096
 4768TIP3    H135795   0.612   1.412  13.238  0.6881 -0.5793  0.3029
 4768TIP3    H235796   0.680   1.539  13.285 -1.6181  1.4235 -1.6290
 4769TIP3   OH235797   6.483   6.102   1.543  0.3608  0.2280  0.1500
 4769TIP3    H135798   6.523   6.147   1.617  2.1363 -0.1877 -0.5335
 4769TIP3    H235799   6.521   6.014   1.544 -0.5588 -0.1953 -0.5139
 4770TIP3   OH235800   1.461   3.399  14.764 -0.4289 -0.3463  0.4873
 4770TIP3    H135801   1.550   3.374  14.788 -0.5815 -1.1701  0.2158
 4770TIP3    H235802   1.472   3.454  14.686 -0.1522 -0.4174  0.4741
 4771TIP3   OH235803   0.694   4.067  13.150  0.2467  0.2891  0.2787
 4771TIP3    H135804   0.778   4.034  13.182  0.8308 -2.1277 -3.4791
 4771TIP3    H235805   0.630   4.002  13.177  0.5386 -1.0367 -2.0866
 4772TIP3   OH235806   6.066   1.257  10.899 -0.0232  0.3258 -0.5190
 4772TIP3    H135807   6.048   1.289  10.810  0.7922  0.2755 -0.7111
 4772TIP3    H235808   6.093   1.334  10.948 -0.8010  0.4088 -0.2258
 4773TIP3   OH235809   1.400   3.638  15.751 -0.3126 -0.6189  0.2186
 4773TIP3    H135810   1.496   3.634  15.749 -0.3365 -1.9575  1.0053
 4773TIP3    H235811   1.374   3.640  15.659  0.5417  2.5600 -0.0029
 4774TIP3   OH235812   0.511   5.973  10.936 -0.0719 -0.0773 -0.0532
 4774TIP3    H135813   0.478   6.044  10.880 -1.3565  0.6668  1.5978
 4774TIP3    H235814   0.557   6.018  11.007  1.1337 -0.9910 -0.2467
 4775TIP3   OH235815   3.544   4.848  13.456 -0.4909 -0.2259  0.1872
 4775TIP3    H135816   3.479   4.834  13.525 -2.0896  0.9080 -1.0126
 4775TIP3    H235817   3.504   4.810  13.378  1.1776 -1.2652 -0.1818
 4776TIP3   OH235818   4.332   3.498   2.521  0.3112  0.3873  0.2652
 4776TIP3    H135819   4.263   3.517   2.584 -0.0928  0.1057 -0.0869
 4776TIP3    H235820   4.340   3.578   2.469 -0.0045  0.2952  0.0717
 4777TIP3   OH235821   1.595   0.650  11.511 -0.0727  0.1449  0.1870
 4777TIP3    H135822   1.608   0.705  11.434  0.5272  0.3465  0.4257
 4777TIP3    H235823   1.513   0.680  11.550  1.7406  2.9425  2.0186
 4778TIP3   OH235824   6.476   6.009   3.062 -0.4243 -0.2412  0.0335
 4778TIP3    H135825   6.381   6.012   3.053 -0.3260  1.0004 -0.6303
 4778TIP3    H235826   6.508   6.002   2.973  0.1640  0.9770  0.1461
 4779TIP3   OH235827   2.012   6.762   1.478 -0.1700  0.2225  0.0937
 4779TIP3    H135828   1.935   6.755   1.421  0.7446 -1.6785 -0.9764
 4779TIP3    H235829   1.985   6.717   1.558 -0.1151 -0.6630 -0.3710
 4780TIP3   OH235830   1.800   0.096   2.308 -0.3284 -0.3049  0.3121
 4780TIP3    H135831   1.823   0.184   2.277 -2.2082 -0.2169 -0.8803
 4780TIP3    H235832   1.873   0.041   2.280  1.5675  1.0772  2.2934
 4781TIP3   OH235833   0.211   5.027   6.182 -0.2811  0.5339 -0.3927
 4781TIP3    H135834   0.291   4.980   6.204  0.2922  1.9215  0.5803
 4781TIP3    H235835   0.222   5.052   6.090  0.2147  0.3308 -0.3896
 4782TIP3   OH235836   2.554   1.425  14.784 -0.0624  0.4570  0.2418
 4782TIP3    H135837   2.489   1.459  14.846 -1.5144  0.4545 -1.2468
 4782TIP3    H235838   2.511   1.432  14.698  1.8536  0.3145 -0.7488
 4783TIP3   OH235839   0.914   0.900  16.773  0.3926  0.2368  0.2729
 4783TIP3    H135840   0.959   0.958  16.711 -1.7856  0.1566 -1.4441
 4783TIP3    H235841   0.953   0.922  16.858  3.8835 -0.0571 -1.1415
 4784TIP3   OH235842   4.756   1.491  14.490 -0.5894 -0.0736  0.1468
 4784TIP3    H135843   4.728   1.408  14.529 -0.1626 -0.4304 -0.2834
 4784TIP3    H235844   4.850   1.481  14.479 -0.6737  0.0743 -0.8098
 4785TIP3   OH235845   0.583   0.113  15.040  0.0852  0.0282  0.7245
 4785TIP3    H135846   0.653   0.164  15.082 -0.3865  1.0790  0.2471
 4785TIP3    H235847   0.508   0.173  15.037 -0.4995 -0.7230  0.2240
 4786TIP3   OH235848   4.874   5.616  16.443 -0.4842 -0.0608 -0.4624
 4786TIP3    H135849   4.779   5.602  16.452 -0.4403  0.9381  1.9931
 4786TIP3    H235850   4.881   5.694  16.387 -1.1397  0.4346  0.1297
 4787TIP3   OH235851   4.885   5.381   3.491  0.7761  0.0308 -0.4684
 4787TIP3    H135852   4.870   5.421   3.405 -0.1636  2.6890  0.8786
 4787TIP3    H235853   4.857   5.447   3.554  1.9778 -1.6422  1.9256
 4788TIP3   OH235854   5.328   2.066   0.659 -0.2552  0.1479  0.0254
 4788TIP3    H135855   5.243   2.111   0.657 -0.6550 -0.5184  1.5002
 4788TIP3    H235856   5.363   2.078   0.571 -1.4627  1.2365 -0.3254
 4789TIP3   OH235857   5.671   5.879  15.845  0.1250 -0.2398  0.2946
 4789TIP3    H135858   5.696   5.967  15.872  2.6410 -0.8235 -0.0482
 4789TIP3    H235859   5.610   5.892  15.772  1.6861  1.2058 -0.7845
 4790TIP3   OH235860   4.995   2.355   1.531 -0.0719 -0.4537  0.4063
 4790TIP3    H135861   4.947   2.319   1.605 -0.2248 -2.3641 -0.5964
 4790TIP3    H235862   4.964   2.306   1.455  1.1532  0.4488 -0.7137
 4791TIP3   OH235863   3.630   1.887   3.183  0.7246  0.9950  0.4288
 4791TIP3    H135864   3.673   1.824   3.125 -2.0281  0.4851 -1.1821
 4791TIP3    H235865   3.573   1.833   3.238 -1.1913  1.9655 -0.5452
 4792TIP3   OH235866   2.379   6.767   0.485  0.0904 -0.9548 -0.6783
 4792TIP3    H135867   2.425   6.823   0.548  0.5857 -0.8781 -1.1046
 4792TIP3    H235868   2.435   6.690   0.476  1.1020 -0.0229 -2.6318
 4793TIP3   OH235869   3.670   0.192  14.971 -0.3039  0.2651  0.4111
 4793TIP3    H135870   3.591   0.197  15.024 -0.2821  0.4192  0.4302
 4793TIP3    H235871   3.719   0.119  15.008  0.4659  1.3933  1.6514
 4794TIP3   OH235872   2.701   4.844  14.224 -0.9490 -0.2054  0.2472
 4794TIP3    H135873   2.692   4.784  14.298 -1.5651 -0.8078 -0.3196
 4794TIP3    H235874   2.613   4.879  14.210 -0.8959 -0.3315 -0.4050
 4795TIP3   OH235875   4.092   6.243  10.837  0.5951 -0.1219 -0.2888
 4795TIP3    H135876   4.064   6.209  10.752  1.0120  1.6256 -1.1546
 4795TIP3    H235877   4.187   6.228  10.838  0.4665 -0.9466  0.2613
 4796TIP3   OH235878   2.107   1.788  13.567 -0.6492 -0.1779  0.4525
 4796TIP3    H135879   2.109   1.717  13.631 -0.9710 -0.4836  0.1251
 4796TIP3    H235880   2.034   1.766  13.509  1.2504 -1.2748 -1.5848
 4797TIP3   OH235881   5.507   6.483  13.435 -0.1317  0.0745 -0.2753
 4797TIP3    H135882   5.419   6.519  13.450 -0.3011 -0.8942  1.1988
 4797TIP3    H235883   5.501   6.393  13.468  1.3645 -0.0444 -0.3195
 4798TIP3   OH235884   5.042   1.921  10.869 -0.0624 -0.7392 -0.0154
 4798TIP3    H135885   5.055   1.959  10.782  0.2484 -1.4960 -0.3093
 4798TIP3    H235886   4.986   1.845  10.853 -0.3329 -0.6461  0.5005
 4799TIP3   OH235887   4.174   4.732  14.212 -0.0820  0.8751 -0.7991
 4799TIP3    H135888   4.235   4.665  14.180 -0.4141  0.0549  0.2782
 4799TIP3    H235889   4.091   4.686  14.221 -0.2879  1.4162  0.0461
 4800TIP3   OH235890   4.202   5.363  10.729 -0.3029 -0.1975  0.4575
 4800TIP3    H135891   4.241   5.293  10.781  0.6335 -0.9698 -1.2072
 4800TIP3    H235892   4.276   5.400  10.681 -1.1814  0.2415 -0.5814
 4801TIP3   OH235893   6.035   1.435  11.246 -0.0630 -0.0496 -0.1317
 4801TIP3    H135894   5.989   1.369  11.194 -1.1689  0.4346  0.2171
 4801TIP3    H235895   6.042   1.395  11.333  0.3454 -0.2027 -0.2369
 4802TIP3   OH235896   4.033   4.905   1.278 -0.0957 -0.3055  0.1871
 4802TIP3    H135897   3.988   4.827   1.246 -1.2210  1.3706 -2.4916
 4802TIP3    H235898   4.067   4.947   1.199 -1.5941  3.1945  1.3189
 4803TIP3   OH235899   5.001   4.354   3.198  0.1965 -0.2293  0.4947
 4803TIP3    H135900   4.961   4.330   3.282  0.1464 -0.1856  0.4832
 4803TIP3    H235901   4.939   4.324   3.132 -1.1490  2.2675  0.5386
 4804TIP3   OH235902   3.562   0.491  16.550  0.2680  0.2245 -0.2673
 4804TIP3    H135903   3.489   0.429  16.559  0.2286  0.2320 -0.5583
 4804TIP3    H235904   3.640   0.439  16.572  0.0843  0.4489  0.9525
 4805TIP3   OH235905   3.875   3.908  15.421 -0.3811  0.2743 -0.1779
 4805TIP3    H135906   3.805   3.905  15.355  1.2295 -1.4252 -1.8328
 4805TIP3    H235907   3.948   3.860  15.382  0.6664 -0.6690  2.7901
 4806TIP3   OH235908   1.935   1.823   5.621 -0.5357  0.1406 -0.2320
 4806TIP3    H135909   1.948   1.775   5.703 -1.8976  0.0448 -0.0727
 4806TIP3    H235910   1.848   1.862   5.629 -0.2720  0.9580 -1.2176
 4807TIP3   OH235911   5.151   6.720  16.533  0.3338 -0.5939 -0.2177
 4807TIP3    H135912   5.118   6.659  16.466 -1.9135 -1.3893  1.5729
 4807TIP3    H235913   5.168   6.801  16.486  1.2966 -1.9241 -2.2441
 4808TIP3   OH235914   1.577   1.466   4.265  0.8186  0.1323 -0.4279
 4808TIP3    H135915   1.610   1.555   4.251 -0.5978  0.8220  0.4507
 4808TIP3    H235916   1.486   1.469   4.233  0.6770 -0.9171 -0.1406
 4809TIP3   OH235917   1.201   4.245   0.411  0.0340 -0.2246 -0.2918
 4809TIP3    H135918   1.169   4.177   0.352 -4.3318  1.6502 -0.2901
 4809TIP3    H235919   1.227   4.317   0.354  0.5838 -0.3106 -0.1474
 4810TIP3   OH235920   6.388   1.361   5.325  0.0034  0.3193 -0.3651
 4810TIP3    H135921   6.318   1.311   5.283  0.1311 -0.3989  0.2804
 4810TIP3    H235922   6.353   1.450   5.331 -1.7070 -0.4846  1.9088
 4811TIP3   OH235923   5.139   5.910  14.555  0.3361  0.6333 -0.0635
 4811TIP3    H135924   5.118   5.999  14.527 -2.5661  0.1377  0.2927
 4811TIP3    H235925   5.091   5.854  14.493  0.4705 -0.6176  0.9386
 4812TIP3   OH235926   4.914   0.441   4.087 -0.4488 -0.6858 -0.2448
 4812TIP3    H135927   4.886   0.365   4.140 -0.3021 -0.9719 -0.5773
 4812TIP3    H235928   4.974   0.489   4.144 -0.1280 -1.1078 -0.2295
 4813TIP3   OH235929   4.914   1.662   3.619  0.4585  0.0640  0.3157
 4813TIP3    H135930   4.995   1.619   3.645  0.7516  0.2323 -0.2950
 4813TIP3    H235931   4.882   1.704   3.698  2.2353  2.0384  0.0154
 4814TIP3   OH235932   6.652   0.162   4.238  0.0077 -0.0313  0.0300
 4814TIP3    H135933   6.586   0.183   4.172  0.4394 -0.7962 -0.6515
 4814TIP3    H235934   6.603   0.118   4.308 -0.2491 -0.3603 -0.3549
 4815TIP3   OH235935   3.988   5.609   3.888 -0.1700  0.5229 -0.0417
 4815TIP3    H135936   3.989   5.536   3.951 -0.6735  0.0289 -0.6038
 4815TIP3    H235937   4.071   5.655   3.903 -0.0252  0.0631  0.5803
 4816TIP3   OH235938   1.414   5.208  16.207  0.2082 -0.2747 -0.0344
 4816TIP3    H135939   1.462   5.137  16.249  1.7415  1.1243  0.6617
 4816TIP3    H235940   1.369   5.252  16.278 -0.1309 -0.0953 -0.3583
 4817TIP3   OH235941   5.873   3.997  13.195  0.0979  0.3067 -0.4819
 4817TIP3    H135942   5.915   4.074  13.233  0.2427 -0.2058  0.4204
 4817TIP3    H235943   5.932   3.968  13.126  0.5547  0.3971 -0.1274
 4818TIP3   OH235944   4.224   2.356   6.031  0.6930  0.4481  0.0419
 4818TIP3    H135945   4.160   2.302   6.076 -1.0483 -0.2159 -3.1145
 4818TIP3    H235946   4.281   2.388   6.101 -1.7023 -0.7558  2.6551
 4819TIP3   OH235947   4.170   3.308  14.206  0.1764  0.2917 -0.2353
 4819TIP3    H135948   4.253   3.283  14.248 -0.1226 -0.3409 -0.0126
 4819TIP3    H235949   4.118   3.345  14.277  0.4479  1.1464 -0.4749
 4820TIP3   OH235950   6.298   6.461   5.740  0.4193 -0.0976 -0.2495
 4820TIP3    H135951   6.206   6.442   5.719 -0.6538  3.4229  0.9173
 4820TIP3    H235952   6.318   6.405   5.815 -0.5498 -1.3693 -0.9222
 4821TIP3   OH235953   0.936   1.539   5.339 -0.4662  0.2121  0.3316
 4821TIP3    H135954   0.924   1.607   5.273  0.4710  0.2331  0.1825
 4821TIP3    H235955   1.021   1.557   5.378 -0.6323 -0.3117  0.9554
 4822TIP3   OH235956   6.771   1.721  10.984  0.1229  0.5943  0.1419
 4822TIP3    H135957   6.806   1.785  10.921 -0.1498  0.6131  0.0121
 4822TIP3    H235958   6.693   1.687  10.942  1.6278 -1.6949 -0.9126
 4823TIP3   OH235959   1.961   6.052  16.229  1.0375  0.0469  0.3805
 4823TIP3    H135960   2.003   5.984  16.175 -0.1459  0.2464 -0.8383
 4823TIP3    H235961   1.996   6.134  16.194 -0.2639  0.2078 -0.5779
 4824TIP3   OH235962   2.919   0.835  11.686 -0.3519  0.3374  0.3218
 4824TIP3    H135963   3.010   0.841  11.715 -0.4861 -0.8899  1.0406
 4824TIP3    H235964   2.912   0.898  11.615  0.5454  1.8640  1.5632
 4825TIP3   OH235965   3.260   3.055  12.321 -0.5715 -0.2019  0.0973
 4825TIP3    H135966   3.227   3.056  12.411  1.4036 -0.3488  0.8557
 4825TIP3    H235967   3.225   3.134  12.281 -3.0307 -1.0969  0.4009
 4826TIP3   OH235968   3.846   3.009   4.308 -0.6824 -0.6973 -0.0132
 4826TIP3    H135969   3.922   2.953   4.290  0.4640  0.3712  1.3787
 4826TIP3    H235970   3.820   2.985   4.398 -1.9510 -0.9924 -0.4490
 4827TIP3   OH235971   0.373   2.305  11.402 -0.2002  0.1346 -0.2999
 4827TIP3    H135972   0.292   2.254  11.409  0.2806 -0.7391 -0.9251
 4827TIP3    H235973   0.368   2.347  11.316  0.8750 -1.5028 -1.2108
 4828TIP3   OH235974   4.644   4.709   0.315 -0.0216 -0.1892  0.8208
 4828TIP3    H135975   4.724   4.657   0.317  0.6302  0.8137  1.2153
 4828TIP3    H235976   4.622   4.723   0.407  0.9810  1.9941  0.7572
 4829TIP3   OH235977   2.382   0.789  11.311 -0.7070 -0.1247  0.5632
 4829TIP3    H135978   2.295   0.826  11.320 -0.5671 -0.1217  2.0600
 4829TIP3    H235979   2.368   0.696  11.293 -1.0237  0.1567 -0.6852
 4830TIP3   OH235980   2.406   3.439  12.638 -0.7680 -0.1940 -0.0246
 4830TIP3    H135981   2.490   3.468  12.674 -0.0011 -0.7138 -1.3566
 4830TIP3    H235982   2.381   3.510  12.579 -1.4906  0.1567  0.6933
 4831TIP3   OH235983   0.795   4.535  14.937 -0.1925 -0.1163  0.1655
 4831TIP3    H135984   0.849   4.534  14.858 -0.0388  0.6729  0.2503
 4831TIP3    H235985   0.709   4.505  14.908  0.0255 -0.4184 -0.1748
 4832TIP3   OH235986   1.526   0.274  14.519  0.2391  0.0217 -0.1592
 4832TIP3    H135987   1.515   0.361  14.482  2.0342 -0.0070 -0.8310
 4832TIP3    H235988   1.443   0.256  14.564 -0.4932  1.6765 -0.8013
 4833TIP3   OH235989   6.802   4.766  11.708 -0.0993 -0.0230 -0.2942
 4833TIP3    H135990   6.754   4.685  11.722  0.9481 -0.6642 -0.3718
 4833TIP3    H235991   6.786   4.789  11.617 -0.5818 -0.0176 -0.2087
 4834TIP3   OH235992   6.128   2.025   4.005 -0.1904 -0.4607 -0.1551
 4834TIP3    H135993   6.214   1.983   4.010 -0.0963 -0.0345  2.3107
 4834TIP3    H235994   6.075   1.980   4.071 -1.5587  0.0205 -0.8974
 4835TIP3   OH235995   1.104   2.666  15.532  0.4151  0.0531 -0.0362
 4835TIP3    H135996   1.156   2.674  15.452 -0.1637 -1.5573 -0.5952
 4835TIP3    H235997   1.021   2.708  15.510  0.7758  0.8988  0.2061
 4836TIP3   OH235998   2.307   6.026   0.816  0.1113 -0.1293  0.3474
 4836TIP3    H135999   2.399   6.014   0.792  1.0655  2.8158  2.1943
 4836TIP3    H236000   2.264   6.051   0.735  0.8605 -1.7769 -0.5819
 4837TIP3   OH236001   1.082   1.279   4.981  0.1550 -0.0755  0.2039
 4837TIP3    H136002   0.996   1.312   4.953  0.1772 -0.4656 -0.3257
 4837TIP3    H236003   1.141   1.300   4.909  0.7472  1.2291  1.0644
 4838TIP3   OH236004   6.159   1.996   2.660  0.2447 -0.8218 -0.3573
 4838TIP3    H136005   6.207   1.978   2.741 -0.5565 -0.1512  0.2784
 4838TIP3    H236006   6.226   2.021   2.597  0.8617 -1.1997  0.1407
 4839TIP3   OH236007   4.784   2.525  14.257 -0.7339 -0.2053 -0.0153
 4839TIP3    H136008   4.878   2.546  14.260 -0.2675 -2.3356  2.0591
 4839TIP3    H236009   4.742   2.607  14.234  1.7006  0.6191 -1.8226
 4840TIP3   OH236010   6.362   4.057  13.106 -0.6993  0.1160 -0.2205
 4840TIP3    H136011   6.448   4.057  13.148  0.2738  1.3737 -2.1316
 4840TIP3    H236012   6.300   4.064  13.178  0.9144  2.2779  1.0277
 4841TIP3   OH236013   3.927   5.931  16.492 -0.1196  0.4842  0.0928
 4841TIP3    H136014   3.837   5.913  16.464  0.6916 -0.7007 -1.9050
 4841TIP3    H236015   3.976   5.852  16.468  1.1121  0.3623  2.8662
 4842TIP3   OH236016   2.565   0.275  14.780 -0.7455 -0.0707 -0.0353
 4842TIP3    H136017   2.595   0.226  14.703 -2.7582 -1.9552  0.3299
 4842TIP3    H236018   2.620   0.242  14.852 -0.5613 -0.1297 -0.2020
 4843TIP3   OH236019   2.322   4.356  10.860 -0.0513  0.3458  0.0733
 4843TIP3    H136020   2.324   4.451  10.862 -0.4198  0.4274 -2.1402
 4843TIP3    H236021   2.316   4.334  10.767 -0.4901 -1.8222  0.5829
 4844TIP3   OH236022   5.966   4.751   2.664 -0.9544  0.3888  0.4191
 4844TIP3    H136023   5.884   4.701   2.669 -1.0050  0.4457  0.1968
 4844TIP3    H236024   5.941   4.834   2.623 -0.3750 -0.5400 -1.9205
 4845TIP3   OH236025   0.600   4.988   3.193 -0.3016 -0.3910  0.2573
 4845TIP3    H136026   0.645   5.005   3.275 -0.0380 -0.3894  0.1135
 4845TIP3    H236027   0.568   4.899   3.201 -0.6250 -0.2512  0.5232
 4846TIP3   OH236028   5.119   0.895   4.139 -0.1250 -0.3953 -0.4209
 4846TIP3    H136029   5.173   0.929   4.209 -0.3206  0.8162 -0.8487
 4846TIP3    H236030   5.049   0.960   4.128 -0.3005 -0.7509 -1.4807
 4847TIP3   OH236031   5.252   6.497  15.777 -0.2099  0.2643 -0.1526
 4847TIP3    H136032   5.220   6.407  15.786 -0.3923  0.4216  0.7827
 4847TIP3    H236033   5.245   6.516  15.684  1.5645 -1.3489 -0.6421
 4848TIP3   OH236034   6.152   4.667   2.863  0.4443 -0.4254  0.1807
 4848TIP3    H136035   6.087   4.705   2.805 -0.7638  0.0247  1.7772
 4848TIP3    H236036   6.129   4.574   2.869  0.6576 -0.5020 -0.1530
 4849TIP3   OH236037   4.234   4.256   4.621 -0.5584  0.0307  0.5694
 4849TIP3    H136038   4.184   4.326   4.578 -0.2427 -0.0829  0.0255
 4849TIP3    H236039   4.199   4.175   4.584 -0.8835 -0.1070  1.1564
 4850TIP3   OH236040   1.357   4.635   4.574  0.7146 -0.3360  0.1295
 4850TIP3    H136041   1.431   4.585   4.609 -0.8300 -2.2862  0.7251
 4850TIP3    H236042   1.305   4.658   4.651  1.0565  1.6712 -0.2103
 4851TIP3   OH236043   4.332   0.316  15.849  0.1739  0.1950 -0.4842
 4851TIP3    H136044   4.239   0.337  15.855  0.6993  2.7640 -0.8469
 4851TIP3    H236045   4.371   0.393  15.808  2.3236 -1.2551 -1.2263
 4852TIP3   OH236046   6.808   5.178   0.331 -0.0120  0.2330 -0.1985
 4852TIP3    H136047   6.778   5.114   0.396  1.6382  1.6040  1.9799
 4852TIP3    H236048   6.739   5.245   0.330  0.6103  0.9142  1.2021
 4853TIP3   OH236049   3.707   6.735   0.969 -0.4059 -0.1397  0.4434
 4853TIP3    H136050   3.633   6.747   1.028 -0.1911 -1.2205  0.9551
 4853TIP3    H236051   3.726   6.641   0.974  0.0434 -0.1261 -0.8318
 4854TIP3   OH236052   1.297   2.204  11.831 -0.3934  0.4326  0.6266
 4854TIP3    H136053   1.317   2.204  11.737 -1.5725  0.0700  0.3688
 4854TIP3    H236054   1.202   2.193  11.836 -0.1397 -1.4762  1.8861
 4855TIP3   OH236055   6.007   1.520  14.750 -0.4025  0.0926 -0.0725
 4855TIP3    H136056   5.961   1.454  14.698 -0.8374  0.5987 -0.3387
 4855TIP3    H236057   5.950   1.597  14.747 -0.7565 -0.0787  1.7019
 4856TIP3   OH236058   0.090   1.364   3.128 -0.5299 -0.7551  0.3135
 4856TIP3    H136059   0.032   1.326   3.194 -0.8187 -0.0303  0.4781
 4856TIP3    H236060   0.033   1.414   3.071 -0.0316  0.2858  0.7088
 4857TIP3   OH236061   1.143   0.967  15.432  0.2721 -0.1773  0.2111
 4857TIP3    H136062   1.168   1.014  15.511  0.3430  1.1119 -0.5674
 4857TIP3    H236063   1.197   0.888  15.434  0.5760  0.0410  1.2297
 4858TIP3   OH236064   1.257   0.022  14.106 -0.0844  0.0577 -0.0981
 4858TIP3    H136065   1.341   0.015  14.062 -0.7286 -1.0933 -1.1773
 4858TIP3    H236066   1.224   0.109  14.081  1.1883  0.9255  1.1218
 4859TIP3   OH236067   0.838   3.518  13.173 -0.2007 -0.0847 -0.4522
 4859TIP3    H136068   0.750   3.506  13.137  0.1922  0.4912 -1.6333
 4859TIP3    H236069   0.871   3.429  13.184 -2.1128 -0.4604  3.0763
 4860TIP3   OH236070   5.060   2.059  12.304  0.2520 -0.1392  0.2047
 4860TIP3    H136071   5.135   2.043  12.360  0.0773  0.8295  0.7381
 4860TIP3    H236072   5.003   1.983  12.317 -0.3826  0.6463  2.3586
 4861TIP3   OH236073   6.437   2.816   0.065 -0.0784  0.2726 -0.4544
 4861TIP3    H136074   6.364   2.765   0.031 -1.2000  1.7708 -0.3528
 4861TIP3    H236075   6.508   2.802   0.002 -0.2285 -1.7441 -0.1829
 4862TIP3   OH236076   6.170   4.402  12.843  0.0286  0.3956  0.0072
 4862TIP3    H136077   6.113   4.441  12.776  0.0377 -0.0796 -0.2773
 4862TIP3    H236078   6.173   4.309  12.821 -0.0095  0.2308  0.7021
 4863TIP3   OH236079   3.574   5.458   5.870 -0.4283  0.0351 -0.4401
 4863TIP3    H136080   3.618   5.539   5.898  0.2231 -0.8066  1.0165
 4863TIP3    H236081   3.624   5.429   5.793  0.2230  0.2462 -0.0963
 4864TIP3   OH236082   3.371   3.187   5.466 -0.0129  0.0130 -0.3404
 4864TIP3    H136083   3.364   3.172   5.560  1.1891 -0.5945 -0.3356
 4864TIP3    H236084   3.412   3.107   5.433 -2.3336 -0.6674 -1.6708
 4865TIP3   OH236085   5.305   6.551   1.238 -0.0372 -0.2490 -0.0995
 4865TIP3    H136086   5.348   6.602   1.307  2.0006 -0.6068 -1.0753
 4865TIP3    H236087   5.364   6.558   1.163 -0.5298 -2.6828 -0.7458
 4866TIP3   OH236088   3.095   4.100   2.812  0.1188  0.2379 -0.3240
 4866TIP3    H136089   3.156   4.051   2.757 -0.8930 -0.7002 -0.6320
 4866TIP3    H236090   3.058   4.034   2.871  0.0835  0.9676  0.4738
 4867TIP3   OH236091   0.688   6.295   1.306 -0.0906 -0.4674 -0.2493
 4867TIP3    H136092   0.768   6.330   1.265  0.6209 -0.0077  1.4924
 4867TIP3    H236093   0.624   6.367   1.299  0.6324  0.3446  1.1580
 4868TIP3   OH236094   1.251   3.967  14.178  0.1296  0.6611  0.5491
 4868TIP3    H136095   1.222   3.886  14.220 -1.6168  2.3809  2.7755
 4868TIP3    H236096   1.210   3.965  14.092  0.6567 -1.1219  0.3100
 4869TIP3   OH236097   3.466   6.565   3.947  0.0728  0.1461  0.5296
 4869TIP3    H136098   3.504   6.478   3.956  2.1653  1.0487  0.7525
 4869TIP3    H236099   3.432   6.568   3.858 -0.3000 -1.0042  0.6276
 4870TIP3   OH236100   3.976   1.978  12.862 -0.1133  0.1600  0.2651
 4870TIP3    H136101   3.986   1.981  12.767 -0.1132 -0.6170  0.2373
 4870TIP3    H236102   4.023   2.056  12.894  2.1906 -1.0072 -0.1888
 4871TIP3   OH236103   6.219   1.066   0.543 -0.1614  0.0209 -0.1385
 4871TIP3    H136104   6.143   1.034   0.591  1.2078 -2.8698  0.2551
 4871TIP3    H236105   6.193   1.065   0.451 -0.3349 -1.8189 -0.0858
 4872TIP3   OH236106   4.714   3.564  16.474  0.0384 -0.4872 -0.6947
 4872TIP3    H136107   4.673   3.614  16.404  0.3668 -0.5932 -0.9577
 4872TIP3    H236108   4.755   3.630  16.530  0.7800 -0.4891 -1.2357
 4873TIP3   OH236109   1.786   0.633   4.663 -0.1213  0.0801  0.4460
 4873TIP3    H136110   1.817   0.651   4.751 -2.5069 -0.2571  1.3691
 4873TIP3    H236111   1.704   0.585   4.675 -0.5199  0.1045 -1.9403
 4874TIP3   OH236112   3.279   1.920  14.650  0.0420 -0.4582 -0.2275
 4874TIP3    H136113   3.351   1.896  14.708  0.2361 -0.4565 -0.4700
 4874TIP3    H236114   3.246   2.003  14.686  0.8264  0.0723 -0.7331
 4875TIP3   OH236115   4.448   1.982  16.455 -0.8480  0.2134  0.1606
 4875TIP3    H136116   4.407   2.066  16.475  1.2194  1.2542  0.1202
 4875TIP3    H236117   4.445   1.977  16.359 -0.8592  0.2886  0.1563
 4876TIP3   OH236118   3.018   6.219  15.095 -0.1271  0.2899 -0.0943
 4876TIP3    H136119   3.021   6.139  15.042  0.4244 -0.3569  0.9044
 4876TIP3    H236120   3.087   6.274  15.059 -0.3704  0.2436 -0.6461
 4877TIP3   OH236121   2.095   3.054  15.002 -0.0261  0.1238 -0.0247
 4877TIP3    H136122   2.164   3.014  14.948  0.7797  1.5733 -0.0935
 4877TIP3    H236123   2.141   3.088  15.078 -1.1701 -1.9646  1.6678
 4878TIP3   OH236124   1.373   5.655   5.521  0.1593  0.3831 -0.9690
 4878TIP3    H136125   1.282   5.663   5.491 -0.1379  0.8593  0.0491
 4878TIP3    H236126   1.409   5.743   5.510 -0.2679  0.8337  1.0793
 4879TIP3   OH236127   4.205   4.622  15.014  0.1336  0.3935  0.1585
 4879TIP3    H136128   4.176   4.555  14.953  0.8314 -0.3021  0.5824
 4879TIP3    H236129   4.284   4.659  14.974  1.3785 -1.0013  1.2650
 4880TIP3   OH236130   4.839   6.522   0.439 -0.7415 -0.6493 -0.6851
 4880TIP3    H136131   4.818   6.586   0.507 -0.6400 -0.0075 -1.2414
 4880TIP3    H236132   4.801   6.559   0.359 -0.7448 -1.3249 -0.9998
 4881TIP3   OH236133   4.656   0.905  12.020 -0.1259  0.1453  0.4955
 4881TIP3    H136134   4.651   0.817  12.057  0.9802 -0.1945 -0.1336
 4881TIP3    H236135   4.729   0.947  12.066  0.2302  0.2570 -0.1506
 4882TIP3   OH236136   4.640   2.687  10.550  0.2307  0.1067 -0.2917
 4882TIP3    H136137   4.726   2.651  10.527 -0.0191 -1.0756  0.5602
 4882TIP3    H236138   4.578   2.636  10.498 -0.0674 -0.1914  0.3488
 4883TIP3   OH236139   0.185   4.688   5.869  0.1326  0.4719  0.1717
 4883TIP3    H136140   0.194   4.760   5.807  0.4898  0.5569  0.3216
 4883TIP3    H236141   0.136   4.725   5.942  0.7645  0.7069  0.4789
 4884TIP3   OH236142   6.323   3.339  10.344  0.8137 -0.8750 -0.3604
 4884TIP3    H136143   6.288   3.285  10.415 -0.7463 -0.3680 -0.7051
 4884TIP3    H236144   6.261   3.412  10.338  1.3380 -0.5381 -1.7459
 4885TIP3   OH236145   0.255   0.486  16.883 -0.3505  0.1860 -0.3055
 4885TIP3    H136146   0.190   0.443  16.939 -0.1308 -0.8126 -0.7917
 4885TIP3    H236147   0.294   0.553  16.939 -0.3999 -0.5439  0.6322
 4886TIP3   OH236148   0.224   0.424  13.895  0.0173 -0.0572  0.1478
 4886TIP3    H136149   0.224   0.488  13.966  0.6853 -1.6965  1.6719
 4886TIP3    H236150   0.132   0.417  13.869 -0.1081  1.2236  0.2213
 4887TIP3   OH236151   2.930   3.235  12.972 -0.2360  0.1270 -0.1257
 4887TIP3    H136152   2.925   3.145  13.006 -1.0274 -0.8003 -2.6298
 4887TIP3    H236153   3.024   3.252  12.963 -0.0468 -0.0258  1.3679
 4888TIP3   OH236154   5.352   4.307   0.352  0.1696 -0.1127  0.0786
 4888TIP3    H136155   5.370   4.364   0.277  2.0144 -0.4965  0.2092
 4888TIP3    H236156   5.424   4.322   0.412 -1.6953  0.7636  2.1705
 4889TIP3   OH236157   6.709   3.663  12.880 -0.0823 -0.4170 -0.0383
 4889TIP3    H136158   6.650   3.703  12.944 -0.3783 -0.6775 -0.1477
 4889TIP3    H236159   6.786   3.638  12.930 -0.1310 -0.2226  0.1358
 4890TIP3   OH236160   3.166   6.043  15.346  0.2151  0.2234  0.1510
 4890TIP3    H136161   3.075   6.068  15.328  1.1430  2.6817 -1.3199
 4890TIP3    H236162   3.175   6.054  15.441 -1.1328 -0.5130  0.3847
 4891TIP3   OH236163   4.107   3.832   1.463 -0.1497 -0.0876  0.1053
 4891TIP3    H136164   4.137   3.810   1.551 -1.5725 -1.6695  0.2189
 4891TIP3    H236165   4.182   3.876   1.423 -0.1551  2.5455  2.7788
 4892TIP3   OH236166   0.244   5.427   3.163  0.4292  0.6134  0.9711
 4892TIP3    H136167   0.192   5.389   3.093  1.0124 -1.0923  1.4342
 4892TIP3    H236168   0.275   5.511   3.127  1.9639 -0.8990 -1.4004
 4893TIP3   OH236169   4.133   2.894   3.349  0.4870  0.2148 -0.1411
 4893TIP3    H136170   4.071   2.912   3.279  0.6362  0.0769 -0.3105
 4893TIP3    H236171   4.160   2.980   3.381  0.3122  0.2752 -0.1583
 4894TIP3   OH236172   3.385   6.616  13.743 -0.3697  0.3688  0.4147
 4894TIP3    H136173   3.441   6.570  13.806  0.5830  1.5955  0.4880
 4894TIP3    H236174   3.440   6.687  13.710 -0.7402 -0.4319 -2.0433
 4895TIP3   OH236175   0.636   2.460  13.283 -0.9266  0.4830  0.2902
 4895TIP3    H136176   0.617   2.551  13.257 -1.0687  0.0115 -1.2887
 4895TIP3    H236177   0.721   2.465  13.327 -1.0461  1.4075  0.4303
 4896TIP3   OH236178   3.736   4.852   0.799  0.0852 -0.6152  0.0580
 4896TIP3    H136179   3.822   4.824   0.768 -0.2819  0.5180 -2.0521
 4896TIP3    H236180   3.696   4.897   0.725 -1.7897  0.0954  1.4332
 4897TIP3   OH236181   4.119   6.262   0.833 -0.2442  0.3711 -0.0710
 4897TIP3    H136182   4.034   6.219   0.839 -0.7838  1.3340 -0.6153
 4897TIP3    H236183   4.137   6.291   0.923 -1.6187  2.2353 -0.3571
 4898TIP3   OH236184   4.362   6.368  13.653  0.3263 -0.0195  0.1292
 4898TIP3    H136185   4.333   6.359  13.562 -2.2061 -1.2653  1.0087
 4898TIP3    H236186   4.409   6.286  13.670  1.3576  0.4891 -0.2379
 4899TIP3   OH236187   4.115   2.627  12.806  0.0826  0.3932  0.3138
 4899TIP3    H136188   4.175   2.587  12.744 -0.2970 -1.4862  1.1059
 4899TIP3    H236189   4.059   2.684  12.754 -0.2066 -1.1287 -1.0711
 4900TIP3   OH236190   6.475   4.689  11.389 -0.2149 -0.1749  0.0222
 4900TIP3    H136191   6.423   4.628  11.338  1.2924  0.1570 -1.9791
 4900TIP3    H236192   6.527   4.737  11.324  0.2539  1.6964  1.7044
 4901TIP3   OH236193   4.855   2.831   2.988 -0.0170 -0.0485  0.1832
 4901TIP3    H136194   4.844   2.856   2.896 -0.3426  0.1317  0.2704
 4901TIP3    H236195   4.780   2.774   3.006  0.5329 -0.8122  0.0828
 4902TIP3   OH236196   4.962   5.885  14.044  0.4445 -0.2549  0.0125
 4902TIP3    H136197   5.018   5.914  13.973 -1.6089  2.5832 -0.5271
 4902TIP3    H236198   4.963   5.957  14.107 -3.1806  0.3256 -0.4270
 4903TIP3   OH236199   5.566   5.232   5.854 -0.3035  0.0043  1.0072
 4903TIP3    H136200   5.623   5.266   5.923  0.3226  0.4323  0.2937
 4903TIP3    H236201   5.508   5.170   5.898 -0.7095  1.1632  2.1236
 4904TIP3   OH236202   5.226   2.299  16.983 -0.5848 -0.2119  0.1166
 4904TIP3    H136203   5.186   2.318  16.898 -0.1494  1.0136  0.1765
 4904TIP3    H236204   5.153   2.301  17.045 -0.7385 -0.0166 -0.0682
 4905TIP3   OH236205   3.866   6.323   1.940 -0.3367 -0.3777  0.1339
 4905TIP3    H136206   3.914   6.240   1.939  0.3455  0.0027  1.2492
 4905TIP3    H236207   3.804   6.313   2.012 -0.5077 -0.0552  0.0287
 4906TIP3   OH236208   6.035   2.388  14.551  0.1795 -0.4114 -0.0383
 4906TIP3    H136209   6.010   2.316  14.494 -1.8131  0.4220 -0.2260
 4906TIP3    H236210   6.043   2.464  14.493  2.3675 -0.4719  0.1450
 4907TIP3   OH236211   6.052   0.900  11.855 -0.9669 -0.0590 -0.3664
 4907TIP3    H136212   6.138   0.909  11.814 -0.5302 -0.8600  0.3626
 4907TIP3    H236213   6.068   0.916  11.948 -1.4583 -0.9507 -0.1189
 4908TIP3   OH236214   4.865   5.014   1.028 -0.2430 -0.3496  0.9197
 4908TIP3    H136215   4.791   5.071   1.048  0.0937 -0.0195  1.2251
 4908TIP3    H236216   4.940   5.073   1.020  0.1839 -0.7882  1.6267
 4909TIP3   OH236217   2.665   6.445  13.751  0.2017  0.2628  0.2761
 4909TIP3    H136218   2.603   6.421  13.820 -1.1813 -0.4322 -1.1831
 4909TIP3    H236219   2.748   6.458  13.798 -1.0448  1.3679  2.2794
 4910TIP3   OH236220   4.198   0.106   5.743  0.1039 -0.0272  0.1945
 4910TIP3    H136221   4.195   0.181   5.802 -1.9083 -1.0854  1.4794
 4910TIP3    H236222   4.268   0.051   5.778  0.2063  0.2665  0.4532
 4911TIP3   OH236223   5.050   2.244  13.895 -0.2803  0.2094 -0.3505
 4911TIP3    H136224   5.045   2.251  13.990  0.8611 -0.0789 -0.2715
 4911TIP3    H236225   5.008   2.160  13.874 -0.0266  0.0128 -0.0610
 4912TIP3   OH236226   2.748   2.247  17.131 -0.3132 -0.2354  0.3784
 4912TIP3    H136227   2.747   2.306  17.206 -0.2966  0.8250 -0.4392
 4912TIP3    H236228   2.819   2.186  17.149  0.4691  0.7537  0.6592
 4913TIP3   OH236229   1.416   0.805   1.270  0.4075 -0.7173 -0.1659
 4913TIP3    H136230   1.451   0.860   1.340  0.1702 -0.3361 -0.3401
 4913TIP3    H236231   1.429   0.715   1.300  2.7592 -0.6385 -0.8003
 4914TIP3   OH236232   5.773   3.973  15.590 -0.1741  0.5774  0.8610
 4914TIP3    H136233   5.843   3.993  15.527 -0.4277 -0.4367  0.2541
 4914TIP3    H236234   5.694   4.010  15.549 -0.3787 -0.2899  0.4725
 4915TIP3   OH236235   0.820   3.228   1.253 -0.1832 -0.3342 -0.0530
 4915TIP3    H136236   0.855   3.139   1.261  0.6741  0.0907  1.0840
 4915TIP3    H236237   0.751   3.234   1.319  0.2827  0.0891  0.3982
 4916TIP3   OH236238   3.961   2.273  16.073  0.0644  0.1442  0.1415
 4916TIP3    H136239   3.909   2.341  16.115 -0.5607 -1.6074  2.3166
 4916TIP3    H236240   4.052   2.295  16.094 -0.1660  0.0215  1.2889
 4917TIP3   OH236241   2.964   0.123   3.056  0.2677 -0.1733 -0.8748
 4917TIP3    H136242   3.027   0.185   3.020 -1.0094  2.7265  1.6521
 4917TIP3    H236243   2.890   0.125   2.995  0.2649  0.7496 -0.8384
 4918TIP3   OH236244   4.454   6.596  14.237 -0.1176 -0.4080  0.4882
 4918TIP3    H136245   4.428   6.634  14.320 -0.1807  0.3299  0.1278
 4918TIP3    H236246   4.379   6.542  14.210 -0.9629  1.0458 -0.1369
 4919TIP3   OH236247   1.525   6.431  15.300  0.1479 -0.1353  0.0983
 4919TIP3    H136248   1.543   6.389  15.216 -0.1899  1.1257 -0.6297
 4919TIP3    H236249   1.609   6.471  15.324  0.1192 -0.0907  0.1246
 4920TIP3   OH236250   0.340   3.579   0.710 -0.3444 -0.2773  0.4958
 4920TIP3    H136251   0.355   3.590   0.616  1.3161  0.2560  0.7969
 4920TIP3    H236252   0.271   3.643   0.731  0.7981  1.1476  0.0175
 4921TIP3   OH236253   0.679   1.549  14.469  0.0509 -0.2155  0.2825
 4921TIP3    H136254   0.772   1.533  14.456 -0.1122 -0.1630 -1.0283
 4921TIP3    H236255   0.667   1.641  14.448 -0.6187 -0.6889 -1.4588
 4922TIP3   OH236256   0.246   0.856  11.400 -0.1294 -0.3165 -0.3164
 4922TIP3    H136257   0.319   0.863  11.339 -1.6075  0.2564 -2.0701
 4922TIP3    H236258   0.270   0.785  11.459  1.3848 -0.7885 -1.4884
 4923TIP3   OH236259   4.781   6.572   1.783 -0.3904 -0.1652 -0.0248
 4923TIP3    H136260   4.787   6.483   1.820 -0.9865 -0.2048 -0.0305
 4923TIP3    H236261   4.873   6.598   1.772 -0.1948 -0.2671  1.2276
 4924TIP3   OH236262   6.605   4.505   5.247 -0.2840 -0.1420  0.4442
 4924TIP3    H136263   6.595   4.600   5.258 -0.2955 -0.0598 -0.2934
 4924TIP3    H236264   6.669   4.496   5.176 -0.7685 -0.6892  0.0784
 4925TIP3   OH236265   6.707   3.202   3.625 -0.7114  0.2249 -0.4381
 4925TIP3    H136266   6.643   3.251   3.574 -2.3299 -0.2018  1.1506
 4925TIP3    H236267   6.752   3.267   3.678 -1.2899  0.2730 -0.0049
 4926TIP3   OH236268   3.404   2.623  13.853 -0.2711  0.5405  0.0342
 4926TIP3    H136269   3.482   2.594  13.898 -1.2129 -2.1031  0.0127
 4926TIP3    H236270   3.432   2.701  13.805  2.7630 -1.2387 -1.2254
 4927TIP3   OH236271   4.313   6.145  15.142 -0.4633  0.0521  0.2269
 4927TIP3    H136272   4.248   6.215  15.134 -0.2795  0.3611  1.3514
 4927TIP3    H236273   4.397   6.189  15.131 -0.3776 -0.1051  0.2471
 4928TIP3   OH236274   6.332   1.728  16.563  0.4612  0.5418 -0.6602
 4928TIP3    H136275   6.423   1.733  16.592  1.0189 -0.2311 -2.2237
 4928TIP3    H236276   6.336   1.739  16.468 -1.1018  0.6947 -0.7262
 4929TIP3   OH236277   4.311   0.186   2.015 -0.1912  0.2058 -0.1231
 4929TIP3    H136278   4.398   0.151   1.995 -0.7739  0.1360 -2.6234
 4929TIP3    H236279   4.314   0.277   1.989 -1.1717 -0.0503 -1.1939
 4930TIP3   OH236280   5.442   0.462  13.844  0.1228 -0.3762 -0.3707
 4930TIP3    H136281   5.530   0.440  13.813  1.1896  3.4560 -0.3020
 4930TIP3    H236282   5.389   0.463  13.765  1.0018  1.0661 -0.9632
 4931TIP3   OH236283   1.124   2.261  11.031 -0.6250  1.1221 -0.1719
 4931TIP3    H136284   1.163   2.273  10.944  0.2562 -0.4364 -0.0005
 4931TIP3    H236285   1.037   2.301  11.023 -0.6500  0.7845 -1.8366
 4932TIP3   OH236286   6.435   5.259  11.575  0.3743 -0.2449  0.1453
 4932TIP3    H136287   6.416   5.206  11.652  0.6394 -0.2925  0.1801
 4932TIP3    H236288   6.463   5.196  11.509 -0.3397 -0.2574 -0.1531
 4933TIP3   OH236289   3.806   1.236  16.491  0.2850 -0.0857 -0.0960
 4933TIP3    H136290   3.730   1.197  16.448  0.0244  0.2283  0.0685
 4933TIP3    H236291   3.831   1.173  16.559 -0.2683  0.1275  0.3143
 4934TIP3   OH236292   2.360   1.598  11.959  0.5770  0.3697 -0.0281
 4934TIP3    H136293   2.405   1.616  12.042  1.6081  1.0248 -0.7148
 4934TIP3    H236294   2.282   1.653  11.961 -0.5333 -1.1872  1.4254
 4935TIP3   OH236295   1.517   0.453  12.690  0.3583 -0.0757  0.3730
 4935TIP3    H136296   1.423   0.437  12.694  0.4636 -0.7453  0.2433
 4935TIP3    H236297   1.529   0.539  12.730 -0.4178  0.4843 -0.5944
 4936TIP3   OH236298   3.799   2.472  13.135 -0.1706  0.3262 -0.3835
 4936TIP3    H136299   3.858   2.544  13.156  0.1120  0.0064 -0.0785
 4936TIP3    H236300   3.725   2.482  13.195  0.2166 -0.0666  0.1650
 4937TIP3   OH236301   2.363   5.827  11.923 -0.1001  0.3518 -0.2831
 4937TIP3    H136302   2.293   5.864  11.868  0.1031  1.9038  0.4679
 4937TIP3    H236303   2.410   5.904  11.956  2.5692 -0.6740 -1.5205
 4938TIP3   OH236304   1.857   2.724   5.379 -0.4805  0.2130  0.2334
 4938TIP3    H136305   1.951   2.711   5.366 -0.8276 -1.6913 -0.5716
 4938TIP3    H236306   1.837   2.806   5.335  0.6506  0.1933 -0.3287
 4939TIP3   OH236307   0.317   1.490   6.220 -0.0222 -0.3653 -0.2613
 4939TIP3    H136308   0.288   1.399   6.222 -1.6959  0.1505  0.4089
 4939TIP3    H236309   0.355   1.505   6.307 -1.4195  0.0598  0.3043
 4940TIP3   OH236310   1.739   5.293  12.088 -0.2335 -0.0541  0.4145
 4940TIP3    H136311   1.740   5.354  12.162  1.3961  0.1565  0.2474
 4940TIP3    H236312   1.768   5.346  12.014  0.1647 -0.7829  0.0484
 4941TIP3   OH236313   1.441   2.630   2.230  0.1350  0.1648  0.1960
 4941TIP3    H136314   1.472   2.603   2.144  0.3085  2.2558 -0.4153
 4941TIP3    H236315   1.514   2.610   2.289  0.5877  0.1101 -0.3745
 4942TIP3   OH236316   3.125   1.648   2.387  0.0616 -0.5934 -0.4133
 4942TIP3    H136317   3.087   1.567   2.421 -0.8119  0.0412  0.1638
 4942TIP3    H236318   3.120   1.709   2.461  2.1177 -0.4669 -0.3710
 4943TIP3   OH236319   0.676   2.007  13.769 -0.3152  0.1344 -0.3143
 4943TIP3    H136320   0.640   2.080  13.819 -0.1012 -0.0242  0.0750
 4943TIP3    H236321   0.661   1.930  13.824  0.4043  0.0373 -0.2501
 4944TIP3   OH236322   4.480   5.979  11.878 -0.0875  0.1688 -0.1673
 4944TIP3    H136323   4.539   5.973  11.802 -0.0581 -0.5516 -0.0887
 4944TIP3    H236324   4.510   5.910  11.937 -0.6337  0.1938  0.1405
 4945TIP3   OH236325   0.695   4.655   3.698 -0.5644 -0.0723 -0.2682
 4945TIP3    H136326   0.714   4.686   3.610 -1.4270  1.2966  0.0215
 4945TIP3    H236327   0.775   4.610   3.725 -0.7077 -1.5214 -2.1800
 4946TIP3   OH236328   6.408   4.613  16.549 -0.1802 -0.0303  0.4752
 4946TIP3    H136329   6.461   4.545  16.508  0.0497 -0.1712  0.9948
 4946TIP3    H236330   6.395   4.678  16.480 -1.0459 -0.9484 -0.2411
 4947TIP3   OH236331   6.671   6.460   3.652 -0.0323  0.0988  0.4460
 4947TIP3    H136332   6.649   6.386   3.708 -0.1868 -0.0447  0.1977
 4947TIP3    H236333   6.752   6.495   3.689  0.4646 -0.6707  0.1029
 4948TIP3   OH236334   2.824   2.666   1.501  0.1400 -0.8064 -0.0980
 4948TIP3    H136335   2.826   2.757   1.531  0.8382 -0.7576 -0.2727
 4948TIP3    H236336   2.915   2.646   1.480 -0.2659 -0.9404 -1.8625
 4949TIP3   OH236337   1.050   4.738  15.246 -0.5817  0.1248 -0.6614
 4949TIP3    H136338   1.093   4.659  15.214 -0.7346  0.0782 -0.7485
 4949TIP3    H236339   0.959   4.712  15.261 -0.6286  0.2795 -0.6795
 4950TIP3   OH236340   3.089   2.594  16.174 -0.0260  0.3586 -0.6425
 4950TIP3    H136341   3.174   2.552  16.188  0.1290  1.1884  0.9964
 4950TIP3    H236342   3.109   2.673  16.124 -0.0011 -0.0907 -1.3596
 4951TIP3   OH236343   4.396   5.949  10.832  0.3685 -0.0792  0.2478
 4951TIP3    H136344   4.480   5.931  10.791  0.2744  0.6567 -0.2885
 4951TIP3    H236345   4.373   6.038  10.803 -1.6943 -1.1530 -1.5041
 4952TIP3   OH236346   6.047   3.627   1.038  0.1301  0.0615  0.6912
 4952TIP3    H136347   5.952   3.628   1.046  0.0681  3.0072 -0.0647
 4952TIP3    H236348   6.065   3.557   0.975 -1.5255 -0.4745  0.8042
 4953TIP3   OH236349   6.179   1.862   4.572 -0.1632  0.1116  0.1378
 4953TIP3    H136350   6.161   1.907   4.654  0.1428 -0.0904  0.3162
 4953TIP3    H236351   6.130   1.780   4.578  0.6751 -0.3640  0.5545
 4954TIP3   OH236352   4.372   5.114   6.686 -0.1710  0.2523  0.4870
 4954TIP3    H136353   4.286   5.074   6.674 -0.1967  0.8672 -1.7039
 4954TIP3    H236354   4.369   5.153   6.773 -1.7146 -0.6935  0.8677
 4955TIP3   OH236355   4.865   1.804  11.366  0.2930  0.4078  0.5370
 4955TIP3    H136356   4.945   1.849  11.395 -0.2426  2.4734 -0.9854
 4955TIP3    H236357   4.795   1.865  11.389 -0.4880  0.2186 -1.2969
 4956TIP3   OH236358   5.837   0.897  10.986  0.6051 -0.0360 -0.7793
 4956TIP3    H136359   5.758   0.846  10.970 -0.4829  1.3592  0.1139
 4956TIP3    H236360   5.832   0.970  10.924  0.6022  0.7054  0.0881
 4957TIP3   OH236361   1.402   6.434  15.588 -0.2954  0.0814  0.0160
 4957TIP3    H136362   1.447   6.405  15.508  2.4131  1.2195  1.0592
 4957TIP3    H236363   1.361   6.355  15.623  0.4038 -0.8858 -1.3045
 4958TIP3   OH236364   1.551   6.161   2.881  0.2071 -0.3049  0.1271
 4958TIP3    H136365   1.636   6.201   2.867  0.4173 -0.5969  0.5692
 4958TIP3    H236366   1.501   6.225   2.931  0.2341 -0.2170  0.0405
 4959TIP3   OH236367   5.190   6.793   4.759 -0.0169 -0.2407 -0.6042
 4959TIP3    H136368   5.170   6.729   4.828  0.7111  0.4293  0.2382
 4959TIP3    H236369   5.104   6.829   4.735 -0.1346  0.8587  1.2881
 4960TIP3   OH236370   5.763   1.747   5.897  0.2730  0.0520 -0.5952
 4960TIP3    H136371   5.841   1.712   5.856  0.0559 -0.8073 -0.2726
 4960TIP3    H236372   5.713   1.671   5.925 -1.3216  0.5651 -1.9643
 4961TIP3   OH236373   2.781   1.605   1.900 -0.3055 -0.0544 -0.4492
 4961TIP3    H136374   2.732   1.531   1.863  0.9580 -0.6739 -0.9080
 4961TIP3    H236375   2.740   1.682   1.861 -0.3849 -0.6005 -1.4827
 4962TIP3   OH236376   1.986   1.105   4.370  0.0746  0.9039 -0.2155
 4962TIP3    H136377   1.927   1.040   4.408  0.9634 -0.7865 -1.6321
 4962TIP3    H236378   1.929   1.177   4.344 -0.9669  0.5838  1.1306
 4963TIP3   OH236379   6.130   5.745  12.120  0.3336  0.2859  0.0881
 4963TIP3    H136380   6.119   5.672  12.058 -0.3582  1.2268 -0.9293
 4963TIP3    H236381   6.205   5.721  12.173 -0.8665 -1.9282  0.8464
 4964TIP3   OH236382   3.599   4.450   2.926  0.1195  0.4788 -0.1160
 4964TIP3    H136383   3.669   4.491   2.875 -2.0443  2.1759 -1.7658
 4964TIP3    H236384   3.615   4.356   2.917  0.4110  0.7626 -3.0471
 4965TIP3   OH236385   0.182   1.190   0.537  0.5593 -0.3046 -0.1281
 4965TIP3    H136386   0.156   1.116   0.481 -1.7781 -0.2474  0.8173
 4965TIP3    H236387   0.180   1.155   0.626  0.5004  0.6070  0.2361
 4966TIP3   OH236388   0.483   5.855   3.280  0.1180  0.4749  0.0890
 4966TIP3    H136389   0.531   5.895   3.208  1.3084  1.8495  1.6148
 4966TIP3    H236390   0.391   5.873   3.261  0.5184  2.0797 -0.3302
 4967TIP3   OH236391   3.331   5.422   4.174 -0.1598 -0.3904 -0.2730
 4967TIP3    H136392   3.400   5.487   4.190  0.4206 -1.2810  0.9661
 4967TIP3    H236393   3.264   5.442   4.239 -0.3779 -0.4698 -0.4760
 4968TIP3   OH236394   3.957   1.986  14.076  0.0798  0.5806  0.1216
 4968TIP3    H136395   4.049   1.988  14.103  0.2389 -0.3415 -0.3171
 4968TIP3    H236396   3.960   1.948  13.988 -0.7588  0.2625  0.2333
 4969TIP3   OH236397   1.462   4.662  11.440  0.0399  0.0737 -0.3721
 4969TIP3    H136398   1.496   4.685  11.354 -0.5297  0.7860 -0.4202
 4969TIP3    H236399   1.370   4.641  11.425  0.4900 -2.0750 -0.2865
 4970TIP3   OH236400   3.791   5.899  10.429 -0.0874  0.6146 -0.6295
 4970TIP3    H136401   3.849   5.839  10.477  0.0147  2.0740  1.1375
 4970TIP3    H236402   3.747   5.844  10.364  0.1668 -1.3277  0.8128
 4971TIP3   OH236403   3.624   6.031  11.828  0.1966  0.5033  0.4339
 4971TIP3    H136404   3.573   6.106  11.796 -0.9945  0.0963  1.3488
 4971TIP3    H236405   3.576   5.955  11.795  0.5227  0.1249  0.8408
 4972TIP3   OH236406   3.501   0.151   1.291  0.7723  1.1035 -0.1254
 4972TIP3    H136407   3.484   0.205   1.369 -1.6338 -0.1410  0.2950
 4972TIP3    H236408   3.470   0.204   1.218  0.8299  1.3388  0.0202
 4973TIP3   OH236409   2.377   2.104   3.321  0.2300 -0.2522  0.5556
 4973TIP3    H136410   2.287   2.087   3.292  0.2909 -0.0429  0.2444
 4973TIP3    H236411   2.390   2.044   3.394 -0.0037 -0.6237  0.2961
 4974TIP3   OH236412   4.477   6.639  12.298 -0.2585 -0.5709  0.0099
 4974TIP3    H136413   4.506   6.638  12.207  0.5688  0.0428  0.2622
 4974TIP3    H236414   4.552   6.673  12.347 -0.7542 -0.7426  0.8998
 4975TIP3   OH236415   0.224   5.805   0.983  0.0288 -0.2274 -0.1904
 4975TIP3    H136416   0.189   5.877   1.036 -0.1786 -1.6160  1.6153
 4975TIP3    H236417   0.147   5.766   0.943  0.2542  1.2928 -2.1799
 4976TIP3   OH236418   0.721   2.346  13.717  0.1787 -0.8623 -0.0001
 4976TIP3    H136419   0.722   2.441  13.702  2.1050 -0.7534  0.7446
 4976TIP3    H236420   0.727   2.308  13.630 -3.1747 -0.3583 -0.5395
 4977TIP3   OH236421   2.745   3.006   2.353 -0.0249  0.0429  0.8057
 4977TIP3    H136422   2.705   3.092   2.360 -0.4472  0.1363 -2.2190
 4977TIP3    H236423   2.833   3.024   2.318 -1.2923 -0.9317 -3.0862
 4978TIP3   OH236424   2.515   3.830   6.058 -0.2716 -0.0924  0.3418
 4978TIP3    H136425   2.547   3.742   6.074  0.5508  0.1511  0.0300
 4978TIP3    H236426   2.440   3.819   6.000  1.7531 -0.3620 -2.3221
 4979TIP3   OH236427   2.045   5.545   1.986  0.5803  0.5086  0.1220
 4979TIP3    H136428   2.023   5.637   2.002 -1.8459 -0.3463  1.8121
 4979TIP3    H236429   1.981   5.516   1.921 -0.6949 -0.8612  1.9682
 4980TIP3   OH236430   1.872   1.105  16.956  0.7353 -0.1082  0.0022
 4980TIP3    H136431   1.891   1.017  16.987 -0.2446 -0.2485  0.2023
 4980TIP3    H236432   1.878   1.160  17.034  0.6001 -0.1094  0.0124
 4981TIP3   OH236433   1.031   1.779  13.897 -0.3359  0.0649 -0.0276
 4981TIP3    H136434   1.068   1.805  13.812  0.5500  0.0150  0.3454
 4981TIP3    H236435   1.006   1.861  13.939 -1.1703  0.0672 -0.5085
 4982TIP3   OH236436   2.235   2.222  12.115  0.6446  0.4220 -0.1665
 4982TIP3    H136437   2.265   2.184  12.032 -0.4330 -0.7753 -0.0166
 4982TIP3    H236438   2.281   2.173  12.183 -1.2678 -1.1588  0.0503
 4983TIP3   OH236439   6.321   1.548  11.687 -0.0163  0.4755 -0.0669
 4983TIP3    H136440   6.298   1.465  11.730  0.7699  0.8859  1.1589
 4983TIP3    H236441   6.415   1.558  11.702 -0.3980  2.3721  1.1348
 4984TIP3   OH236442   4.724   4.333   4.370 -0.3084 -0.2214 -0.2775
 4984TIP3    H136443   4.734   4.241   4.347  0.6000  0.4139 -2.6374
 4984TIP3    H236444   4.793   4.349   4.435  2.9504 -0.0724 -3.5802
 4985TIP3   OH236445   2.047   5.222   4.026  0.4348 -0.0763  0.2320
 4985TIP3    H136446   2.046   5.139   4.074  1.9899 -0.3407 -0.1734
 4985TIP3    H236447   1.959   5.257   4.039  0.1323 -1.2004  1.4261
 4986TIP3   OH236448   0.141   2.065  14.311 -0.6909 -0.0617 -0.0381
 4986TIP3    H136449   0.114   2.020  14.391  0.3755 -0.5233  0.0655
 4986TIP3    H236450   0.231   2.036  14.296 -0.8380  0.1063 -1.3372
 4987TIP3   OH236451   3.678   5.897  12.504  0.2478  0.1118  0.1799
 4987TIP3    H136452   3.646   5.824  12.557 -0.3798  0.5832  0.4602
 4987TIP3    H236453   3.616   5.968  12.521  0.3326  0.4298 -0.7911
 4988TIP3   OH236454   5.072   3.379  17.162 -0.0997 -0.0516  0.5223
 4988TIP3    H136455   5.052   3.438  17.235 -0.0906  1.3822 -0.6043
 4988TIP3    H236456   5.164   3.357  17.174 -0.1859 -0.0969  1.1261
 4989TIP3   OH236457   4.010   5.099   3.111 -0.0934  0.0749 -0.3068
 4989TIP3    H136458   4.045   5.054   3.188  0.1570 -2.2158 -1.7022
 4989TIP3    H236459   3.928   5.139   3.141  0.7007  0.3690  1.4778
 4990TIP3   OH236460   6.126   6.250  16.915 -0.3081 -0.2178 -0.3405
 4990TIP3    H136461   6.100   6.249  17.007  0.3550 -0.9781 -0.1560
 4990TIP3    H236462   6.130   6.158  16.890 -0.4647 -0.0150 -1.1296
 4991TIP3   OH236463   0.351   3.009  16.208 -0.0690 -0.2591  0.2955
 4991TIP3    H136464   0.415   2.943  16.237  1.3464  1.2184  0.5967
 4991TIP3    H236465   0.342   3.069  16.282 -0.8921  0.2380 -0.1938
 4992TIP3   OH236466   6.675   1.530   4.144  0.6111  0.2663  0.2832
 4992TIP3    H136467   6.613   1.530   4.216  0.6977  1.1366  0.3571
 4992TIP3    H236468   6.658   1.611   4.097  1.2305  0.1842 -0.0954
 4993TIP3   OH236469   0.092   0.706   5.376 -0.0955  0.1612  0.3405
 4993TIP3    H136470   0.127   0.655   5.303 -0.4529 -0.1377  0.3716
 4993TIP3    H236471   0.127   0.663   5.454  3.4733  2.8119  0.3071
 4994TIP3   OH236472   0.759   3.301  15.807  0.2997  0.3858 -0.0884
 4994TIP3    H136473   0.683   3.359  15.811 -0.2579 -0.2860 -0.8667
 4994TIP3    H236474   0.725   3.219  15.773  0.8849 -0.7578  1.9631
 4995TIP3   OH236475   6.047   2.003  15.314 -0.4903  1.2350  0.0742
 4995TIP3    H136476   6.092   2.027  15.233 -1.2659  1.2327 -0.3579
 4995TIP3    H236477   5.965   2.052  15.312 -1.7762 -0.8770 -0.4666
 4996TIP3   OH236478   2.107   4.730   1.743 -0.1632 -0.4240  0.4245
 4996TIP3    H136479   2.125   4.820   1.773 -0.9527 -0.4385  0.9371
 4996TIP3    H236480   2.192   4.686   1.750  0.2662  0.3158  0.0326
 4997TIP3   OH236481   6.179   3.499   5.092 -0.0105  0.3211 -0.5301
 4997TIP3    H136482   6.208   3.420   5.138  2.3824  0.4259 -1.7921
 4997TIP3    H236483   6.177   3.474   5.000  0.9854  1.7543 -0.9613
 4998TIP3   OH236484   1.955   3.075  17.191  0.1695 -0.1034  0.1067
 4998TIP3    H136485   1.864   3.047  17.186  0.3278 -0.6921  0.4296
 4998TIP3    H236486   1.992   3.055  17.106 -0.5285  2.0512 -0.7387
 4999TIP3   OH236487   6.650   6.566   2.295  0.3459 -0.6155  0.4158
 4999TIP3    H136488   6.610   6.486   2.262  0.3269 -1.1107  1.6140
 4999TIP3    H236489   6.585   6.603   2.354 -0.1114  0.8970 -1.0032
 5000TIP3   OH236490   3.985   1.400  11.707 -0.0798  0.2542 -0.4464
 5000TIP3    H136491   4.078   1.387  11.722 -0.1320 -0.0644 -0.4008
 5000TIP3    H236492   3.945   1.316  11.729 -0.6996  1.1831  2.2341
 5001TIP3   OH236493   3.872   4.855  15.140  0.3638  0.3260 -0.4665
 5001TIP3    H136494   3.948   4.878  15.194  0.8311  0.3328 -1.1345
 5001TIP3    H236495   3.854   4.935  15.090  0.3263  0.1073 -0.7981
 5002TIP3   OH236496   4.803   1.053  11.054 -0.2172 -0.2240 -0.5886
 5002TIP3    H136497   4.873   1.067  10.990 -0.4858  3.3982 -0.1589
 5002TIP3    H236498   4.725   1.034  11.001  1.0423 -4.6958 -1.0658
 5003TIP3   OH236499   2.070   0.721   2.793  0.1970  0.2195 -0.2536
 5003TIP3    H136500   2.045   0.764   2.711  0.0298 -1.5004 -1.1216
 5003TIP3    H236501   2.165   0.716   2.790  0.1186 -0.9583 -0.9237
 5004TIP3   OH236502   5.004   4.035   2.209 -0.2108  0.0991  0.2735
 5004TIP3    H136503   4.922   4.084   2.218  0.1655  0.7155  0.3876
 5004TIP3    H236504   5.021   4.034   2.115  0.1902  0.8669  0.3382
 5005TIP3   OH236505   4.888   2.282  13.087 -0.0326 -0.5980  0.2190
 5005TIP3    H136506   4.888   2.225  13.165  1.2036  0.0232  0.6844
 5005TIP3    H236507   4.969   2.260  13.042 -0.3152 -0.3077 -0.4385
 5006TIP3   OH236508   1.766   2.881  12.290  0.4516  0.3330  0.9967
 5006TIP3    H136509   1.707   2.813  12.321 -0.3852  0.0979 -1.0659
 5006TIP3    H236510   1.853   2.852  12.318  0.3016 -2.4108 -1.2093
 5007TIP3   OH236511   1.808   0.475  14.903 -0.2251  0.2575 -0.0152
 5007TIP3    H136512   1.719   0.507  14.920  0.3623  1.5891  0.6735
 5007TIP3    H236513   1.837   0.525  14.826 -0.7464 -1.5276 -1.3844
 5008TIP3   OH236514   0.877   0.076  16.238  0.2802 -0.0887 -0.1096
 5008TIP3    H136515   0.865   0.141  16.169 -2.8400 -2.6741 -2.1986
 5008TIP3    H236516   0.966   0.045  16.227  0.7776  1.6110 -1.0730
 5009TIP3   OH236517   4.682   1.746   0.875 -0.0896  0.0109 -0.2249
 5009TIP3    H136518   4.606   1.694   0.850 -1.6896  1.5735  1.2787
 5009TIP3    H236519   4.688   1.813   0.808  2.2086 -2.2242 -2.3856
 5010TIP3   OH236520   1.912   5.281  11.770  0.5725  0.7832 -0.3872
 5010TIP3    H136521   1.873   5.208  11.817  0.2299  0.0050 -1.8352
 5010TIP3    H236522   1.875   5.359  11.811 -1.3409  0.0929 -0.7159
 5011TIP3   OH236523   6.816   6.432  14.759  0.2267  0.0795  0.5093
 5011TIP3    H136524   6.875   6.463  14.690 -0.0070 -1.7784 -0.5517
 5011TIP3    H236525   6.729   6.457  14.729  0.2260  0.2854  0.6847
 5012TIP3   OH236526   0.860   3.893  13.307  0.0432  0.4117 -0.5437
 5012TIP3    H136527   0.910   3.874  13.387  0.0510  1.0396 -0.3907
 5012TIP3    H236528   0.901   3.838  13.240  1.4857  1.5024 -0.5963
 5013TIP3   OH236529   4.803   4.359  10.645  0.9468  0.2324 -0.5051
 5013TIP3    H136530   4.844   4.441  10.617  1.1034 -0.0460 -1.0901
 5013TIP3    H236531   4.718   4.385  10.680  1.7626  0.8583  1.0618
 5014TIP3   OH236532   6.474   1.126   3.927  0.6355  0.0908 -0.0154
 5014TIP3    H136533   6.462   1.131   4.022  1.2702  0.1460  0.0617
 5014TIP3    H236534   6.463   1.216   3.897 -0.2203 -0.0301 -0.0738
 5015TIP3   OH236535   6.088   5.016   6.614  0.1073 -0.6417 -0.0099
 5015TIP3    H136536   6.062   4.942   6.559  0.6544  0.1675 -1.3827
 5015TIP3    H236537   6.176   5.039   6.583  0.1080  0.3171  0.6948
 5016TIP3   OH236538   4.656   2.283  14.008 -0.1604 -0.2776 -0.2226
 5016TIP3    H136539   4.672   2.191  13.987 -1.6136 -0.5214 -0.3687
 5016TIP3    H236540   4.628   2.322  13.925 -3.0685 -0.5695  0.5471
 5017TIP3   OH236541   0.962   6.376  15.461  0.1362 -0.1441  0.1189
 5017TIP3    H136542   1.033   6.410  15.406  0.1802  0.0979  0.3248
 5017TIP3    H236543   1.000   6.373  15.549 -0.9152  2.4691  0.7041
 5018TIP3   OH236544   0.335   1.994   3.328 -0.2336 -0.4364  0.1052
 5018TIP3    H136545   0.329   2.017   3.421 -0.6132 -3.9835  1.0177
 5018TIP3    H236546   0.401   2.054   3.294  0.2520  0.6392  2.7648
 5019TIP3   OH236547   4.636   0.694  11.595  0.1046 -0.3349  0.0316
 5019TIP3    H136548   4.577   0.734  11.531 -1.2763  2.0537  2.6936
 5019TIP3    H236549   4.612   0.601  11.596 -1.2437 -0.0072 -1.4015
 5020TIP3   OH236550   3.616   6.665  13.206  0.6065 -0.0067 -0.1060
 5020TIP3    H136551   3.680   6.597  13.229 -0.4901 -0.7689  0.7396
 5020TIP3    H236552   3.648   6.744  13.248  0.5499 -0.5800  1.0304
 5021TIP3   OH236553   2.494   4.710   4.879 -0.2063 -0.2858 -0.1605
 5021TIP3    H136554   2.522   4.793   4.918 -0.1889 -0.4593  0.2031
 5021TIP3    H236555   2.567   4.683   4.823  0.7025 -1.1049  1.3517
 5022TIP3   OH236556   0.131   5.831  12.661  0.2136 -0.2892 -0.2263
 5022TIP3    H136557   0.191   5.866  12.727 -0.2825 -0.3164  0.2532
 5022TIP3    H236558   0.059   5.794  12.713 -0.6414  0.5284 -0.8165
 5023TIP3   OH236559   1.637   1.261   2.075 -0.1067  0.1044  0.0225
 5023TIP3    H136560   1.595   1.307   2.148  2.1503  1.2586  0.6272
 5023TIP3    H236561   1.564   1.233   2.020 -1.6412  2.5862  0.7213
 5024TIP3   OH236562   4.823   3.778  11.272 -0.3987  0.6019 -0.0917
 5024TIP3    H136563   4.751   3.790  11.335  0.3753  0.9203  0.7461
 5024TIP3    H236564   4.794   3.826  11.194 -1.8072 -0.6308 -0.3468
 5025TIP3   OH236565   2.184   6.514  11.136  0.2007  0.1443 -0.3393
 5025TIP3    H136566   2.257   6.474  11.089  1.0088 -0.1725  1.1295
 5025TIP3    H236567   2.202   6.608  11.133  1.1085  0.0158  0.6865
 5026TIP3   OH236568   3.350   0.002   4.463  0.2293 -0.3910  0.1368
 5026TIP3    H136569   3.353   0.076   4.523  1.7493 -1.2466  1.1327
 5026TIP3    H236570   3.421  -0.055   4.491  1.8606 -0.1628 -3.3626
 5027TIP3   OH236571   1.572   1.541   2.772 -0.6872  0.3760  0.3149
 5027TIP3    H136572   1.576   1.447   2.788  0.7638  0.6042  1.4437
 5027TIP3    H236573   1.630   1.579   2.838 -1.8244  2.1260  0.3537
 5028TIP3   OH236574   4.261   3.595  11.806 -0.7651  0.2109 -0.6642
 5028TIP3    H136575   4.169   3.597  11.831 -0.5295  0.8551  0.1708
 5028TIP3    H236576   4.304   3.549  11.879 -0.2877  0.7783 -0.5852
 5029TIP3   OH236577   5.398   2.249   5.908  0.4145  0.2576  0.2297
 5029TIP3    H136578   5.440   2.179   5.958  1.2646 -0.4845 -1.4829
 5029TIP3    H236579   5.464   2.319   5.905  1.3590 -0.7023 -2.0136
 5030TIP3   OH236580   3.289   0.304   4.153 -0.2026  0.1571 -0.2536
 5030TIP3    H136581   3.355   0.338   4.214  0.6093  0.1894 -1.1401
 5030TIP3    H236582   3.339   0.278   4.076 -1.2398  0.2440 -0.9619
 5031TIP3   OH236583   5.143   4.281   5.173  0.2210 -0.2077  0.2242
 5031TIP3    H136584   5.235   4.279   5.200  0.0898  0.0504  0.6971
 5031TIP3    H236585   5.146   4.278   5.077  0.7076 -0.6609  0.2508
 5032TIP3   OH236586   2.562   6.716  16.382 -0.6872 -0.3659 -0.0154
 5032TIP3    H136587   2.632   6.729  16.446  0.0949 -2.6718 -0.3527
 5032TIP3    H236588   2.521   6.802  16.373  1.3734  0.7643  1.0435
 5033TIP3   OH236589   4.622   4.723   1.310  0.2201  0.1847 -0.2179
 5033TIP3    H136590   4.641   4.756   1.397 -1.0107 -1.2341  0.6089
 5033TIP3    H236591   4.685   4.652   1.296 -1.0338 -1.1061  0.4675
 5034TIP3   OH236592   3.406   3.151  15.343 -0.3838 -0.1302 -0.3137
 5034TIP3    H136593   3.398   3.067  15.388  0.0251 -0.1717 -0.3126
 5034TIP3    H236594   3.326   3.160  15.292  0.8258 -1.8903 -2.6345
 5035TIP3   OH236595   0.374   2.644  16.337 -0.0770  0.0554 -0.4632
 5035TIP3    H136596   0.396   2.638  16.244  1.0156  1.4576 -0.3131
 5035TIP3    H236597   0.424   2.573  16.378  0.2521  0.0901 -0.8037
 5036TIP3   OH236598   1.033   1.703  16.632  0.3256  0.3267  0.8547
 5036TIP3    H136599   1.031   1.619  16.677 -0.1900 -0.4993 -0.6793
 5036TIP3    H236600   0.955   1.749  16.665 -0.5013 -0.5939  0.1976
 5037TIP3   OH236601   1.402   1.723  12.262 -0.1933 -0.5628 -0.4845
 5037TIP3    H136602   1.326   1.705  12.316 -0.2383 -2.9176 -1.2973
 5037TIP3    H236603   1.458   1.779  12.316 -1.1008 -1.3212  1.2490
 5038TIP3   OH236604   0.308   0.024   3.189  0.1889 -0.6390 -0.2395
 5038TIP3    H136605   0.314   0.087   3.117  0.7455  0.9015  1.1276
 5038TIP3    H236606   0.384  -0.032   3.178  2.8828  2.4354  1.7286
 5039TIP3   OH236607   5.559   6.600  12.567  0.3035 -0.1001 -0.0581
 5039TIP3    H136608   5.555   6.645  12.651 -3.5070  0.9468 -0.7041
 5039TIP3    H236609   5.585   6.667  12.504 -0.3437 -0.0193 -0.2425
 5040TIP3   OH236610   5.135   3.254  14.068 -0.0181 -0.5065 -0.0800
 5040TIP3    H136611   5.133   3.164  14.037 -1.2433 -0.2089 -0.8709
 5040TIP3    H236612   5.163   3.247  14.160 -1.8618 -1.8298  0.3977
 5041TIP3   OH236613   3.203   6.245   0.549 -0.0499  0.4831  0.0724
 5041TIP3    H136614   3.162   6.282   0.471 -0.2415 -1.4885 -0.7955
 5041TIP3    H236615   3.279   6.197   0.516  1.4593  1.9046  1.3983
 5042TIP3   OH236616   4.982   6.579  15.242 -0.4968  0.0555  0.2343
 5042TIP3    H136617   5.065   6.579  15.194  0.1396  2.4145  1.2539
 5042TIP3    H236618   4.915   6.579  15.174  0.3113 -1.3970 -0.5994
 5043TIP3   OH236619   4.620   5.773   1.740 -0.6163  0.0065  0.0180
 5043TIP3    H136620   4.656   5.708   1.801 -0.4005  0.6363  0.5689
 5043TIP3    H236621   4.647   5.742   1.653 -0.4320 -0.5859  0.2830
 5044TIP3   OH236622   0.608   5.307  13.145 -0.3532 -0.1267 -0.1023
 5044TIP3    H136623   0.586   5.396  13.173 -0.6573 -0.3588  0.4163
 5044TIP3    H236624   0.523   5.262  13.142 -0.1318 -0.5771  0.2821
 5045TIP3   OH236625   6.579   6.463   4.557 -0.2886  0.2258  0.0501
 5045TIP3    H136626   6.590   6.498   4.469  1.1148 -0.3562 -0.0260
 5045TIP3    H236627   6.637   6.387   4.560 -2.6577 -1.6487  0.4624
 5046TIP3   OH236628   2.772   0.226   3.920  0.1839 -0.8213 -0.1951
 5046TIP3    H136629   2.824   0.299   3.885 -0.5155  0.2576  0.9703
 5046TIP3    H236630   2.705   0.268   3.974 -0.8635 -2.2810 -0.3196
 5047TIP3   OH236631   6.589   5.561  13.477  0.3543  0.1217  0.0272
 5047TIP3    H136632   6.653   5.605  13.532 -0.5906  1.9367 -0.2726
 5047TIP3    H236633   6.505   5.602  13.499 -0.5372 -1.4067 -0.4051
 5048TIP3   OH236634   0.733   4.101  16.032  0.3261 -0.3047  0.0535
 5048TIP3    H136635   0.646   4.122  16.067  1.0042 -0.0668  1.6504
 5048TIP3    H236636   0.757   4.019  16.076  2.0774  1.0829  1.8262
 5049TIP3   OH236637   1.136   5.614  12.184  0.4007 -0.2000 -1.2699
 5049TIP3    H136638   1.164   5.666  12.108 -0.9360 -0.4909 -1.9877
 5049TIP3    H236639   1.139   5.675  12.257 -0.8982  0.8578 -2.0581
 5050TIP3   OH236640   5.270   6.015  11.959 -0.5410 -0.8289  0.1782
 5050TIP3    H136641   5.221   5.937  11.984 -0.4682 -1.2467 -0.9779
 5050TIP3    H236642   5.203   6.077  11.929 -0.5955 -0.4376  1.0610
 5051TIP3   OH236643   5.521   1.355  15.583  0.3001  0.3099  0.3128
 5051TIP3    H136644   5.451   1.420  15.586  0.1443  0.2459 -1.5128
 5051TIP3    H236645   5.570   1.369  15.665  1.4007  4.0124 -0.8568
 5052TIP3   OH236646   5.936   5.470  14.252  0.0812 -0.8133 -0.0709
 5052TIP3    H136647   5.977   5.448  14.336 -0.5821  0.1728  0.5255
 5052TIP3    H236648   5.843   5.480  14.273 -0.4805 -3.0953 -1.4314
 5053TIP3   OH236649   2.766   0.084  14.316  0.4951  0.2003 -0.2980
 5053TIP3    H136650   2.852   0.046  14.334  0.2839 -0.9498 -1.6278
 5053TIP3    H236651   2.742   0.049  14.230 -1.5154  0.1575  0.2670
 5054TIP3   OH236652   3.039   3.435  14.851 -0.2325 -0.8629 -0.1848
 5054TIP3    H136653   2.957   3.391  14.830  0.0838 -1.8253  0.5934
 5054TIP3    H236654   3.095   3.367  14.889  0.6123 -0.0249  0.1030
 5055TIP3   OH236655   6.511   0.028  13.370  0.4900 -0.1689  0.3362
 5055TIP3    H136656   6.533  -0.022  13.291  0.2871  1.0524 -0.5198
 5055TIP3    H236657   6.416   0.037  13.367  0.4674 -0.2444  0.7972
 5056TIP3   OH236658   5.679   6.609   6.227  0.0134  0.3241 -0.0105
 5056TIP3    H136659   5.690   6.703   6.237 -1.0040  0.5156 -0.5908
 5056TIP3    H236660   5.589   6.592   6.255  0.7159 -0.7300  1.7077
 5057TIP3   OH236661   3.295   5.645   2.941  0.1518  0.5680  0.4164
 5057TIP3    H136662   3.330   5.572   2.991  1.3122  1.0364  0.2922
 5057TIP3    H236663   3.369   5.678   2.891 -0.5818  1.2404 -0.2378
 5058TIP3   OH236664   3.245   5.057   4.493 -0.8306 -0.4259 -0.0751
 5058TIP3    H136665   3.255   4.963   4.479 -0.4450 -0.5123  0.7692
 5058TIP3    H236666   3.318   5.096   4.445 -0.6308 -0.5963  0.0896
 5059TIP3   OH236667   0.615   2.933  16.359  0.0519  0.0618 -0.3662
 5059TIP3    H136668   0.573   2.920  16.444  2.2138  0.4253  0.8058
 5059TIP3    H236669   0.684   2.867  16.355  1.5939  1.6396 -0.7293
 5060TIP3   OH236670   4.229   2.966  14.584  0.2061 -0.0921  0.3225
 5060TIP3    H136671   4.307   2.934  14.539 -1.1899  0.2747 -2.4566
 5060TIP3    H236672   4.207   2.897  14.646  1.8652 -0.8699  0.0740
 5061TIP3   OH236673   4.540   5.508   6.267  0.0571  0.2301  0.5463
 5061TIP3    H136674   4.622   5.464   6.289 -0.7366 -1.9445 -0.6872
 5061TIP3    H236675   4.530   5.495   6.173 -1.0135  1.7280  0.4238
 5062TIP3   OH236676   1.136   1.299  14.073 -0.1798  0.6806 -0.0666
 5062TIP3    H136677   1.219   1.296  14.025 -0.8603  1.3343 -1.3041
 5062TIP3    H236678   1.071   1.266  14.010 -0.8696  0.2032  0.8797
 5063TIP3   OH236679   1.606   2.257   1.068 -0.1135 -0.0685 -0.5182
 5063TIP3    H136680   1.621   2.257   0.973 -0.0142  0.6480 -0.5022
 5063TIP3    H236681   1.516   2.227   1.078  0.6754 -2.5898 -0.7108
 5064TIP3   OH236682   3.862   2.899   5.366  0.4154 -0.5704  0.4186
 5064TIP3    H136683   3.825   2.925   5.450 -0.2193  0.2243 -0.1051
 5064TIP3    H236684   3.809   2.825   5.338 -0.1369 -0.0680  0.1427
 5065TIP3   OH236685   6.543   0.046   4.473 -0.5021  0.4315  0.3702
 5065TIP3    H136686   6.475   0.032   4.538 -0.9890 -2.0770 -0.6299
 5065TIP3    H236687   6.625   0.029   4.519 -0.7103  0.6909  0.8362
 5066TIP3   OH236688   6.292   2.839   4.550  0.1313 -0.0905 -0.1104
 5066TIP3    H136689   6.354   2.783   4.503  0.8629  0.2378  0.4383
 5066TIP3    H236690   6.320   2.835   4.641 -0.2935  0.5310  0.0570
 5067TIP3   OH236691   5.844   0.599   5.306  0.3258  0.8030 -0.2500
 5067TIP3    H136692   5.871   0.644   5.386  1.3401 -0.8803  0.3781
 5067TIP3    H236693   5.844   0.506   5.330  1.1838  0.2417 -2.3782
 5068TIP3   OH236694   0.389   1.638   4.593 -0.4658  0.0245 -0.4482
 5068TIP3    H136695   0.366   1.664   4.682 -0.6993 -0.5301 -0.3458
 5068TIP3    H236696   0.469   1.586   4.603 -0.1899  0.4096 -0.6186
 5069TIP3   OH236697   0.289   1.000   4.312 -0.7285  0.0955  0.1989
 5069TIP3    H136698   0.360   0.962   4.363 -0.3867  2.0293  1.2289
 5069TIP3    H236699   0.331   1.033   4.233 -0.6885  0.1248  0.2322
 5070TIP3   OH236700   2.779   5.354  13.133 -0.3937 -1.2131 -0.2445
 5070TIP3    H136701   2.732   5.436  13.118 -0.7797 -1.3405  0.2684
 5070TIP3    H236702   2.808   5.358  13.224  0.8595 -1.0037 -0.6516
 5071TIP3   OH236703   2.569   5.568   2.011  0.4275 -0.7155 -0.4816
 5071TIP3    H136704   2.568   5.664   2.009  0.5252 -0.6328  2.0538
 5071TIP3    H236705   2.479   5.543   1.988 -0.7054  0.1300  2.8416
 5072TIP3   OH236706   6.703   3.416  16.367  0.2038 -0.4099 -0.0539
 5072TIP3    H136707   6.674   3.325  16.371  0.9488 -0.5966  1.4219
 5072TIP3    H236708   6.624   3.468  16.383  0.0172 -0.8284  0.3731
 5073TIP3   OH236709   0.583   6.381  15.987  0.1156  0.0202  0.0744
 5073TIP3    H136710   0.596   6.468  16.026 -0.3658 -0.7625  2.0098
 5073TIP3    H236711   0.494   6.356  16.012  0.5075 -1.3383  0.1512
 5074TIP3   OH236712   4.772   1.898   1.301 -0.2082 -0.2789  0.4266
 5074TIP3    H136713   4.728   1.977   1.333 -0.6964  0.1302 -1.2165
 5074TIP3    H236714   4.711   1.827   1.321 -0.3612 -0.0712  0.7001
 5075TIP3   OH236715   4.250   1.118  10.593 -0.2619  0.1460  0.0439
 5075TIP3    H136716   4.264   1.048  10.656 -1.2687 -1.3660 -1.3467
 5075TIP3    H236717   4.204   1.076  10.520 -1.9988  2.5110 -0.3046
 5076TIP3   OH236718   5.057   2.730   6.517  0.1988  0.4253 -0.0377
 5076TIP3    H136719   4.986   2.730   6.581  1.6555 -0.4249  1.6421
 5076TIP3    H236720   5.125   2.675   6.557  1.8086  1.2387 -1.5862
 5077TIP3   OH236721   4.523   0.071   1.837 -0.1779  0.3205 -0.1698
 5077TIP3    H136722   4.613   0.096   1.817 -0.0027 -0.4774 -0.3749
 5077TIP3    H236723   4.503   0.001   1.776 -0.6493 -0.0964  0.4586
 5078TIP3   OH236724   5.998   5.498  16.307 -0.3757  0.2401  0.4656
 5078TIP3    H136725   6.063   5.436  16.340 -0.7275 -2.3917 -3.4595
 5078TIP3    H236726   6.050   5.570  16.272  0.3018 -0.4895 -0.0369
 5079TIP3   OH236727   5.436   6.800  10.864 -0.0273 -0.0771 -0.1395
 5079TIP3    H136728   5.386   6.817  10.944  0.0219 -0.4503 -0.0268
 5079TIP3    H236729   5.384   6.839  10.794  0.9729  2.1510  0.3204
 5080TIP3   OH236730   1.648   1.525   3.309 -0.4001  0.0791  0.2685
 5080TIP3    H136731   1.624   1.533   3.401 -0.8962  1.6281  0.0165
 5080TIP3    H236732   1.704   1.447   3.305  1.9869  1.6224  2.3439
 5081TIP3   OH236733   2.253   1.069  16.806  0.1987  0.4506  0.3421
 5081TIP3    H136734   2.230   0.981  16.776  1.1543 -0.0181  0.9572
 5081TIP3    H236735   2.320   1.099  16.744 -0.6997  1.0631 -0.3379
 5082TIP3   OH236736   3.217   2.983  15.816  0.0314 -0.3659  0.1716
 5082TIP3    H136737   3.306   3.014  15.836 -0.0447  1.1652 -1.6620
 5082TIP3    H236738   3.229   2.920  15.744 -0.4456  0.8240 -0.9828
 5083TIP3   OH236739   6.402   2.404  12.854 -0.7197 -0.0713  0.5429
 5083TIP3    H136740   6.371   2.396  12.764 -0.1715 -0.6228  0.4010
 5083TIP3    H236741   6.488   2.447  12.846 -0.9013  0.3576  0.8451
 5084TIP3   OH236742   0.906   5.927  13.462  0.5879  0.0408 -0.0912
 5084TIP3    H136743   0.920   6.021  13.474  0.3177  0.2306 -1.1410
 5084TIP3    H236744   0.861   5.899  13.541  0.8415  0.7615  0.3145
 5085TIP3   OH236745   1.950   2.150   5.660  0.6712  0.0134  0.3252
 5085TIP3    H136746   1.873   2.206   5.655  1.5969  1.2303 -0.7134
 5085TIP3    H236747   1.917   2.061   5.648 -0.6308  0.4861  0.4354
 5086TIP3   OH236748   0.738   3.656  15.008  0.7845  0.0445 -0.6658
 5086TIP3    H136749   0.644   3.648  15.020  0.7851  2.0267  0.9760
 5086TIP3    H236750   0.771   3.686  15.093  2.5285  1.8755 -1.9255
 5087TIP3   OH236751   3.204   2.923   2.458  0.6366 -0.2627  0.4321
 5087TIP3    H136752   3.130   2.965   2.502 -0.0154  0.2672 -1.1153
 5087TIP3    H236753   3.197   2.953   2.367  1.9692 -1.2923 -0.0184
 5088TIP3   OH236754   3.839   5.550   0.640  0.6244 -0.6121  0.0634
 5088TIP3    H136755   3.777   5.584   0.704  0.6387 -0.5074  0.0211
 5088TIP3    H236756   3.925   5.561   0.680  0.7570  0.7829 -0.5631
 5089TIP3   OH236757   4.645   2.424  16.484  0.2188 -0.0453 -0.0841
 5089TIP3    H136758   4.620   2.438  16.576  0.7592 -1.4665  0.2866
 5089TIP3    H236759   4.649   2.512  16.447  1.3421  0.6481  1.6194
 5090TIP3   OH236760   4.327   2.513  11.276 -0.0191  0.1482  0.2568
 5090TIP3    H136761   4.334   2.444  11.341 -1.2438  0.4349  0.7100
 5090TIP3    H236762   4.354   2.472  11.194 -0.4570 -0.7907  0.5817
 5091TIP3   OH236763   6.257   2.784  15.781  0.6116 -0.5254  1.3033
 5091TIP3    H136764   6.266   2.879  15.788 -1.7566 -0.1829  0.0256
 5091TIP3    H236765   6.194   2.761  15.849 -1.9370 -0.6353 -1.0435
 5092TIP3   OH236766   0.672   6.397   0.475 -0.6578 -0.5228 -0.3030
 5092TIP3    H136767   0.605   6.448   0.521 -1.3611 -0.1463 -1.7199
 5092TIP3    H236768   0.639   6.390   0.385  1.2370 -0.2633 -1.0320
 5093TIP3   OH236769   6.306   4.330  15.578  0.1217 -0.1699 -0.8969
 5093TIP3    H136770   6.374   4.272  15.545  0.1043  0.4538 -2.0310
 5093TIP3    H236771   6.245   4.341  15.505  0.9821  2.5944 -1.2570
 5094TIP3   OH236772   6.288   5.662  13.801  0.8387 -0.2607  0.8715
 5094TIP3    H136773   6.329   5.724  13.861 -0.1653 -0.2103  1.5280
 5094TIP3    H236774   6.194   5.673  13.816  0.6436 -2.2224  1.3113
 5095TIP3   OH236775   1.537   3.191   1.753  0.3847  0.1115  0.9563
 5095TIP3    H136776   1.520   3.225   1.841 -0.8183 -0.9061  1.1360
 5095TIP3    H236777   1.504   3.101   1.756 -1.0791  0.5500 -0.9819
 5096TIP3   OH236778   1.854   6.399  15.297  0.0075 -0.1132  0.2707
 5096TIP3    H136779   1.887   6.477  15.251 -0.6343 -0.3043 -0.5365
 5096TIP3    H236780   1.875   6.414  15.389 -1.6592  1.8289  0.3793
 5097TIP3   OH236781   0.230   2.772  13.188 -0.0125  0.1523 -0.4229
 5097TIP3    H136782   0.265   2.767  13.278  1.6643 -1.5963 -1.1310
 5097TIP3    H236783   0.140   2.741  13.196 -0.1772  0.8986  0.8095
 5098TIP3   OH236784   5.577   2.608  12.427  0.1219  0.4783 -0.0301
 5098TIP3    H136785   5.615   2.686  12.387  0.1540  0.9817  0.9664
 5098TIP3    H236786   5.643   2.578  12.490  0.5099 -0.8948 -1.0698
 5099TIP3   OH236787   4.536   6.493   4.076  0.0574 -0.1470  0.3841
 5099TIP3    H136788   4.513   6.406   4.111  0.5553 -0.8233 -0.9263
 5099TIP3    H236789   4.478   6.505   4.001 -1.0769  1.3492  1.4749
 5100TIP3   OH236790   6.013   5.774   0.180 -0.5046  0.0815  0.4351
 5100TIP3    H136791   6.012   5.845   0.116  1.2854  0.7928  1.1556
 5100TIP3    H236792   6.047   5.699   0.130  2.1866  0.9707  0.8075
 5101TIP3   OH236793   1.458   6.363   3.020  0.4847  0.1508  0.6431
 5101TIP3    H136794   1.474   6.378   3.113 -1.0664  2.0811  0.6514
 5101TIP3    H236795   1.363   6.354   3.013  0.5949 -0.0693 -0.7389
 5102TIP3   OH236796   5.363   4.087   0.183 -0.3072  0.8630 -0.3008
 5102TIP3    H136797   5.382   4.155   0.248 -0.3841  0.0094  0.6220
 5102TIP3    H236798   5.272   4.103   0.158  0.1093  1.9633 -1.1257
 5103TIP3   OH236799   0.023   2.050  15.142  0.7110  0.1463 -0.3236
 5103TIP3    H136800  -0.060   2.064  15.188  0.6779  1.2617 -0.7071
 5103TIP3    H236801   0.013   1.965  15.099 -0.4991  0.5807 -0.9296
 5104TIP3   OH236802   6.040   6.698  13.965  0.2666 -0.3549  0.9152
 5104TIP3    H136803   6.002   6.727  14.048 -0.3527  0.1854  0.4393
 5104TIP3    H236804   5.977   6.726  13.898  1.0929 -0.1979  0.1995
 5105TIP3   OH236805   5.732   4.824  11.094 -0.5823 -0.1594 -0.5076
 5105TIP3    H136806   5.738   4.742  11.044  1.9760 -1.5250  1.9470
 5105TIP3    H236807   5.652   4.815  11.146  0.1688 -1.5035  0.4275
 5106TIP3   OH236808   6.182   5.164   5.220  0.5087 -0.1240  0.1390
 5106TIP3    H136809   6.094   5.128   5.221  0.6908 -0.7318 -2.2787
 5106TIP3    H236810   6.173   5.253   5.254 -1.0403 -0.1536 -0.1859
 5107TIP3   OH236811   4.708   3.094   3.882  0.4642  0.3236 -0.0606
 5107TIP3    H136812   4.659   3.148   3.820 -1.9761 -0.6114  0.9962
 5107TIP3    H236813   4.710   3.008   3.843 -1.6471 -0.4324  1.3674
 5108TIP3   OH236814   2.293   1.611   0.437  0.1765 -0.1476  0.1135
 5108TIP3    H136815   2.351   1.575   0.369 -0.6830  1.6337 -1.6009
 5108TIP3    H236816   2.328   1.698   0.454 -1.9130  0.9018 -0.8436
 5109TIP3   OH236817   2.047   0.516   1.912 -0.0982 -0.0393  0.0997
 5109TIP3    H136818   1.967   0.569   1.906  0.0338  0.1396 -0.0697
 5109TIP3    H236819   2.061   0.483   1.824 -0.6506 -1.0461  0.3909
 5110TIP3   OH236820   1.602   0.040  12.239 -0.3966 -0.6383 -0.1908
 5110TIP3    H136821   1.545   0.088  12.179 -1.1355 -2.0032 -0.6024
 5110TIP3    H236822   1.543   0.007  12.307 -0.1492 -2.2125 -0.7163
 5111TIP3   OH236823   2.228   1.017  14.045 -0.3077  0.1880 -0.1457
 5111TIP3    H136824   2.254   0.931  14.013  0.5021  0.4453 -0.1797
 5111TIP3    H236825   2.218   1.006  14.140  1.9712  0.5791  0.1754
 5112TIP3   OH236826   6.358   4.363  11.588  0.0698  0.1853  0.1202
 5112TIP3    H136827   6.434   4.311  11.614  0.5314  0.4900 -0.5949
 5112TIP3    H236828   6.286   4.300  11.586  0.3151 -0.1191  0.7364
 5113TIP3   OH236829   1.074   5.492   0.847 -0.1187 -0.3121  0.4915
 5113TIP3    H136830   0.991   5.464   0.809  0.4950 -0.1968 -0.9572
 5113TIP3    H236831   1.053   5.573   0.894 -0.9509 -0.6367  0.6925
 5114TIP3   OH236832   4.082   6.813  16.913 -0.0689 -0.0282  0.5468
 5114TIP3    H136833   4.120   6.873  16.977  0.0450 -0.6483  1.0716
 5114TIP3    H236834   4.036   6.747  16.965  0.7728 -1.0446  0.0361
 5115TIP3   OH236835   5.790   1.234   4.479 -0.1050  0.4297  0.6680
 5115TIP3    H136836   5.698   1.228   4.456  0.1772  1.9707 -0.9726
 5115TIP3    H236837   5.793   1.297   4.551 -0.2664  0.9138  0.2527
 5116TIP3   OH236838   2.932   4.138  15.593 -0.4875  0.3073 -0.4981
 5116TIP3    H136839   2.847   4.180  15.610 -0.2160  1.0466 -0.9489
 5116TIP3    H236840   2.995   4.210  15.598  0.0018 -0.0798 -1.1252
 5117TIP3   OH236841   0.397   2.730  11.342 -0.0966 -0.1778  0.1930
 5117TIP3    H136842   0.346   2.811  11.336 -0.4599 -0.4813 -1.0228
 5117TIP3    H236843   0.346   2.673  11.399  0.3922  0.6141  1.4370
 5118TIP3   OH236844   2.131   0.126  13.845  0.5876  0.2353  0.2715
 5118TIP3    H136845   2.081   0.170  13.777  0.5535  0.8599  0.6951
 5118TIP3    H236846   2.222   0.145  13.824  0.6024 -0.0107  0.1066
 5119TIP3   OH236847   4.626   1.140  15.476  0.1290 -0.6065 -1.4397
 5119TIP3    H136848   4.579   1.202  15.420  0.0143 -0.8177 -1.5778
 5119TIP3    H236849   4.709   1.126  15.432  1.5003  1.9482  0.2487
 5120TIP3   OH236850   4.465   1.740  12.550  0.1728 -0.0603 -0.3770
 5120TIP3    H136851   4.412   1.777  12.621  1.7175 -1.9310  1.8118
 5120TIP3    H236852   4.507   1.816  12.509 -0.7159  1.0455  0.7145
 5121TIP3   OH236853   2.754   3.192  12.683 -0.1685 -0.1071  0.0917
 5121TIP3    H136854   2.727   3.255  12.750  1.6487  0.7549  0.0296
 5121TIP3    H236855   2.834   3.229  12.645 -0.1903 -1.4611 -1.3364
 5122TIP3   OH236856   5.109   5.518  12.178  0.1927 -0.4725 -0.1531
 5122TIP3    H136857   5.158   5.436  12.176  2.1342  0.6986 -1.7676
 5122TIP3    H236858   5.130   5.556  12.262  0.6565 -0.8054 -0.1156
 5123TIP3   OH236859   2.419   4.101   5.109 -0.0486 -0.4266 -0.0976
 5123TIP3    H136860   2.364   4.022   5.110  0.9846 -1.1544  1.6587
 5123TIP3    H236861   2.362   4.170   5.142 -1.4996 -0.0296 -3.3031
 5124TIP3   OH236862   1.071   4.795  11.285 -0.0724 -0.2187 -0.0152
 5124TIP3    H136863   1.157   4.812  11.246 -0.2555  0.0778 -0.2885
 5124TIP3    H236864   1.013   4.779  11.211 -0.0415 -1.4175  0.2202
 5125TIP3   OH236865   0.582   2.919  14.035 -0.1273 -0.1512  0.9266
 5125TIP3    H136866   0.577   2.831  13.999  0.1809 -1.1785  3.3009
 5125TIP3    H236867   0.654   2.960  13.988 -0.9015 -0.7995 -0.8971
 5126TIP3   OH236868   5.404   5.414  14.912 -0.2383  0.0838  0.1426
 5126TIP3    H136869   5.493   5.448  14.904 -0.1303 -0.7593 -2.4099
 5126TIP3    H236870   5.369   5.414  14.823 -2.7539  0.2164  1.0704
 5127TIP3   OH236871   0.298   5.085   5.952  0.0700  0.6216 -0.0329
 5127TIP3    H136872   0.357   5.044   5.889  0.2411 -0.4692  0.8135
 5127TIP3    H236873   0.253   5.153   5.902 -0.9914 -1.2763 -1.7870
 5128TIP3   OH236874   3.143   2.439   2.589  0.2411  0.7658  0.1965
 5128TIP3    H136875   3.231   2.457   2.622  0.7767  0.0556 -0.8319
 5128TIP3    H236876   3.113   2.524   2.555  0.4156  1.0703  0.7838
 5129TIP3   OH236877   1.188   1.121   1.510  0.2630 -0.5245  0.0165
 5129TIP3    H136878   1.268   1.116   1.459 -1.0404 -0.0943 -2.1226
 5129TIP3    H236879   1.164   1.030   1.528 -0.1972 -0.7367 -1.6354
 5130TIP3   OH236880   2.940   0.646  14.924  0.4547 -0.1189  0.0590
 5130TIP3    H136881   2.885   0.660  15.001 -0.9722 -0.8144 -0.8145
 5130TIP3    H236882   2.941   0.551  14.912 -1.2813  0.1008 -2.1443
 5131TIP3   OH236883   6.172   2.626  11.973  0.8005  0.0424 -0.0546
 5131TIP3    H136884   6.117   2.583  11.909  1.5625  0.6364 -1.1286
 5131TIP3    H236885   6.119   2.698  12.007 -0.7019 -2.0531  2.1974
 5132TIP3   OH236886   1.870   4.780   1.220  0.0661  0.1969 -0.5134
 5132TIP3    H136887   1.879   4.737   1.305 -3.1221  0.7633  0.2129
 5132TIP3    H236888   1.835   4.867   1.241 -0.1288  0.5880 -2.3461
 5133TIP3   OH236889   5.662   4.709  10.169 -0.2451 -0.7747  0.5996
 5133TIP3    H136890   5.627   4.622  10.150 -0.8357 -0.5155  0.4806
 5133TIP3    H236891   5.619   4.766  10.106 -0.2240 -0.3204  0.9946
 5134TIP3   OH236892   0.289   6.771  17.236 -0.0888 -0.1443  0.0593
 5134TIP3    H136893   0.266   6.815  17.318  0.3574 -1.5852  0.9737
 5134TIP3    H236894   0.362   6.713  17.259  1.3830  0.9090 -1.8043
 5135TIP3   OH236895   5.857   5.836   3.509  0.6021  0.0285  0.4283
 5135TIP3    H136896   5.826   5.892   3.580  0.7700  0.5560  0.0926
 5135TIP3    H236897   5.948   5.815   3.532  1.2708  1.7507 -0.5578
 5136TIP3   OH236898   4.348   4.474  13.846  0.5100  0.3050 -0.0514
 5136TIP3    H136899   4.359   4.401  13.784  0.2987 -0.0511  0.3280
 5136TIP3    H236900   4.318   4.433  13.927 -1.5926  1.0001 -0.4195
 5137TIP3   OH236901   4.370   4.445   5.034  0.2168  0.0352  0.2126
 5137TIP3    H136902   4.279   4.435   5.004  0.2419  0.5881 -0.0634
 5137TIP3    H236903   4.422   4.395   4.971  0.1608  0.2623 -0.0188
 5138TIP3   OH236904   6.017   4.209  10.765  0.1722 -0.0291  0.1213
 5138TIP3    H136905   6.110   4.186  10.768  0.6122  1.7995  1.4505
 5138TIP3    H236906   6.004   4.245  10.678  0.8386  0.1899  0.1038
 5139TIP3   OH236907   6.444   3.410  12.332 -0.0458  0.8518 -0.3614
 5139TIP3    H136908   6.471   3.322  12.307 -0.0885  1.4131 -2.4446
 5139TIP3    H236909   6.523   3.463  12.320  0.2212  0.9582  1.7228
 5140TIP3   OH236910   5.300   3.728   4.125 -0.3200  0.2799  0.0271
 5140TIP3    H136911   5.209   3.756   4.136 -0.0848  0.2109  2.2998
 5140TIP3    H236912   5.325   3.693   4.211  1.6295 -0.3531 -0.7786
 5141TIP3   OH236913   6.061   0.614  11.493 -0.3858 -0.0162 -0.1026
 5141TIP3    H136914   6.026   0.640  11.408 -1.8031 -1.2891  0.0620
 5141TIP3    H236915   6.058   0.694  11.546 -1.1455  0.3744 -0.7174
 5142TIP3   OH236916   3.493   0.752   2.425 -0.2244 -0.6812  0.2162
 5142TIP3    H136917   3.402   0.754   2.455  0.1251  0.7919  1.2299
 5142TIP3    H236918   3.503   0.835   2.377  1.0712 -0.0383  1.5791
 5143TIP3   OH236919   2.085   2.068  13.484 -0.0608  0.0746  0.2699
 5143TIP3    H136920   2.097   1.997  13.546 -0.1444  0.3484  0.5990
 5143TIP3    H236921   2.171   2.110  13.478 -0.0421  0.0220  0.1682
 5144TIP3   OH236922   4.999   3.476  15.549 -0.0428  0.0655  0.2277
 5144TIP3    H136923   4.985   3.569  15.530  1.5468  0.3115  0.1850
 5144TIP3    H236924   4.956   3.430  15.477 -0.3605  0.7787 -0.0423
 5145TIP3   OH236925   2.964   4.066  11.367  0.0019 -0.0537 -0.1724
 5145TIP3    H136926   2.986   4.032  11.280  2.0643  0.0617  0.2640
 5145TIP3    H236927   3.036   4.035  11.423 -1.3427 -0.1954  1.5179
 5146TIP3   OH236928   3.825   6.171  16.976 -0.8239 -0.3733  0.2781
 5146TIP3    H136929   3.866   6.230  16.912 -0.3371 -0.6078  0.3724
 5146TIP3    H236930   3.888   6.099  16.986 -1.8283 -1.3974 -0.5653
 5147TIP3   OH236931   0.879   0.400  15.799 -0.2747 -0.7390 -0.0264
 5147TIP3    H136932   0.945   0.452  15.846  0.3869 -1.1001 -0.5338
 5147TIP3    H236933   0.842   0.342  15.866  1.8848 -2.4628 -0.2602
 5148TIP3   OH236934   4.663   1.184  14.028 -0.3165 -0.1140  0.3274
 5148TIP3    H136935   4.673   1.212  14.119 -1.3476 -1.2164  0.7802
 5148TIP3    H236936   4.716   1.105  14.021 -1.7606 -1.1100  0.4768
 5149TIP3   OH236937   3.672   3.913   4.914  0.5215 -0.3747 -0.6164
 5149TIP3    H136938   3.585   3.914   4.955 -0.0103  1.0261 -1.7442
 5149TIP3    H236939   3.725   3.859   4.973 -0.4033  1.0057  1.5614
 5150TIP3   OH236940   1.073   6.758   0.680  0.8850 -0.1028  0.0318
 5150TIP3    H136941   0.998   6.770   0.738  0.3897 -0.8156 -0.4493
 5150TIP3    H236942   1.047   6.797   0.597  0.4445 -1.6602 -0.5949
 5151TIP3   OH236943   3.570   0.781   4.844  0.1075 -0.5809  0.3556
 5151TIP3    H136944   3.665   0.780   4.852  0.0321 -0.3895  1.4362
 5151TIP3    H236945   3.543   0.697   4.881 -0.0731 -1.1944 -1.1271
 5152TIP3   OH236946   2.700   6.273  15.584  0.2548  0.4281  0.0398
 5152TIP3    H136947   2.623   6.266  15.528  0.2013 -1.7613  0.3371
 5152TIP3    H236948   2.773   6.242  15.530  0.2169 -1.5993  1.0698
 5153TIP3   OH236949   0.549   5.358  14.648 -0.5310  0.2573  0.2029
 5153TIP3    H136950   0.541   5.433  14.707 -3.6311  1.5646 -1.7696
 5153TIP3    H236951   0.596   5.391  14.572  2.4780 -1.1444  1.3799
 5154TIP3   OH236952   4.662   6.551  13.432  0.7390  0.6182 -0.1669
 5154TIP3    H136953   4.720   6.607  13.485  1.1553  0.1212 -0.0896
 5154TIP3    H236954   4.622   6.611  13.369  1.3058  0.9818 -0.1915
 5155TIP3   OH236955   3.499   4.515   1.543  0.5819  0.4181  0.1643
 5155TIP3    H136956   3.521   4.584   1.605 -0.0811  0.0081  0.8531
 5155TIP3    H236957   3.456   4.448   1.595  0.0313  0.0626 -0.7366
 5156TIP3   OH236958   0.293   0.339  13.284  0.1171  0.5402  0.9104
 5156TIP3    H136959   0.263   0.431  13.283  2.7852  1.4831 -2.1958
 5156TIP3    H236960   0.234   0.295  13.222  1.1911  1.0462 -0.5072
 5157TIP3   OH236961   2.362   2.457   2.737 -0.0577  0.1816 -0.4723
 5157TIP3    H136962   2.341   2.394   2.669  3.1584  0.2690 -1.6295
 5157TIP3    H236963   2.338   2.413   2.819 -0.5493 -1.3800 -1.4386
 5158TIP3   OH236964   0.338   3.776   5.619  0.5050  0.1869  0.6131
 5158TIP3    H136965   0.379   3.850   5.575  0.3624  0.0949  0.3186
 5158TIP3    H236966   0.247   3.804   5.632  0.2642 -0.2124 -0.1563
 5159TIP3   OH236967   3.420   4.805  17.261 -0.2710 -0.3963 -0.0383
 5159TIP3    H136968   3.415   4.732  17.323  0.6398  0.4057  1.0162
 5159TIP3    H236969   3.513   4.828  17.260 -1.0036  3.0193  2.3509
 5160TIP3   OH236970   1.566   0.547  15.013  0.1193  0.3511 -0.2362
 5160TIP3    H136971   1.532   0.584  14.931 -0.5055  2.6794  1.0269
 5160TIP3    H236972   1.527   0.601  15.082  0.6819 -1.5354  1.6079
 5161TIP3   OH236973   6.184   2.193   6.520 -0.1672 -0.0317 -0.0241
 5161TIP3    H136974   6.171   2.276   6.473 -0.6636  0.2674  0.6179
 5161TIP3    H236975   6.277   2.173   6.509 -0.0493  0.6007 -0.2175
 5162TIP3   OH236976   2.651   3.073   1.678 -0.0819 -0.1572  0.1656
 5162TIP3    H136977   2.600   3.030   1.747  0.8545  0.3258  1.1907
 5162TIP3    H236978   2.729   3.018   1.669 -1.8987 -2.3338 -3.1999
 5163TIP3   OH236979   5.575   3.383   2.903 -0.1143 -0.5546  0.1472
 5163TIP3    H136980   5.631   3.325   2.954  0.7550 -0.5632 -0.8023
 5163TIP3    H236981   5.606   3.373   2.813  0.6934  2.1320  0.0968
 5164TIP3   OH236982   0.518   2.706  13.191  0.6475  0.7149 -0.6319
 5164TIP3    H136983   0.464   2.627  13.193  1.1472  0.3954  3.2664
 5164TIP3    H236984   0.455   2.778  13.197  0.4995  0.3864  2.2531
 5165TIP3   OH236985   3.897   0.344   1.646  0.3685 -0.7254  0.2553
 5165TIP3    H136986   3.875   0.320   1.736  0.5734 -0.1024  0.4732
 5165TIP3    H236987   3.924   0.436   1.652  0.8365 -0.8210 -0.3670
 5166TIP3   OH236988   1.559   2.607   0.547  0.5095  0.4612  0.4554
 5166TIP3    H136989   1.637   2.660   0.532  0.2652  0.3349 -1.2770
 5166TIP3    H236990   1.591   2.517   0.549  0.5549  0.4834  0.8442
 5167TIP3   OH236991   4.023   3.782  16.018 -0.1914  0.0554 -0.3281
 5167TIP3    H136992   4.103   3.734  15.998  0.6759  1.5780 -0.5804
 5167TIP3    H236993   3.995   3.817  15.933 -0.8653 -0.0424 -0.1523
 5168TIP3   OH236994   1.619   4.195   0.558  0.2798 -0.4589  0.1644
 5168TIP3    H136995   1.710   4.201   0.586 -0.2346  1.6758  1.5580
 5168TIP3    H236996   1.569   4.202   0.639 -1.1466 -0.5330 -0.6957
 5169TIP3   OH236997   1.176   0.857  16.543 -0.2527  0.3159 -0.2933
 5169TIP3    H136998   1.214   0.911  16.474  0.7701  2.0962  1.5884
 5169TIP3    H236999   1.096   0.903  16.568 -1.0491 -0.7547 -0.8425
 5170TIP3   OH237000   2.810   3.997   4.052  0.3127  0.4061 -0.1556
 5170TIP3    H137001   2.741   3.973   3.989 -0.8167  0.7917  0.9107
 5170TIP3    H237002   2.810   3.925   4.115  1.0891  0.2759 -0.2997
 5171TIP3   OH237003   1.961   1.223  12.795  0.1300  0.5846 -0.5181
 5171TIP3    H137004   1.979   1.130  12.803 -1.1562  0.3246 -0.5308
 5171TIP3    H237005   1.978   1.259  12.882  0.1108  0.2451 -0.3752
 5172TIP3   OH237006   0.634   6.624   3.794 -0.2352 -0.2166 -0.4927
 5172TIP3    H137007   0.566   6.629   3.862  1.6881 -0.0137  1.4380
 5172TIP3    H237008   0.630   6.533   3.763 -0.4805 -0.5749  0.5663
 5173TIP3   OH237009   1.653   1.387  15.468 -0.0936 -0.4409 -0.1318
 5173TIP3    H137010   1.743   1.392  15.435  0.0815  0.4861  0.4741
 5173TIP3    H237011   1.604   1.345  15.398  0.2619  1.5715 -1.6308
 5174TIP3   OH237012   4.487   3.747   0.201  0.6804 -0.0440  0.4888
 5174TIP3    H137013   4.440   3.824   0.235  0.7714 -0.0096  0.5368
 5174TIP3    H237014   4.529   3.777   0.121 -1.4271 -0.7248 -0.9241
 5175TIP3   OH237015   5.963   4.821  10.149  0.1941  0.3870 -0.1981
 5175TIP3    H137016   5.993   4.730  10.154  0.5105  0.5352  0.7890
 5175TIP3    H237017   5.871   4.815  10.126  0.6854 -0.1180 -2.1858
 5176TIP3   OH237018   3.817   1.399  13.811  0.3847 -0.2974 -0.8069
 5176TIP3    H137019   3.763   1.412  13.890 -0.2046  0.9589 -1.4002
 5176TIP3    H237020   3.777   1.325  13.766 -1.4400  1.2207 -1.7274
 5177TIP3   OH237021   6.432   6.085  14.507 -0.5140  0.3576 -0.2111
 5177TIP3    H137022   6.484   6.019  14.553  1.8108  0.9305 -1.9251
 5177TIP3    H237023   6.359   6.036  14.471 -0.9603 -0.5563  1.8268
 5178TIP3   OH237024   4.638   6.430   4.566 -0.2909  0.0696 -0.1098
 5178TIP3    H137025   4.637   6.389   4.652 -0.0299 -0.4016 -0.3318
 5178TIP3    H237026   4.731   6.437   4.544 -0.3952 -0.7691 -0.8097
 5179TIP3   OH237027   2.022   5.010  12.068  0.5599 -0.1959 -0.5652
 5179TIP3    H137028   1.936   5.008  12.026  0.0787 -0.4649  0.4008
 5179TIP3    H237029   2.049   4.918  12.071  0.5386 -0.1939 -0.2039
 5180TIP3   OH237030   6.810   5.126   5.693 -0.3346  0.2389  0.1185
 5180TIP3    H137031   6.841   5.108   5.605 -1.7345 -2.2133  0.0800
 5180TIP3    H237032   6.799   5.039   5.733 -0.1136  1.2852  2.5626
 5181TIP3   OH237033   2.138   4.709   2.811  0.2845 -0.3157  0.2206
 5181TIP3    H137034   2.229   4.680   2.808  0.2815 -0.4054  0.9544
 5181TIP3    H237035   2.125   4.755   2.728  1.1375  0.1185  0.3216
 5182TIP3   OH237036   3.076   3.543   2.316 -0.6100 -0.3848 -0.1153
 5182TIP3    H137037   3.037   3.500   2.392  0.2148 -0.6429  0.1736
 5182TIP3    H237038   3.123   3.618   2.353  0.3388 -0.8801 -0.2734
 5183TIP3   OH237039   3.420   4.150  14.320 -0.3599  0.0719  0.3424
 5183TIP3    H137040   3.446   4.112  14.404  0.5128  0.7518  0.3871
 5183TIP3    H237041   3.325   4.156  14.325 -0.4845 -1.7021  0.5009
 5184TIP3   OH237042   4.587   4.194  15.140 -0.4303  0.0249 -0.0738
 5184TIP3    H137043   4.547   4.107  15.145  1.0261 -0.7149 -1.1003
 5184TIP3    H237044   4.564   4.235  15.223 -1.7839 -1.0548  0.1003
 5185TIP3   OH237045   1.556   2.509   1.538 -0.5841 -0.0686 -0.4704
 5185TIP3    H137046   1.637   2.558   1.546 -0.3959 -0.5508  0.5348
 5185TIP3    H237047   1.540   2.506   1.443  0.7187 -0.2388 -0.6923
 5186TIP3   OH237048   4.800   1.258   6.361 -0.0304 -0.2564 -0.2823
 5186TIP3    H137049   4.721   1.288   6.405 -0.1032  0.1621 -0.7019
 5186TIP3    H237050   4.821   1.327   6.299  0.1363 -0.8025 -0.8383
 5187TIP3   OH237051   6.569   4.113  13.907 -0.2799  0.2962 -0.1231
 5187TIP3    H137052   6.569   4.024  13.944  1.8763  0.5543  0.5442
 5187TIP3    H237053   6.576   4.099  13.812  0.5328 -0.2494  0.0092
 5188TIP3   OH237054   0.222   6.254   0.469  0.1439  0.2532 -0.5378
 5188TIP3    H137055   0.156   6.209   0.416  0.9216 -0.0218 -1.2721
 5188TIP3    H237056   0.268   6.185   0.515 -0.0743  0.4468 -0.0293
 5189TIP3   OH237057   3.523   1.570  12.370  0.1282  0.1425 -0.1418
 5189TIP3    H137058   3.446   1.602  12.323  1.0840 -0.6981 -2.3304
 5189TIP3    H237059   3.593   1.568  12.305  1.6365 -0.5756  1.4314
 5190TIP3   OH237060   5.600   1.927   5.794 -0.2473 -0.3657  0.2645
 5190TIP3    H137061   5.684   1.905   5.834 -0.1894  0.1448  0.4234
 5190TIP3    H237062   5.567   1.844   5.761 -1.0739 -1.1192  2.8559
 5191TIP3   OH237063   3.299   3.274   1.285  0.6690 -0.5731  0.1390
 5191TIP3    H137064   3.219   3.293   1.236 -0.2909 -1.6702  1.2361
 5191TIP3    H237065   3.358   3.346   1.264 -0.0493 -0.5668 -1.9062
 5192TIP3   OH237066   5.363   6.612   2.906 -0.2430 -0.0722 -0.3329
 5192TIP3    H137067   5.350   6.625   3.000  0.9995  0.1897 -0.1825
 5192TIP3    H237068   5.407   6.692   2.877 -1.4189  0.2184 -1.3107
 5193TIP3   OH237069   1.808   0.634   4.053  0.0281  0.2437 -0.2829
 5193TIP3    H137070   1.898   0.618   4.082 -0.5565 -0.8177  1.0311
 5193TIP3    H237071   1.814   0.640   3.958  1.7175  1.7667 -0.0980
 5194TIP3   OH237072   5.635   4.998  12.932  0.3250  0.1524 -0.2191
 5194TIP3    H137073   5.557   4.949  12.905 -0.1641 -0.0512  1.5131
 5194TIP3    H237074   5.645   4.978  13.025  1.9118  0.9182 -0.2065
 5195TIP3   OH237075   6.609   6.615  11.079  0.0959 -0.1589 -0.3250
 5195TIP3    H137076   6.635   6.633  10.989  0.3386  0.0814 -0.2066
 5195TIP3    H237077   6.691   6.605  11.126 -0.0008  1.0463  0.1375
 5196TIP3   OH237078   4.316   1.396   2.560  0.0638 -0.5156  0.0155
 5196TIP3    H137079   4.319   1.478   2.610  2.5109  1.0526 -2.5810
 5196TIP3    H237080   4.379   1.339   2.603  1.2501  0.3836 -0.5082
 5197TIP3   OH237081   1.662   3.877  11.766  0.2894 -0.3184  0.1258
 5197TIP3    H137082   1.616   3.837  11.692 -0.3806  2.0499 -0.7764
 5197TIP3    H237083   1.745   3.907  11.729 -0.0492  0.8783  0.3125
 5198TIP3   OH237084   2.568   6.130   4.755  0.3812  0.4882  0.1428
 5198TIP3    H137085   2.483   6.150   4.716 -0.1940 -0.5291  0.8630
 5198TIP3    H237086   2.631   6.158   4.689 -0.5357  0.1838 -0.8878
 5199TIP3   OH237087   2.306   2.715   3.098  0.2786  0.1269 -0.0954
 5199TIP3    H137088   2.374   2.658   3.135  0.0552 -0.4484 -0.5534
 5199TIP3    H237089   2.348   2.755   3.021 -0.2164 -1.0194 -0.9775
 5200TIP3   OH237090   4.887   2.026   0.264  0.1330 -0.2587 -0.0936
 5200TIP3    H137091   4.971   1.981   0.275 -0.0407 -0.4575  0.4462
 5200TIP3    H237092   4.828   1.982   0.326 -0.3525 -0.0777 -0.4245
 5201TIP3   OH237093   5.252   6.819   2.452 -0.1542 -0.4813 -0.1844
 5201TIP3    H137094   5.218   6.887   2.510  1.8610 -0.5477  1.1259
 5201TIP3    H237095   5.200   6.741   2.472  0.6148 -0.5440  1.6503
 5202TIP3   OH237096   6.812   4.257  14.575  0.2803  0.6694 -0.3051
 5202TIP3    H137097   6.866   4.219  14.506  0.6939 -0.8352  0.8159
 5202TIP3    H237098   6.727   4.215  14.566  0.5364 -0.0516  0.5084
 5203TIP3   OH237099   3.843   0.318  14.786 -0.2323 -0.1157 -0.1532
 5203TIP3    H137100   3.835   0.252  14.717 -2.5161  1.1143 -1.1500
 5203TIP3    H237101   3.808   0.275  14.864  1.9934 -1.3825  0.1860
 5204TIP3   OH237102   6.318   0.769  16.229  0.1130 -0.2586 -0.1099
 5204TIP3    H137103   6.301   0.863  16.224  1.7090  0.0584  0.4813
 5204TIP3    H237104   6.357   0.747  16.144  1.2469 -0.0897  0.3706
 5205TIP3   OH237105   1.397   1.790   5.692 -0.0046  0.1751 -0.3528
 5205TIP3    H137106   1.304   1.807   5.709 -0.1095  0.7242 -1.3949
 5205TIP3    H237107   1.398   1.701   5.657  0.0402 -0.3901  1.0783
 5206TIP3   OH237108   5.263   4.328  13.665  0.3933  0.0787  0.2898
 5206TIP3    H137109   5.351   4.348  13.633 -0.0713  1.0961 -0.3702
 5206TIP3    H237110   5.213   4.307  13.586  0.4306 -2.0783  0.8104
 5207TIP3   OH237111   4.166   2.057  14.828  0.8733 -0.3756  0.1746
 5207TIP3    H137112   4.147   2.008  14.908 -0.0502 -1.0769 -0.4592
 5207TIP3    H237113   4.151   1.994  14.758  3.2315 -0.2571 -0.4887
 5208TIP3   OH237114   0.684   4.644  15.592  0.6576  0.4483 -0.2176
 5208TIP3    H137115   0.674   4.726  15.640  5.3379  1.3752 -0.5984
 5208TIP3    H237116   0.726   4.585  15.654  1.5403 -0.1638 -1.3811
 5209TIP3   OH237117   2.137   5.702   2.839 -0.5039  0.2318  0.1779
 5209TIP3    H137118   2.170   5.697   2.750  0.5548 -0.8564  0.6054
 5209TIP3    H237119   2.087   5.783   2.843  0.5472  0.9441 -1.0384
 5210TIP3   OH237120   4.263   1.104  14.287  0.4295 -0.2832 -0.4957
 5210TIP3    H137121   4.299   1.173  14.342 -0.0680  0.8454 -1.5595
 5210TIP3    H237122   4.181   1.141  14.253 -0.3459 -1.7728 -0.2758
 5211TIP3   OH237123   4.612   3.895  11.110  0.6497  0.1880  0.3528
 5211TIP3    H137124   4.597   3.942  11.192  0.8366  0.3591  0.2896
 5211TIP3    H237125   4.548   3.824  11.111 -2.1975  2.6083 -1.2523
 5212TIP3   OH237126   0.045   3.082   4.073 -0.1710  0.6631  0.2720
 5212TIP3    H137127   0.009   3.003   4.033  1.0358 -0.4766  1.3957
 5212TIP3    H237128  -0.011   3.153   4.040 -0.7438 -0.5426 -1.4078
 5213TIP3   OH237129   0.709   5.579  16.987 -0.0543 -0.3859  0.4768
 5213TIP3    H137130   0.763   5.651  17.020  0.4443 -0.7535  0.4608
 5213TIP3    H237131   0.760   5.542  16.915 -1.1756  0.4735 -0.7803
 5214TIP3   OH237132   5.956   4.962   2.489 -0.6259 -0.1765  0.2875
 5214TIP3    H137133   6.032   5.019   2.485 -0.7554  0.0727  1.2135
 5214TIP3    H237134   5.899   4.992   2.418 -0.5382  0.6252  0.5496
 5215TIP3   OH237135   0.566   0.029   3.658 -0.5239 -0.1785  0.2336
 5215TIP3    H137136   0.576  -0.058   3.695  0.6047 -0.9776 -1.8585
 5215TIP3    H237137   0.473   0.050   3.670 -1.0652 -2.1817 -0.3177
 5216TIP3   OH237138   2.352   5.456   2.911  0.0353 -0.0659 -0.5570
 5216TIP3    H137139   2.332   5.401   2.835  0.2915  1.5767 -1.8335
 5216TIP3    H237140   2.281   5.520   2.914  0.9307  0.9413 -0.4587
 5217TIP3   OH237141   4.199   4.532   3.196  0.4294  0.0657 -0.0811
 5217TIP3    H137142   4.233   4.551   3.283 -1.7220  0.9077  0.5987
 5217TIP3    H237143   4.169   4.442   3.201 -0.8259  0.5078  0.4252
 5218TIP3   OH237144   5.163   2.949  12.051  0.2041  0.1401 -0.3410
 5218TIP3    H137145   5.190   2.920  12.138  0.6400  1.1513 -0.1296
 5218TIP3    H237146   5.127   2.871  12.009  1.0008 -0.5967  0.3521
 5219TIP3   OH237147   1.304   3.158  13.177  0.3113 -0.3706  0.0359
 5219TIP3    H137148   1.281   3.122  13.091 -1.0179 -0.8643  0.5952
 5219TIP3    H237149   1.389   3.118  13.196 -0.1816 -1.6230 -0.2806
 5220TIP3   OH237150   0.795   4.698  16.745 -0.0846 -0.3937  0.4161
 5220TIP3    H137151   0.873   4.707  16.689  0.0243  0.7748  0.7477
 5220TIP3    H237152   0.746   4.626  16.705  1.5391 -1.6608  0.6536
 5221TIP3   OH237153   0.047   6.442   0.115 -0.1911  0.0071 -0.4148
 5221TIP3    H137154  -0.041   6.406   0.109 -0.9100  1.3041  1.6936
 5221TIP3    H237155   0.053   6.504   0.042 -0.7762 -0.6087 -0.9851
 5222TIP3   OH237156   2.735   4.642  17.215 -0.2710  0.7065 -0.3259
 5222TIP3    H137157   2.685   4.571  17.254 -1.4196  1.4463 -0.4150
 5222TIP3    H237158   2.694   4.722  17.249  1.3884  1.3326  0.2642
 5223TIP3   OH237159   1.053   0.375  13.459 -0.0444 -0.1036  0.3840
 5223TIP3    H137160   1.140   0.379  13.418 -0.0547 -3.6842 -0.1918
 5223TIP3    H237161   1.071   0.351  13.550 -0.3728  0.8072  0.6953
 5224TIP3   OH237162   3.516   5.931   3.004  0.0796  0.3280  0.1961
 5224TIP3    H137163   3.488   5.899   2.919 -0.6514  2.2346 -0.3180
 5224TIP3    H237164   3.603   5.894   3.017 -0.0411 -0.4405 -1.1166
 5225TIP3   OH237165   5.947   4.744  13.545  0.3034 -0.1576  0.0353
 5225TIP3    H137166   5.946   4.703  13.458 -2.6019  0.1192 -0.0876
 5225TIP3    H237167   5.914   4.833  13.530 -2.9326 -1.0062  1.8356
 5226TIP3   OH237168   5.148   4.791  12.995  0.5281 -0.3832  0.3210
 5226TIP3    H137169   5.102   4.835  13.067 -1.1089 -1.2324 -0.1929
 5226TIP3    H237170   5.093   4.716  12.974  2.0902 -1.3402 -0.4090
 5227TIP3   OH237171   5.547   1.180   0.052 -0.5247 -0.4637 -0.0038
 5227TIP3    H137172   5.614   1.172  -0.017  2.7629 -0.7955  3.0810
 5227TIP3    H237173   5.526   1.273   0.054  1.1772 -0.0713  0.1758
 5228TIP3   OH237174   3.892   3.628   0.599  0.5238  0.0461 -0.2629
 5228TIP3    H137175   3.893   3.595   0.510 -0.9460 -0.9114  0.0740
 5228TIP3    H237176   3.887   3.723   0.589 -0.9060 -0.1185 -1.1903
 5229TIP3   OH237177   0.924   3.769  16.273  0.2509  0.2941  0.1089
 5229TIP3    H137178   0.995   3.708  16.253 -0.1089  0.0747 -0.5360
 5229TIP3    H237179   0.964   3.835  16.329  1.0148  0.2837 -0.4105
 5230TIP3   OH237180   1.614   2.598  14.295 -0.2042 -0.0915  0.5080
 5230TIP3    H137181   1.599   2.692  14.297 -0.1741 -0.0871  0.5723
 5230TIP3    H237182   1.621   2.576  14.203  0.9206  0.1494  0.5287
 5231TIP3   OH237183   5.104   3.775  14.410 -0.5755 -0.2029  0.6829
 5231TIP3    H137184   5.081   3.819  14.491 -0.6863 -2.5556  1.9694
 5231TIP3    H237185   5.063   3.688  14.417 -0.5957 -0.4471 -1.8837
 5232TIP3   OH237186   0.469   5.918  14.766  0.2373  0.0648 -0.1326
 5232TIP3    H137187   0.423   5.986  14.718 -0.4505 -1.1866 -1.3109
 5232TIP3    H237188   0.425   5.914  14.851 -2.4618 -1.6586 -1.5151
 5233TIP3   OH237189   6.421   4.307   5.152 -0.3450  0.1952  0.2867
 5233TIP3    H137190   6.371   4.355   5.086  0.4004 -0.4022 -0.7103
 5233TIP3    H237191   6.502   4.357   5.162 -0.1350 -0.1295  0.2019
 5234TIP3   OH237192   4.871   4.037   2.662  0.5474 -0.3830  0.2910
 5234TIP3    H137193   4.944   3.997   2.615  0.4393 -1.6647  1.1811
 5234TIP3    H237194   4.885   4.012   2.754 -1.4150 -1.3107  0.3598
 5235TIP3   OH237195   4.559   0.964  16.504  0.3341 -0.0948  0.3716
 5235TIP3    H137196   4.594   0.910  16.574  1.3625  0.5565  0.3821
 5235TIP3    H237197   4.630   0.967  16.439 -0.8190 -1.1890 -0.9801
 5236TIP3   OH237198   5.511   3.490  11.041  0.2138  0.0186  0.3566
 5236TIP3    H137199   5.431   3.469  10.994  0.3193  2.3011 -0.9146
 5236TIP3    H237200   5.529   3.412  11.094 -1.4453 -1.5023 -1.2398
 5237TIP3   OH237201   2.888   4.735   1.093 -0.1066  0.3579 -0.3095
 5237TIP3    H137202   2.821   4.797   1.120  0.6839  0.9327  0.3447
 5237TIP3    H237203   2.853   4.694   1.014 -1.3692  0.4088  0.2247
 5238TIP3   OH237204   1.709   0.807   6.318 -0.1732  0.0395 -0.5238
 5238TIP3    H137205   1.772   0.740   6.344  0.8259  0.8007 -0.9842
 5238TIP3    H237206   1.712   0.871   6.389  0.9874  1.0431 -1.4687
 5239TIP3   OH237207   5.116   4.291   2.272  0.2032 -0.0097 -0.4165
 5239TIP3    H137208   5.162   4.210   2.251 -0.1988 -0.4222  0.2617
 5239TIP3    H237209   5.034   4.285   2.223 -0.3919 -0.6146  0.6252
 5240TIP3   OH237210   1.891   4.738  13.759 -0.1572 -0.1630 -0.3019
 5240TIP3    H137211   1.877   4.824  13.720 -0.0565  0.5129  1.0993
 5240TIP3    H237212   1.956   4.753  13.828 -1.5938 -0.9447  1.2892
 5241TIP3   OH237213   0.098   5.606  15.401  0.5667  0.0017 -0.6764
 5241TIP3    H137214   0.010   5.618  15.366  1.0281  0.2158 -1.7786
 5241TIP3    H237215   0.094   5.524  15.449 -0.8601  1.1539  1.2548
 5242TIP3   OH237216   0.627   2.716   2.119 -0.7532 -0.6413 -0.1133
 5242TIP3    H137217   0.578   2.773   2.179  0.2654 -0.2036  0.3202
 5242TIP3    H237218   0.618   2.629   2.157  1.3042 -0.1413  1.6979
 5243TIP3   OH237219   2.582   0.584  17.255 -0.6375  0.0818 -0.8960
 5243TIP3    H137220   2.490   0.607  17.239 -1.1658 -0.2651  1.4318
 5243TIP3    H237221   2.595   0.602  17.348  0.4765 -3.6318 -0.2411
 5244TIP3   OH237222   5.173   3.085   1.389  0.2446  0.4213 -0.1884
 5244TIP3    H137223   5.106   3.061   1.325  1.8188 -0.5004 -1.5267
 5244TIP3    H237224   5.166   3.180   1.399 -1.3057  0.3169 -0.2389
 5245TIP3   OH237225   2.580   0.043  11.669  0.1570 -0.5735 -0.0580
 5245TIP3    H137226   2.578   0.006  11.757 -1.0076  0.5916  0.4151
 5245TIP3    H237227   2.490   0.072  11.653  0.5373 -0.0648 -1.3209
 5246TIP3   OH237228   5.145   0.947  12.209 -0.5459 -0.2224 -0.6729
 5246TIP3    H137229   5.141   1.039  12.238  0.3536  0.0581 -1.4012
 5246TIP3    H237230   5.141   0.952  12.114  0.2177 -0.8917 -0.7431
 5247TIP3   OH237231   1.840   6.543   2.789 -0.0736  0.6003 -0.5606
 5247TIP3    H137232   1.879   6.583   2.711  1.6358  0.7564  0.3412
 5247TIP3    H237233   1.813   6.617   2.843 -0.1460  0.5035 -0.4646
 5248TIP3   OH237234   4.299   5.322   4.671  0.6705 -0.0216 -0.2226
 5248TIP3    H137235   4.357   5.264   4.621 -0.0499 -0.5624 -0.4403
 5248TIP3    H237236   4.219   5.272   4.682  0.7299  0.1928  1.2716
 5249TIP3   OH237237   1.298   3.756   3.026 -0.8808  0.3545  0.0790
 5249TIP3    H137238   1.330   3.726   3.111 -0.6999 -0.2160 -0.1857
 5249TIP3    H237239   1.357   3.716   2.963  0.2026  2.3800 -0.2366
 5250TIP3   OH237240   1.446   4.820   4.968  1.0992  0.5201  0.0704
 5250TIP3    H137241   1.482   4.807   5.056 -0.9320  0.3786  0.9331
 5250TIP3    H237242   1.380   4.889   4.981 -0.1255 -0.4186 -1.0824
 5251TIP3   OH237243   6.105   6.495   3.245 -0.0474 -0.2145  0.7554
 5251TIP3    H137244   6.060   6.568   3.202  2.0629  0.8929  0.3185
 5251TIP3    H237245   6.092   6.510   3.338  0.2832  0.6807  0.6638
 5252TIP3   OH237246   0.527   5.431  10.558 -0.1307 -0.2763 -0.2191
 5252TIP3    H137247   0.614   5.457  10.527 -1.0492  1.8687 -1.0686
 5252TIP3    H237248   0.534   5.433  10.653  0.1653  2.0883 -0.2513
 5253TIP3   OH237249   4.071   0.653   0.294  0.2444 -0.7544  0.5970
 5253TIP3    H137250   4.155   0.676   0.332 -0.0661 -1.7267  1.9040
 5253TIP3    H237251   4.008   0.712   0.335  0.5711  1.5944 -2.1165
 5254TIP3   OH237252   0.383   2.313  16.831  0.1431 -0.3194 -0.2392
 5254TIP3    H137253   0.407   2.228  16.793 -1.8588 -0.8831 -0.3043
 5254TIP3    H237254   0.372   2.296  16.924  3.0452  0.6309  0.3332
 5255TIP3   OH237255   5.758   3.618  16.499  0.3220 -0.1136 -0.2170
 5255TIP3    H137256   5.793   3.582  16.417  0.0915  0.6983 -0.6723
 5255TIP3    H237257   5.833   3.662  16.540 -0.1549  1.7281 -1.2505
 5256TIP3   OH237258   1.154   0.760   5.224  0.1012  1.3317  0.0752
 5256TIP3    H137259   1.134   0.837   5.171  0.7402  0.7784 -1.0021
 5256TIP3    H237260   1.249   0.765   5.238 -0.1362  1.7532  1.6366
 5257TIP3   OH237261   2.653   2.345   4.600 -0.1286  0.8176 -0.7170
 5257TIP3    H137262   2.701   2.272   4.638  0.9608  1.3347 -1.0880
 5257TIP3    H237263   2.563   2.312   4.589  0.0293  0.0013  0.3910
 5258TIP3   OH237264   4.009   0.645  14.688  0.0563 -0.8154  0.1375
 5258TIP3    H137265   4.058   0.718  14.649 -0.4717 -0.3484  0.3289
 5258TIP3    H237266   3.947   0.619  14.620  0.7336 -1.5764 -0.2003
 5259TIP3   OH237267   2.623   1.309   5.594  0.3752 -0.2148  0.4317
 5259TIP3    H137268   2.697   1.257   5.623  1.0775  0.5772  0.0783
 5259TIP3    H237269   2.600   1.363   5.670  0.0114 -0.6273  0.6149
 5260TIP3   OH237270   3.821   6.813  13.338  0.5261 -0.0901 -0.1640
 5260TIP3    H137271   3.821   6.817  13.433  0.7204 -0.8973 -0.1246
 5260TIP3    H237272   3.869   6.732  13.317 -1.9329 -1.4204 -0.8711
 5261TIP3   OH237273   4.206   2.382  16.142  0.1146  0.1449  0.1424
 5261TIP3    H137274   4.264   2.456  16.159  0.2029 -0.2279  1.5434
 5261TIP3    H237275   4.253   2.329  16.077  0.3756  0.9423 -0.3175
 5262TIP3   OH237276   2.163   1.494  14.750 -0.6380  0.2187  0.3740
 5262TIP3    H137277   2.178   1.487  14.845  0.9730 -1.0360  0.0489
 5262TIP3    H237278   2.078   1.452  14.736 -0.4817 -0.3851  1.1679
 5263TIP3   OH237279   1.038   0.438  17.123 -0.2428  0.2315 -0.6824
 5263TIP3    H137280   1.072   0.378  17.189 -0.8796 -0.0090 -0.5690
 5263TIP3    H237281   1.078   0.410  17.041  1.9139  1.5998 -0.1459
 5264TIP3   OH237282   4.916   2.866   0.595  0.5055  0.1646  0.6197
 5264TIP3    H137283   4.923   2.783   0.641 -0.0792  0.1715  0.7301
 5264TIP3    H237284   4.962   2.928   0.652  0.4738  0.0185  0.8070
 5265TIP3   OH237285   3.991   4.903   2.613  0.0222  0.0892 -0.1480
 5265TIP3    H137286   3.923   4.925   2.676  0.7663 -1.5154  1.2652
 5265TIP3    H237287   4.002   4.982   2.560 -1.6674  0.9545  0.7619
 5266TIP3   OH237288   1.644   6.672   0.858  0.3860  0.0829  0.0153
 5266TIP3    H137289   1.643   6.736   0.929  0.0090 -1.4198  1.4108
 5266TIP3    H237290   1.610   6.719   0.782  1.4124  1.9015  0.6665
 5267TIP3   OH237291   3.717   1.811  11.558 -0.6967 -0.0679 -0.0777
 5267TIP3    H137292   3.775   1.744  11.594  0.3067 -0.4260 -2.2741
 5267TIP3    H237293   3.670   1.767  11.487 -1.2737  1.0988 -0.4331
 5268TIP3   OH237294   3.478   4.572   0.110 -0.2768 -0.2792  0.3744
 5268TIP3    H137295   3.488   4.602   0.200  1.0348 -3.7514  1.4654
 5268TIP3    H237296   3.568   4.561   0.078 -0.7178 -1.6948 -0.4208
 5269TIP3   OH237297   0.046   2.562   2.584 -0.1795 -0.4808 -0.3375
 5269TIP3    H137298   0.086   2.476   2.569  2.1365  0.8979 -2.5707
 5269TIP3    H237299   0.118   2.615   2.619 -1.4532  0.7206  0.5043
 5270TIP3   OH237300   2.903   4.758  14.079  0.2285  0.3208  0.2167
 5270TIP3    H137301   2.951   4.742  14.160  0.0324  1.4293  0.5629
 5270TIP3    H237302   2.825   4.806  14.107  1.0967  2.4003 -0.8353
 5271TIP3   OH237303   3.411   6.008  13.328 -0.5664 -0.0266  0.6434
 5271TIP3    H137304   3.324   6.034  13.298 -0.5975 -0.3596  0.4502
 5271TIP3    H237305   3.398   5.924  13.371 -0.3161 -0.1398  0.4977
 5272TIP3   OH237306   0.990   1.425  15.515  0.2038 -0.2351 -0.4628
 5272TIP3    H137307   0.980   1.519  15.500  0.5896 -0.0115  0.6202
 5272TIP3    H237308   0.905   1.388  15.492 -0.0985  0.4391 -0.4579
 5273TIP3   OH237309   3.474   4.147   1.309 -0.1697  0.4166  0.2067
 5273TIP3    H137310   3.541   4.172   1.372 -1.4749  0.9900  1.3874
 5273TIP3    H237311   3.392   4.175   1.349 -1.0014  1.0371 -1.8761
 5274TIP3   OH237312   6.067   1.285   2.561 -0.1382 -0.2376 -0.1394
 5274TIP3    H137313   5.988   1.270   2.509 -0.6870  0.5072  0.4684
 5274TIP3    H237314   6.113   1.201   2.559  0.3072  0.0304 -2.5619
 5275TIP3   OH237315   2.950   1.972  11.225 -0.4914  0.3928 -0.6859
 5275TIP3    H137316   2.934   2.062  11.195  1.4987  1.4297  1.1921
 5275TIP3    H237317   3.037   1.951  11.192  1.0332  0.9413  2.7422
 5276TIP3   OH237318   6.328   0.623  13.909 -0.1844  0.0773 -0.3449
 5276TIP3    H137319   6.326   0.549  13.849 -1.1487  0.3189 -0.6297
 5276TIP3    H237320   6.416   0.622  13.947 -0.0967 -1.0260 -0.5675
 5277TIP3   OH237321   5.573   4.285  17.041  0.3523  0.2211 -0.2613
 5277TIP3    H137322   5.663   4.301  17.013  0.0040  1.8387 -0.5365
 5277TIP3    H237323   5.572   4.308  17.134  0.4639 -0.8009 -0.0072
 5278TIP3   OH237324   6.235   3.913  15.611 -0.1209  0.1186 -0.1128
 5278TIP3    H137325   6.167   3.974  15.583 -1.0302 -0.5622  0.5641
 5278TIP3    H237326   6.248   3.855  15.536 -2.1842 -1.3881  0.6584
 5279TIP3   OH237327   3.040   0.259   1.955 -0.1296 -0.4735  0.2949
 5279TIP3    H137328   3.034   0.164   1.964 -0.8305 -0.4758 -0.1144
 5279TIP3    H237329   3.111   0.284   2.013 -0.5890 -1.1354  1.1539
 5280TIP3   OH237330   4.821   6.057  15.859  0.1480  0.3353  0.0991
 5280TIP3    H137331   4.905   6.102  15.858 -0.1869  0.9884  1.5068
 5280TIP3    H237332   4.776   6.089  15.781  1.5154 -0.6486 -1.1340
 5281TIP3   OH237333   6.772   0.459   0.565 -0.2162 -0.3510  0.3414
 5281TIP3    H137334   6.818   0.420   0.491 -0.2172 -1.6918  1.0303
 5281TIP3    H237335   6.760   0.551   0.541 -1.2280 -1.0140 -1.8268
 5282TIP3   OH237336   5.375   4.578  14.060 -0.4426  0.4949  0.4909
 5282TIP3    H137337   5.455   4.585  14.113 -0.2707  0.9582  0.1716
 5282TIP3    H237338   5.367   4.664  14.019 -0.4836  0.0763 -0.3706
 5283TIP3   OH237339   5.589   3.121  11.592  0.0284  0.0510 -0.1462
 5283TIP3    H137340   5.671   3.081  11.618  0.7442  0.2633 -1.9780
 5283TIP3    H237341   5.521   3.063  11.627  1.0104 -1.7046 -1.1194
 5284TIP3   OH237342   1.061   6.782   2.450  0.2740  0.2065  0.4319
 5284TIP3    H137343   1.089   6.856   2.504 -0.0361 -0.0674  0.9753
 5284TIP3    H237344   0.998   6.735   2.505  0.6065 -0.5629  0.1523
 5285TIP3   OH237345   0.912   4.710  11.079 -0.2757 -0.7407 -0.1254
 5285TIP3    H137346   0.844   4.754  11.028 -0.2829 -0.4104  0.1672
 5285TIP3    H237347   0.863   4.666  11.149 -0.1961 -0.5806  0.0304
 5286TIP3   OH237348   2.556   6.308  16.124  0.1607  0.2533  0.0765
 5286TIP3    H137349   2.507   6.330  16.045  0.5717 -1.0674 -0.5576
 5286TIP3    H237350   2.608   6.386  16.143 -1.7790  1.4788  0.4665
 5287TIP3   OH237351   3.039   4.985   1.818 -0.6629 -0.1090 -0.6879
 5287TIP3    H137352   3.097   5.036   1.762 -0.8387  0.3819 -0.4317
 5287TIP3    H237353   2.951   5.007   1.788 -0.8725  2.2365  1.5021
 5288TIP3   OH237354   5.842   1.997   1.813 -0.0256 -0.7604  0.3710
 5288TIP3    H137355   5.763   2.050   1.801  0.3309 -0.1109  0.8546
 5288TIP3    H237356   5.844   1.939   1.737  0.0469  0.5174 -0.6140
 5289TIP3   OH237357   3.505   3.743  17.268  0.0367  0.1785 -0.1961
 5289TIP3    H137358   3.411   3.729  17.276  0.2004 -0.8923 -0.0272
 5289TIP3    H237359   3.538   3.728  17.357  0.2670  1.3780 -0.0725
 5290TIP3   OH237360   2.721   0.433   0.557  0.0134 -0.3120  0.4645
 5290TIP3    H137361   2.798   0.381   0.580 -0.2263 -0.9281 -0.0926
 5290TIP3    H237362   2.650   0.396   0.610 -0.3428 -1.1388 -0.5623
 5291TIP3   OH237363   6.611   1.703  17.063 -0.5015 -0.1260 -0.0355
 5291TIP3    H137364   6.601   1.665  16.976 -0.0063 -1.7046  0.5858
 5291TIP3    H237365   6.660   1.638  17.113 -0.8057  0.7413  1.4429
 5292TIP3   OH237366   0.750   4.563  11.280 -0.0888 -0.0772  0.1854
 5292TIP3    H137367   0.700   4.482  11.273  1.0120 -0.9616  2.0248
 5292TIP3    H237368   0.723   4.601  11.363  0.4830  0.6859  0.0307
 5293TIP3   OH237369   5.294   2.431   4.698 -0.1470 -0.4862  0.4462
 5293TIP3    H137370   5.360   2.377   4.654 -0.8664 -1.8625  1.0168
 5293TIP3    H237371   5.277   2.503   4.637  2.0836  0.0553  0.4348
 5294TIP3   OH237372   3.306   0.563   5.342 -0.1425  0.3776  0.6501
 5294TIP3    H137373   3.258   0.630   5.392 -0.7963  0.2702  0.1657
 5294TIP3    H237374   3.282   0.480   5.384 -0.0070  0.3649  0.7035
 5295TIP3   OH237375   1.818   0.990   0.878  0.4659  0.3162 -0.0759
 5295TIP3    H137376   1.903   0.947   0.877  1.0005  1.3865 -1.0200
 5295TIP3    H237377   1.835   1.076   0.917 -0.6888 -0.5013  2.3194
 5296TIP3   OH237378   4.104   3.873  11.622  0.1244  0.0853 -0.3446
 5296TIP3    H137379   4.062   3.869  11.708  0.3862 -1.0662 -0.2659
 5296TIP3    H237380   4.095   3.965  11.596 -1.0801  0.1775  0.3425
 5297TIP3   OH237381   5.928   5.891   2.980 -0.4238 -0.3300 -0.2798
 5297TIP3    H137382   5.932   5.821   3.045  1.9403 -0.1102 -0.1419
 5297TIP3    H237383   5.900   5.847   2.899 -2.3854 -0.7733  0.6155
 5298TIP3   OH237384   6.300   4.167  10.792  0.2366 -0.5809 -0.5365
 5298TIP3    H137385   6.328   4.082  10.758  1.0798  0.3378 -2.2020
 5298TIP3    H237386   6.316   4.162  10.886 -0.1603 -2.4205 -0.5507
 5299TIP3   OH237387   0.262   5.693   1.745 -0.4336  0.3219 -0.2971
 5299TIP3    H137388   0.190   5.631   1.759  1.2773 -1.2839  1.7905
 5299TIP3    H237389   0.333   5.640   1.708 -0.0045  1.7010 -1.4855
 5300TIP3   OH237390   3.874   0.886  12.775 -0.0810  0.3510 -0.1999
 5300TIP3    H137391   3.802   0.855  12.719 -0.5710  2.5144 -0.8341
 5300TIP3    H237392   3.832   0.912  12.857  0.3685 -0.9658  0.4543
 5301TIP3   OH237393   0.087   6.270   1.113 -0.0385  0.3599 -0.1753
 5301TIP3    H137394   0.037   6.189   1.110  0.7556 -0.1150 -0.5587
 5301TIP3    H237395   0.156   6.254   1.176  0.1696  0.7084 -0.3130
 5302TIP3   OH237396   5.420   1.320  13.902  0.7448  0.2122 -0.2325
 5302TIP3    H137397   5.376   1.375  13.967  2.0241  0.0644  0.7839
 5302TIP3    H237398   5.437   1.379  13.829  1.3896  0.9812  0.5246
 5303TIP3   OH237399   5.929   0.222  11.531 -0.2207 -0.2798  0.0378
 5303TIP3    H137400   5.846   0.183  11.558 -0.7702  0.7975 -0.1033
 5303TIP3    H237401   5.981   0.227  11.611 -0.9576  0.7044  0.4487
 5304TIP3   OH237402   4.711   4.200   1.652 -0.0812 -0.6672 -0.0069
 5304TIP3    H137403   4.800   4.199   1.689 -0.2532 -2.5540  0.4071
 5304TIP3    H237404   4.660   4.251   1.715  0.5232 -0.3003  0.1953
 5305TIP3   OH237405   6.655   3.241   0.661  0.1141  0.7426  0.0594
 5305TIP3    H137406   6.661   3.299   0.585 -0.9395  1.3111  0.4001
 5305TIP3    H237407   6.646   3.154   0.624  0.3161  0.9429 -0.4674
 5306TIP3   OH237408   0.712   4.311   3.121 -0.2895  0.5221 -0.1892
 5306TIP3    H137409   0.711   4.221   3.087 -2.0650 -0.0853  1.3642
 5306TIP3    H237410   0.801   4.323   3.154 -0.0391 -0.6670 -0.4002
 5307TIP3   OH237411   0.627   3.463  13.615 -0.1119 -0.2756  0.0849
 5307TIP3    H137412   0.621   3.419  13.530 -2.1587 -1.7492  0.9390
 5307TIP3    H237413   0.648   3.393  13.677 -1.0409  0.3566  1.1395
 5308TIP3   OH237414   3.924   1.295   3.256 -0.0827 -0.4889 -0.2189
 5308TIP3    H137415   3.844   1.265   3.300 -0.6048 -0.0121 -0.8368
 5308TIP3    H237416   3.994   1.274   3.318 -0.5128 -2.3040 -0.3142
 5309TIP3   OH237417   1.427   1.305   4.416 -0.1337  0.1740  0.8930
 5309TIP3    H137418   1.417   1.238   4.348 -2.6365 -0.7017  2.0400
 5309TIP3    H237419   1.500   1.359   4.386  1.2071 -2.3828 -0.6282
 5310TIP3   OH237420   1.627   1.693  16.284 -1.0544  0.1939 -0.4809
 5310TIP3    H137421   1.552   1.666  16.231  0.1962 -0.3248 -2.0115
 5310TIP3    H237422   1.691   1.623  16.271 -0.1481  0.8326  0.4986
 5311TIP3   OH237423   4.757   2.899   2.739 -0.7302 -0.7742 -0.4518
 5311TIP3    H137424   4.665   2.914   2.719 -0.9828 -0.7089  0.7075
 5311TIP3    H237425   4.778   2.817   2.694 -1.4961 -1.0481 -0.3288
 5312TIP3   OH237426   0.291   1.900  12.025  0.4218  0.2262 -0.4118
 5312TIP3    H137427   0.240   1.980  12.012 -1.2404 -0.5605  1.0666
 5312TIP3    H237428   0.375   1.918  11.981 -0.5998  2.0549 -1.7074
 5313TIP3   OH237429   1.278   6.647  10.638 -0.1839 -0.0894  0.3691
 5313TIP3    H137430   1.355   6.597  10.610 -0.0538  0.7993 -0.9156
 5313TIP3    H237431   1.288   6.655  10.733  1.1817 -0.2193  0.2477
 5314TIP3   OH237432   1.945   4.764   4.358  0.2262 -0.2987 -0.4929
 5314TIP3    H137433   1.856   4.762   4.393  1.1858 -0.5015  2.0341
 5314TIP3    H237434   1.935   4.738   4.266 -2.1765 -1.3992  0.0352
 5315TIP3   OH237435   5.576   2.067  11.214  0.4324 -0.2576  0.1653
 5315TIP3    H137436   5.539   2.026  11.135 -0.7987 -0.6925  0.9564
 5315TIP3    H237437   5.511   2.133  11.239  0.4977 -0.5765  1.1918
 5316TIP3   OH237438   5.071   3.685  12.111  0.1147  0.1158  0.7162
 5316TIP3    H137439   4.979   3.680  12.085 -0.3104 -0.0228  2.2084
 5316TIP3    H237440   5.119   3.678  12.029 -1.2144  0.8196 -0.1485
 5317TIP3   OH237441   5.441   3.223  11.386  0.0102 -0.2468  0.2371
 5317TIP3    H137442   5.402   3.297  11.433  2.0097  0.0390  1.4722
 5317TIP3    H237443   5.500   3.183  11.449 -1.2489 -3.1104 -0.3161
 5318TIP3   OH237444   2.013   0.279  15.687  0.4133  0.1859 -0.2987
 5318TIP3    H137445   1.951   0.332  15.738  0.4661  0.1222 -0.1685
 5318TIP3    H237446   2.088   0.337  15.674  0.2840  0.3003 -0.5480
 5319TIP3   OH237447   1.183   0.286  11.814  0.5472  0.6251  0.1954
 5319TIP3    H137448   1.151   0.248  11.896  1.6009  1.3535  0.9559
 5319TIP3    H237449   1.120   0.257  11.748 -1.7455  2.1047  1.6594
 5320TIP3   OH237450   3.229   5.118  13.857 -0.6864 -0.4708 -0.4732
 5320TIP3    H137451   3.212   5.212  13.856 -0.3713 -0.4061  0.0862
 5320TIP3    H237452   3.144   5.079  13.879 -0.2939 -0.1744  1.7399
 5321TIP3   OH237453   0.691   0.949  13.799  0.0994  0.0854  0.2214
 5321TIP3    H137454   0.703   1.043  13.787  0.9143 -0.0294  0.1682
 5321TIP3    H237455   0.643   0.921  13.721 -1.3861  0.6919  0.8820
 5322TIP3   OH237456   6.394   6.470   5.472 -0.3475  0.4284  0.5931
 5322TIP3    H137457   6.315   6.490   5.421  0.8540  2.0918 -0.6908
 5322TIP3    H237458   6.368   6.483   5.563 -1.6007  0.7840  0.2013
 5323TIP3   OH237459   2.428   5.125  14.166 -0.3675 -0.6960  0.2201
 5323TIP3    H137460   2.391   5.037  14.159  0.3344 -1.1669  2.0939
 5323TIP3    H237461   2.385   5.163  14.243  0.5770 -0.0295  0.4246
 5324TIP3   OH237462   5.000   6.383  15.490  0.4465  0.2998  0.6718
 5324TIP3    H137463   5.009   6.448  15.420  1.3062 -0.5582 -0.0268
 5324TIP3    H237464   5.009   6.299  15.445 -0.5716 -0.3005  1.5895
 5325TIP3   OH237465   6.545   3.963   1.858  0.1894 -0.3660 -0.2711
 5325TIP3    H137466   6.465   3.916   1.882  0.3402 -0.5934 -0.2162
 5325TIP3    H237467   6.560   4.024   1.930  0.0943 -0.3611 -0.2556
 5326TIP3   OH237468   3.730   2.942  14.410 -0.2172  0.1266 -0.2052
 5326TIP3    H137469   3.683   3.014  14.368 -0.1223 -0.6215 -1.5825
 5326TIP3    H237470   3.822   2.962  14.395 -0.2099 -0.7402 -1.3627
 5327TIP3   OH237471   4.601   1.067  10.595 -0.9543 -0.2224 -0.4611
 5327TIP3    H137472   4.512   1.083  10.563 -1.5379 -0.9327  0.7892
 5327TIP3    H237473   4.610   0.972  10.593 -0.3417 -0.1663 -0.2790
 5328TIP3   OH237474   1.327   3.249   4.262  0.2020 -0.3619 -0.3416
 5328TIP3    H137475   1.306   3.328   4.312  0.2733 -1.0378  0.7864
 5328TIP3    H237476   1.319   3.275   4.170  1.2974  1.2412  0.0043
 5329TIP3   OH237477   4.634   1.981   2.373  0.4166  0.3145 -0.4832
 5329TIP3    H137478   4.610   1.895   2.339 -0.1549  0.0139  0.6569
 5329TIP3    H237479   4.691   1.963   2.448  1.9216  0.9761 -1.4368
 5330TIP3   OH237480   0.295   1.550   1.728 -0.1233 -0.4187 -0.1435
 5330TIP3    H137481   0.250   1.467   1.719  0.1119 -0.5779  0.1287
 5330TIP3    H237482   0.227   1.616   1.714 -0.4104 -0.6573  0.1230
 5331TIP3   OH237483   4.915   1.568  14.080  0.1211  0.2707  0.8344
 5331TIP3    H137484   4.821   1.572  14.092 -0.0776  0.2466 -0.6361
 5331TIP3    H237485   4.951   1.627  14.147 -0.8770 -0.2947  1.8814
 5332TIP3   OH237486   3.113   4.528  16.183 -0.2643 -0.0088  0.1564
 5332TIP3    H137487   3.037   4.564  16.138  0.8758 -0.6446 -2.3490
 5332TIP3    H237488   3.171   4.499  16.113  2.2180  0.3060  2.0113
 5333TIP3   OH237489   0.234   5.310   2.432 -0.0303 -0.4087  0.2593
 5333TIP3    H137490   0.329   5.319   2.435 -0.1023  0.1724  0.9902
 5333TIP3    H237491   0.201   5.397   2.457 -0.7609 -1.0621  1.6278
 5334TIP3   OH237492   2.685   2.037  11.384 -0.3607  0.0540  0.3772
 5334TIP3    H137493   2.615   1.973  11.400 -0.7431  0.2632 -0.4622
 5334TIP3    H237494   2.758   2.005  11.437 -0.8039 -0.6401  0.5881
 5335TIP3   OH237495   3.505   1.126  12.162 -0.5590  0.4455  0.2965
 5335TIP3    H137496   3.578   1.165  12.209  0.0528 -3.1231  2.5244
 5335TIP3    H237497   3.499   1.176  12.080  2.9145  2.2461  1.0574
 5336TIP3   OH237498   0.236   4.252  15.898  0.3258 -0.4286  0.3444
 5336TIP3    H137499   0.162   4.312  15.904 -0.1798 -1.0777  0.6091
 5336TIP3    H237500   0.267   4.261  15.808 -1.7344 -2.1031 -0.5785
 5337TIP3   OH237501   3.164   6.057   1.927 -0.0578 -0.4890 -0.0700
 5337TIP3    H137502   3.148   6.042   2.021  0.7465  0.8811  0.2931
 5337TIP3    H237503   3.193   6.148   1.921  0.6712 -0.7986 -1.5564
 5338TIP3   OH237504   2.016   2.420   5.239  0.0857  0.4285 -0.0279
 5338TIP3    H137505   1.988   2.478   5.169 -2.5307 -0.7050  0.0415
 5338TIP3    H237506   2.056   2.478   5.304 -0.0425  1.8141 -1.1628
 5339TIP3   OH237507   4.811   3.564  12.725 -0.2467 -0.0593 -0.5450
 5339TIP3    H137508   4.752   3.489  12.720 -1.1931  0.7493 -1.9378
 5339TIP3    H237509   4.800   3.597  12.814 -2.1110  0.2098 -0.8361
 5340TIP3   OH237510   3.550   1.998  12.210 -0.0238 -0.4955 -0.6090
 5340TIP3    H137511   3.590   2.085  12.219 -0.5545 -0.3471  0.3809
 5340TIP3    H237512   3.517   1.978  12.297 -0.2993 -1.5052 -0.9437
 5341TIP3   OH237513   0.518   3.415  15.896 -0.9495  0.3116 -0.3473
 5341TIP3    H137514   0.438   3.440  15.851 -0.9241  0.1057 -0.5101
 5341TIP3    H237515   0.488   3.368  15.974 -0.9821 -0.3715 -0.7651
 5342TIP3   OH237516   1.377   6.049  11.468  0.1201 -1.1943  0.0419
 5342TIP3    H137517   1.331   6.071  11.387  2.6476  0.3863 -1.0381
 5342TIP3    H237518   1.308   6.047  11.534 -1.7855 -0.9902 -1.8651
 5343TIP3   OH237519   5.385   0.230  16.506 -0.2229  0.4281 -0.6068
 5343TIP3    H137520   5.385   0.179  16.425  2.2210  1.1290 -1.1012
 5343TIP3    H237521   5.430   0.174  16.570 -2.6179 -0.3429  0.4406
 5344TIP3   OH237522   1.569   4.460  13.336  0.9174  0.3136 -0.4908
 5344TIP3    H137523   1.558   4.530  13.401 -1.7603 -0.8925  0.3913
 5344TIP3    H237524   1.642   4.408  13.370  1.4200  1.3304  0.0382
 5345TIP3   OH237525   4.358   3.439  14.406 -0.4500  0.2571 -0.4279
 5345TIP3    H137526   4.411   3.517  14.391  0.3239  0.0222  0.9504
 5345TIP3    H237527   4.416   3.379  14.452 -0.8649 -1.3628 -1.9515
 5346TIP3   OH237528   5.791   2.689   0.359 -0.5070  0.4109  0.4164
 5346TIP3    H137529   5.770   2.755   0.425 -0.6555  1.1798 -0.3839
 5346TIP3    H237530   5.885   2.672   0.371 -0.2384  1.5424 -0.0624
 5347TIP3   OH237531   4.331   0.742  11.737 -0.5069  0.0364 -0.0495
 5347TIP3    H137532   4.237   0.726  11.741 -0.6562  0.8862 -0.1899
 5347TIP3    H237533   4.351   0.743  11.643 -0.4678  0.4938 -0.0373
 5348TIP3   OH237534   0.126   3.412  13.596  0.5199 -0.2375  0.0304
 5348TIP3    H137535   0.209   3.387  13.636 -0.2451 -0.3562  1.5433
 5348TIP3    H237536   0.079   3.460  13.664 -0.7655 -0.3759 -0.7368
 5349TIP3   OH237537   3.208   1.337  12.223  0.0019 -0.0178 -0.0553
 5349TIP3    H137538   3.129   1.328  12.170 -0.7482  2.0983  0.6662
 5349TIP3    H237539   3.273   1.373  12.163  0.2064 -0.9722 -0.4270
 5350TIP3   OH237540   6.813   0.740   4.893 -0.2021 -0.2703  0.0238
 5350TIP3    H137541   6.778   0.692   4.967  0.1578  0.3116  0.5815
 5350TIP3    H237542   6.753   0.722   4.821  0.1491 -1.8579  0.1211
 5351TIP3   OH237543   5.636   3.054   2.375 -0.5601 -0.7692  0.0811
 5351TIP3    H137544   5.596   3.122   2.322 -0.0818 -0.4628  0.1119
 5351TIP3    H237545   5.696   3.009   2.316 -0.5441 -0.8776  0.1773
 5352TIP3   OH237546   4.525   2.078  13.461  0.5324  0.1065  0.6253
 5352TIP3    H137547   4.443   2.129  13.460 -0.4071 -1.3752  0.9842
 5352TIP3    H237548   4.525   2.033  13.376  0.8174 -0.1606  0.7708
 5353TIP3   OH237549   5.676   0.853   3.275  0.0895 -0.2631 -0.1279
 5353TIP3    H137550   5.664   0.888   3.364 -0.5674 -2.8074  0.8315
 5353TIP3    H237551   5.766   0.822   3.274  0.7667  1.6449 -1.0782
 5354TIP3   OH237552   3.921   6.379   4.860  0.1346  0.5673 -0.1091
 5354TIP3    H137553   4.015   6.359   4.856  0.4340  1.6645  0.9409
 5354TIP3    H237554   3.879   6.308   4.813  1.4480 -0.3195  0.0277
 5355TIP3   OH237555   0.974   0.142   5.128 -0.1658  0.0418  0.5655
 5355TIP3    H137556   1.045   0.195   5.164  1.0801 -0.3643 -1.2331
 5355TIP3    H237557   1.017   0.061   5.100 -0.9907  0.5863 -2.3810
 5356TIP3   OH237558   4.309   1.331  16.917  0.1222 -0.0524  0.0600
 5356TIP3    H137559   4.335   1.367  17.002 -1.4200  2.4061 -0.4627
 5356TIP3    H237560   4.343   1.394  16.854  1.4133 -1.9572 -1.1892
 5357TIP3   OH237561   5.794   4.198  11.754 -0.3638  0.0951 -0.3382
 5357TIP3    H137562   5.820   4.130  11.692 -0.3659 -0.9017  0.7408
 5357TIP3    H237563   5.700   4.209  11.740 -0.6054 -1.0246  0.3475
 5358TIP3   OH237564   1.499   1.593  15.893 -0.0780 -0.3103  0.1031
 5358TIP3    H137565   1.455   1.677  15.880  0.6467  0.4150  2.1412
 5358TIP3    H237566   1.487   1.574  15.986  1.1591 -1.6759 -0.0028
 5359TIP3   OH237567   1.956   0.316   3.527  0.4706 -0.4246  0.8518
 5359TIP3    H137568   1.906   0.277   3.598  3.0257 -0.5657  2.6102
 5359TIP3    H237569   1.949   0.410   3.541 -0.6337 -0.3900  0.1369
 5360TIP3   OH237570   0.058   5.770   3.069 -0.0007  0.3412 -0.0095
 5360TIP3    H137571   0.017   5.767   2.983  0.1006  2.0579 -0.1489
 5360TIP3    H237572  -0.012   5.749   3.130 -0.9218  2.3849 -0.3057
 5361TIP3   OH237573   4.206   2.987   5.757 -0.0346  0.9525  0.2417
 5361TIP3    H137574   4.124   3.030   5.734 -1.4537 -0.0619  3.2072
 5361TIP3    H237575   4.248   3.046   5.819  1.2107  1.1679 -0.7861
 5362TIP3   OH237576   3.942   1.798   5.340  0.3510 -0.2084  0.2211
 5362TIP3    H137577   3.885   1.869   5.309 -1.2465 -1.1143  0.9861
 5362TIP3    H237578   4.022   1.842   5.368 -0.8540  1.3826  1.2958
 5363TIP3   OH237579   1.543   4.640  14.751 -0.0002  0.0287  0.1404
 5363TIP3    H137580   1.585   4.595  14.824  1.1474  0.1906 -0.4187
 5363TIP3    H237581   1.541   4.575  14.680  1.7023  0.8573 -0.6869
 5364TIP3   OH237582   0.935   2.668  14.301 -0.7067 -0.0685 -0.2406
 5364TIP3    H137583   0.841   2.661  14.319 -0.8131  1.5271 -0.1751
 5364TIP3    H237584   0.960   2.579  14.276 -1.8929 -0.8829  1.3524
 5365TIP3   OH237585   0.033   4.329  15.535 -0.5041  0.2525  0.2718
 5365TIP3    H137586  -0.038   4.277  15.573  0.6250 -2.0368 -0.6689
 5365TIP3    H237587   0.044   4.295  15.446  2.8142 -0.5983  0.9083
 5366TIP3   OH237588   5.496   2.296   4.540  0.4647  0.4623 -0.4442
 5366TIP3    H137589   5.583   2.317   4.575  0.1338  0.9177  0.1320
 5366TIP3    H237590   5.494   2.340   4.455  0.6402  0.8121 -0.2707
 5367TIP3   OH237591   2.805   5.607   4.246 -0.3832  0.4010 -0.4533
 5367TIP3    H137592   2.809   5.543   4.175 -0.9556 -0.0562 -0.0877
 5367TIP3    H237593   2.753   5.679   4.211 -1.1069 -0.0488 -0.3413
 5368TIP3   OH237594   4.971   5.708  13.706  0.6485 -0.4479 -0.3436
 5368TIP3    H137595   5.066   5.711  13.693  1.0231 -1.3998  1.8951
 5368TIP3    H237596   4.959   5.652  13.782 -1.7161 -0.1367 -0.4426
 5369TIP3   OH237597   3.381   4.959  17.025  0.2163 -0.5242  0.0585
 5369TIP3    H137598   3.457   4.953  16.967 -0.2605 -1.1345 -0.5047
 5369TIP3    H237599   3.361   4.868  17.048  0.6961 -0.2541  1.5633
 5370TIP3   OH237600   3.275   5.099  12.225 -0.3754 -0.2451  0.2693
 5370TIP3    H137601   3.295   5.076  12.316 -1.4349 -0.1477  0.5284
 5370TIP3    H237602   3.202   5.042  12.201  0.5246 -0.9657 -0.8513
 5371TIP3   OH237603   0.397   1.550   6.473 -0.2111  0.2733 -0.4524
 5371TIP3    H137604   0.481   1.515   6.444 -0.8602 -0.7584 -1.1299
 5371TIP3    H237605   0.410   1.573   6.565  0.8178  0.1716 -0.5712
 5372TIP3   OH237606   0.896   3.566   2.424 -0.5615 -0.8982 -0.0911
 5372TIP3    H137607   0.916   3.616   2.345 -1.5326 -0.7792 -0.2703
 5372TIP3    H237608   0.980   3.529   2.451  0.5391  2.1856  0.9791
 5373TIP3   OH237609   4.247   1.182   6.698 -0.0084  0.8880  0.0711
 5373TIP3    H137610   4.204   1.106   6.736 -0.5122  1.2924  0.3247
 5373TIP3    H237611   4.177   1.246   6.686  0.6435  1.8364  1.1906
 5374TIP3   OH237612   2.604   3.455  13.834 -0.5888  0.1734 -0.1017
 5374TIP3    H137613   2.588   3.449  13.740 -1.9158  1.4413  0.0249
 5374TIP3    H237614   2.633   3.545  13.849  1.0462 -0.4324  0.5162
 5375TIP3   OH237615   1.901   2.460   4.035  0.1111 -0.3638 -0.5996
 5375TIP3    H137616   1.834   2.527   4.044  0.2561  0.1773 -3.3847
 5375TIP3    H237617   1.865   2.397   3.972  0.6614 -2.0647  0.7314
 5376TIP3   OH237618   0.678   3.823  16.832  0.1584 -0.8046 -0.7497
 5376TIP3    H137619   0.651   3.884  16.763 -0.5239 -1.6630 -1.2559
 5376TIP3    H237620   0.750   3.773  16.793  1.4280  0.4006  0.0434
 5377TIP3   OH237621   3.170   0.771  15.787  0.0818  0.1761 -0.4839
 5377TIP3    H137622   3.082   0.779  15.749 -0.5124  1.4302  1.0663
 5377TIP3    H237623   3.229   0.794  15.715 -0.7668 -1.9971 -1.9262
 5378TIP3   OH237624   3.197   3.615   5.016  0.5176 -0.2334 -0.2668
 5378TIP3    H137625   3.207   3.707   4.995 -0.0074 -0.1316 -0.0783
 5378TIP3    H237626   3.103   3.600   5.016  0.5222 -0.3059  1.6871
 5379TIP3   OH237627   6.354   0.210  16.993  0.5004  1.2892 -0.0856
 5379TIP3    H137628   6.309   0.146  17.049 -1.0665  1.9566 -0.5368
 5379TIP3    H237629   6.283   0.251  16.944  1.8752  0.5267 -2.7697
 5380TIP3   OH237630   1.114   3.686  14.593 -0.1843 -0.1280  0.9567
 5380TIP3    H137631   1.070   3.706  14.675 -0.7412 -0.4833  0.7492
 5380TIP3    H237632   1.166   3.764  14.573 -2.9403  1.4903 -0.2566
 5381TIP3   OH237633   4.852   3.318   5.199  0.0697 -0.2374  0.0413
 5381TIP3    H137634   4.839   3.237   5.247  0.4124 -1.1384 -1.3569
 5381TIP3    H237635   4.834   3.387   5.263 -0.5791 -1.4045  1.1407
 5382TIP3   OH237636   2.053   1.078  15.428  0.0279  0.0622  0.6233
 5382TIP3    H137637   1.959   1.067  15.416  0.2443 -2.1544  0.8770
 5382TIP3    H237638   2.062   1.168  15.461 -1.9539  0.4027  0.3099
 5383TIP3   OH237639   6.510   1.168   0.081 -0.2406 -0.1879  0.6398
 5383TIP3    H137640   6.503   1.240   0.144  1.1887 -0.7356  1.4664
 5383TIP3    H237641   6.576   1.198   0.018 -0.6378 -0.2251  0.2019
 5384TIP3   OH237642   3.513   0.030  16.726  0.5320 -0.6048  0.0039
 5384TIP3    H137643   3.545  -0.011  16.646 -1.0885  0.6041 -1.3153
 5384TIP3    H237644   3.418   0.015  16.724  0.2167  1.1076  0.6811
 5385TIP3   OH237645   1.166   5.763  14.860 -0.5836  1.0171  0.5789
 5385TIP3    H137646   1.144   5.760  14.953  0.1972  1.0609  0.7693
 5385TIP3    H237647   1.105   5.702  14.819 -0.4875  0.4931  1.2063
 5386TIP3   OH237648   0.421   3.063  12.473 -0.1232  0.4852  0.2630
 5386TIP3    H137649   0.375   3.135  12.429 -1.7293 -0.5666  0.1608
 5386TIP3    H237650   0.389   2.984  12.428  0.4325 -0.4000  1.3986
 5387TIP3   OH237651   2.477   4.717  14.791 -0.1859  0.7410 -0.3132
 5387TIP3    H137652   2.513   4.719  14.879  2.4249  0.5382 -1.3305
 5387TIP3    H237653   2.478   4.625  14.766 -1.4823  0.7251 -0.3601
 5388TIP3   OH237654   2.441   1.006   3.604  0.1421  0.2041 -0.3264
 5388TIP3    H137655   2.435   0.911   3.595  1.4306 -0.0355  1.1199
 5388TIP3    H237656   2.399   1.026   3.687 -0.3020  0.9338 -0.7180
 5389TIP3   OH237657   2.334   2.066  14.803  0.1008  0.4480 -0.0252
 5389TIP3    H137658   2.406   2.072  14.866 -0.4742 -3.5031  1.1732
 5389TIP3    H237659   2.378   2.051  14.719  0.7558 -0.2580  0.4267
 5390TIP3   OH237660   2.094   3.137   3.955  0.1377 -0.5577 -0.5489
 5390TIP3    H137661   2.032   3.195   3.999  0.8020  0.5775 -1.0860
 5390TIP3    H237662   2.041   3.066   3.921 -0.6362 -0.4723  0.4737
 5391TIP3   OH237663   6.405   0.889  11.820 -0.1712  0.2008 -0.2770
 5391TIP3    H137664   6.443   0.974  11.798 -0.6809  0.5796  0.2868
 5391TIP3    H237665   6.356   0.863  11.742 -1.8958  1.4920  0.3331
 5392TIP3   OH237666   0.853   1.099   1.174  0.8528 -0.4895 -0.3783
 5392TIP3    H137667   0.929   1.049   1.200  1.3458 -0.0937 -1.0282
 5392TIP3    H237668   0.811   1.125   1.256  1.2085 -1.0172 -0.0306
 5393TIP3   OH237669   5.539   6.176  13.929  0.6128 -0.4454 -0.4499
 5393TIP3    H137670   5.508   6.257  13.969  0.5267 -1.7774  2.3250
 5393TIP3    H237671   5.632   6.191  13.913  0.7240  0.0404  0.5817
 5394TIP3   OH237672   5.604   5.395   1.442 -0.1165  0.4754 -0.2792
 5394TIP3    H137673   5.521   5.351   1.456 -0.6523  0.2489 -3.6158
 5394TIP3    H237674   5.586   5.488   1.459 -1.3076  0.5443 -1.7959
 5395TIP3   OH237675   0.018   1.630  13.649 -0.4952  0.1701 -0.0632
 5395TIP3    H137676  -0.005   1.558  13.707 -2.4788  1.1528  0.4121
 5395TIP3    H237677   0.113   1.639  13.659 -0.3285 -1.8812  0.4143
 5396TIP3   OH237678   3.028   5.227   4.532  0.0247 -0.1837  0.1500
 5396TIP3    H137679   3.033   5.273   4.448  0.5555  0.4507  0.5255
 5396TIP3    H237680   3.103   5.168   4.531  0.3331  0.2056  0.4034
 5397TIP3   OH237681   4.691   6.793  16.183 -0.0906 -0.3021 -0.5123
 5397TIP3    H137682   4.616   6.845  16.212 -0.2844 -1.0555  0.3460
 5397TIP3    H237683   4.726   6.753  16.262  1.0690 -0.1624 -0.9457
 5398TIP3   OH237684   5.135   2.431  12.341  0.2274 -0.4158 -0.5170
 5398TIP3    H137685   5.210   2.427  12.282 -0.0557  0.5874 -0.9692
 5398TIP3    H237686   5.104   2.522  12.334 -0.0549 -0.3961  0.8724
 5399TIP3   OH237687   0.321   4.584   1.777 -0.2490  0.1179 -0.1133
 5399TIP3    H137688   0.347   4.621   1.693  0.0041 -0.3497 -0.2464
 5399TIP3    H237689   0.319   4.658   1.837  2.0182  0.0583  0.0532
 5400TIP3   OH237690   2.233   0.390  15.288  0.2440  0.2680 -0.1010
 5400TIP3    H137691   2.159   0.392  15.349  0.8333 -1.1900  0.6545
 5400TIP3    H237692   2.219   0.467  15.232 -0.2810  1.6275  1.8646
 5401TIP3   OH237693   4.080   1.257   0.471 -0.3281 -0.3797 -0.0621
 5401TIP3    H137694   4.164   1.227   0.507  0.0063  1.7190  0.9691
 5401TIP3    H237695   4.104   1.324   0.407 -1.1709 -0.7450 -0.7709
 5402TIP3   OH237696   6.266   2.715  14.992  0.1025 -0.3263 -0.2947
 5402TIP3    H137697   6.172   2.701  14.981 -0.4546  1.5975  1.5570
 5402TIP3    H237698   6.306   2.633  14.965 -2.1979 -1.5618 -0.0987
 5403TIP3   OH237699   2.107   6.674   3.452  0.6895 -0.0841 -0.1063
 5403TIP3    H137700   2.155   6.749   3.486  0.3358 -0.3469  0.9882
 5403TIP3    H237701   2.025   6.711   3.419  0.3850 -0.0173  0.7045
 5404TIP3   OH237702   0.640   1.600   2.255 -0.2771 -0.3868  0.5689
 5404TIP3    H137703   0.561   1.654   2.244  0.8735  1.2182 -0.1452
 5404TIP3    H237704   0.652   1.558   2.170  0.5548  0.6889  0.1411
 5405TIP3   OH237705   6.757   4.725   1.036  0.0385  0.0333 -0.1412
 5405TIP3    H137706   6.730   4.717   1.128  1.4878  0.4057  0.3325
 5405TIP3    H237707   6.745   4.818   1.016  1.0860  0.2305  0.1188
 5406TIP3   OH237708   0.551   4.819   2.688 -0.6807 -0.0634 -0.1211
 5406TIP3    H137709   0.498   4.896   2.668 -1.2822 -0.2249  0.8466
 5406TIP3    H237710   0.636   4.855   2.715 -1.3809  0.3185  1.6180
 5407TIP3   OH237711   0.400   5.241   3.251 -0.6875 -0.0797  0.3080
 5407TIP3    H137712   0.335   5.306   3.224 -0.1939 -0.3512 -1.6093
 5407TIP3    H237713   0.443   5.280   3.328 -1.4846  1.1381  0.1518
 5408TIP3   OH237714   2.080   6.511   0.415 -0.4017  0.1757 -0.1475
 5408TIP3    H137715   2.119   6.593   0.384  0.0620 -0.7838 -2.2063
 5408TIP3    H237716   2.152   6.465   0.458  0.3592 -0.7769 -2.3262
 5409TIP3   OH237717   5.151   4.374  13.391  0.7553  0.3268  0.1539
 5409TIP3    H137718   5.146   4.320  13.312 -0.0152 -0.4299  0.7189
 5409TIP3    H237719   5.235   4.419  13.383  1.0255 -0.3132 -0.7332
 5410TIP3   OH237720   5.900   5.097   3.824 -0.2107  0.1299  0.5665
 5410TIP3    H137721   5.956   5.167   3.858 -2.4387  0.9354  2.7346
 5410TIP3    H237722   5.853   5.137   3.752  0.5463  0.0350  0.0151
 5411TIP3   OH237723   3.967   6.628   5.096  0.2146  0.1527  0.3666
 5411TIP3    H137724   3.893   6.609   5.039  1.4557 -0.5426 -1.0224
 5411TIP3    H237725   3.929   6.679   5.168 -1.3858  0.9380 -1.0019
 5412TIP3   OH237726   0.115   2.676  14.662 -0.4618 -0.2078 -0.0523
 5412TIP3    H137727   0.141   2.707  14.749 -0.5048  0.8171 -0.3917
 5412TIP3    H237728   0.151   2.588  14.656  0.1295 -0.0266  0.7435
 5413TIP3   OH237729   0.294   3.746   3.475  0.1408 -0.1345 -0.2075
 5413TIP3    H137730   0.339   3.667   3.445  0.6594 -0.4652  1.4040
 5413TIP3    H237731   0.348   3.819   3.443  1.1359 -0.5032  0.5944
 5414TIP3   OH237732   1.941   4.297   4.521  0.0028 -0.2076  0.6492
 5414TIP3    H137733   1.945   4.209   4.559  2.5426  0.3071  1.7273
 5414TIP3    H237734   2.004   4.347   4.573 -0.3557  1.8819 -0.8950
 5415TIP3   OH237735   1.626   2.919   0.222  0.6527  0.2579 -0.1067
 5415TIP3    H137736   1.650   2.866   0.146  1.2612 -0.2225  0.4071
 5415TIP3    H237737   1.674   2.879   0.295 -1.0451 -0.1678  0.7940
 5416TIP3   OH237738   0.037   4.773  13.718  0.0771 -0.4077  0.4580
 5416TIP3    H137739   0.118   4.803  13.759  1.0456 -2.1431 -0.1435
 5416TIP3    H237740   0.060   4.691  13.675 -2.3499 -1.7399  1.5590
 5417TIP3   OH237741   3.735   2.690  11.269  0.5586 -0.6297  0.6088
 5417TIP3    H137742   3.795   2.626  11.231 -1.4267 -1.1867 -1.7199
 5417TIP3    H237743   3.754   2.772  11.224  1.4779 -0.1190  1.8943
 5418TIP3   OH237744   2.538   2.577  13.224 -0.1023  0.2164 -0.3460
 5418TIP3    H137745   2.448   2.564  13.254 -0.0182 -0.2599 -0.2891
 5418TIP3    H237746   2.591   2.567  13.303  0.0371  0.0367 -0.4617
 5419TIP3   OH237747   3.542   1.191  14.331  0.4905 -0.4412 -0.2317
 5419TIP3    H137748   3.531   1.177  14.237 -1.2907  0.9233 -0.2549
 5419TIP3    H237749   3.544   1.103  14.368  1.6298 -0.9988 -1.5818
 5420TIP3   OH237750   4.812   3.613  12.053 -1.0228 -0.3192  0.3163
 5420TIP3    H137751   4.802   3.623  12.147  0.5643 -2.3228  0.7354
 5420TIP3    H237752   4.749   3.544  12.029 -0.2632 -0.9837  0.2009
 5421TIP3   OH237753   0.562   2.149   1.991  0.0002  0.3962 -0.0023
 5421TIP3    H137754   0.557   2.141   1.896  3.1235  0.0418 -0.1981
 5421TIP3    H237755   0.654   2.131   2.011 -1.0809 -1.9620  3.3115
 5422TIP3   OH237756   1.996   2.355   1.546 -0.1099 -0.0618  0.0500
 5422TIP3    H137757   2.013   2.307   1.465  4.5131  0.6112  0.5007
 5422TIP3    H237758   1.931   2.302   1.592 -0.7450 -1.8949 -2.8439
 5423TIP3   OH237759   5.212   0.223   3.281  0.3312  0.0759 -0.1084
 5423TIP3    H137760   5.231   0.286   3.211  0.3427 -0.6216 -0.7479
 5423TIP3    H237761   5.124   0.244   3.310  0.3894  0.4772 -0.2278
 5424TIP3   OH237762   5.942   1.239   2.012  0.4099 -0.0663  0.0307
 5424TIP3    H137763   5.953   1.311   1.950 -2.1202 -0.7565 -1.3151
 5424TIP3    H237764   5.847   1.229   2.021  0.7150 -1.9788  1.6843
 5425TIP3   OH237765   3.252   5.323   5.377 -0.0623  0.0359  0.1669
 5425TIP3    H137766   3.291   5.347   5.293 -0.2385  0.2530  0.1476
 5425TIP3    H237767   3.267   5.229   5.385  1.6900  0.3590  0.8005
 5426TIP3   OH237768   6.146   2.410   6.331  0.2303 -0.0496 -0.3089
 5426TIP3    H137769   6.132   2.495   6.288  1.6768  0.5378  0.3423
 5426TIP3    H237770   6.222   2.374   6.287  0.8837 -0.0704  0.8195
 5427TIP3   OH237771   2.754   2.678  12.320  0.0113 -0.3975  0.1459
 5427TIP3    H137772   2.711   2.678  12.406 -1.5532 -1.8674 -0.5840
 5427TIP3    H237773   2.839   2.637  12.336 -0.5617 -1.3344  0.8781
 5428TIP3   OH237774   3.457   5.169  13.319  0.3455 -0.0758 -0.6275
 5428TIP3    H137775   3.541   5.149  13.359  1.7274  1.3418 -2.7286
 5428TIP3    H237776   3.393   5.157  13.390  2.0968 -2.7090  0.5945
 5429TIP3   OH237777   3.390   2.377   5.557 -0.6717  0.3076  0.2800
 5429TIP3    H137778   3.458   2.378   5.625 -0.3924 -1.0263  0.0451
 5429TIP3    H237779   3.313   2.342   5.601 -0.7021  0.1604  0.1122
 5430TIP3   OH237780   3.106   1.085  15.310 -0.6450 -0.1512 -0.0256
 5430TIP3    H137781   3.093   1.100  15.404  1.2564  0.7482  0.1291
 5430TIP3    H237782   3.127   0.992  15.304 -0.1231 -0.0783  0.5409
 5431TIP3   OH237783   3.572   1.912  15.467 -0.3120  0.4092  0.6644
 5431TIP3    H137784   3.658   1.948  15.488 -0.4689  0.4693  1.2203
 5431TIP3    H237785   3.510   1.973  15.507 -0.5893 -0.1128  1.0413
 5432TIP3   OH237786   0.647   4.811   5.348 -0.2280  0.4932 -0.2067
 5432TIP3    H137787   0.607   4.730   5.379 -0.7202  0.2728 -1.3673
 5432TIP3    H237788   0.583   4.879   5.371  0.6241  0.6844  1.6264
 5433TIP3   OH237789   6.235   1.348   0.578 -0.6146 -0.2973 -0.2271
 5433TIP3    H137790   6.146   1.377   0.559 -0.9767 -0.8893  0.5280
 5433TIP3    H237791   6.233   1.253   0.564  0.2337 -0.1501 -1.4567
 5434TIP3   OH237792   2.837   3.729  14.157  0.2519  0.0897  0.1705
 5434TIP3    H137793   2.789   3.757  14.079  1.4632 -1.0007 -1.0030
 5434TIP3    H237794   2.832   3.634  14.155  1.8260 -0.0142  0.4201
 5435TIP3   OH237795   6.586   2.108   5.367 -0.0091 -0.4931  0.6260
 5435TIP3    H137796   6.506   2.126   5.318  0.4057  0.1769  0.1928
 5435TIP3    H237797   6.636   2.190   5.363  0.9314 -1.0717  0.4500
 5436TIP3   OH237798   2.068   0.291  14.774  0.2203  0.4186 -0.1241
 5436TIP3    H137799   2.101   0.202  14.763  1.9810  0.9069  1.0298
 5436TIP3    H237800   2.022   0.310  14.692  0.0079 -1.4575 -0.4601
 5437TIP3   OH237801   6.408   3.404  16.644  0.1142  0.5201  0.4333
 5437TIP3    H137802   6.481   3.343  16.634 -0.7074 -0.2710 -0.9155
 5437TIP3    H237803   6.351   3.363  16.709 -0.3442 -0.0565 -0.3332
 5438TIP3   OH237804   2.532   6.052   1.837  0.1816  0.3417 -0.2926
 5438TIP3    H137805   2.492   6.135   1.810 -0.9710  0.2109  0.9306
 5438TIP3    H237806   2.466   5.986   1.816 -0.2867  0.1224  1.7292
 5439TIP3   OH237807   4.045   3.079   3.124  0.3331 -0.0900 -0.2789
 5439TIP3    H137808   4.135   3.054   3.101  0.7183  0.2066  0.8563
 5439TIP3    H237809   4.017   3.135   3.052  0.8632 -0.6319 -0.9117
 5440TIP3   OH237810   4.098   0.330   0.168 -0.9234 -0.3292  0.1697
 5440TIP3    H137811   4.023   0.386   0.189 -1.0775 -0.4532 -0.0435
 5440TIP3    H237812   4.059   0.256   0.120 -0.5482  0.0863 -0.7940
 5441TIP3   OH237813   3.807   6.560   2.875  0.0529  0.3889 -0.0433
 5441TIP3    H137814   3.838   6.470   2.872 -1.0475  0.0278 -1.1087
 5441TIP3    H237815   3.811   6.584   2.968  0.2422 -0.7952  0.2621
 5442TIP3   OH237816   4.430   1.057  16.198  0.3746 -0.3071 -0.7309
 5442TIP3    H137817   4.476   1.104  16.268 -0.5950  1.1429 -1.0473
 5442TIP3    H237818   4.500   1.031  16.137  0.8013  2.2355 -1.4194
 5443TIP3   OH237819   0.872   2.640   3.848 -0.1879 -0.0532  0.3708
 5443TIP3    H137820   0.849   2.673   3.761 -0.3410  0.5562  0.6407
 5443TIP3    H237821   0.790   2.643   3.897  0.2503  1.2167  1.0485
 5444TIP3   OH237822   6.411   6.472   3.496 -0.8081 -0.5563  0.1454
 5444TIP3    H137823   6.474   6.511   3.557  0.4700  0.2888 -1.6807
 5444TIP3    H237824   6.434   6.379   3.495  1.0832 -0.1056 -1.2482
 5445TIP3   OH237825   4.248   3.290   3.860  0.0542 -0.4858 -0.1244
 5445TIP3    H137826   4.195   3.349   3.807  1.0652 -0.8585 -1.5600
 5445TIP3    H237827   4.190   3.217   3.881 -0.8844  0.4974  0.7985
 5446TIP3   OH237828   5.853   3.629   6.301  0.1881 -0.2269 -0.0809
 5446TIP3    H137829   5.803   3.696   6.348 -0.1385  0.1789 -0.9904
 5446TIP3    H237830   5.921   3.679   6.254 -0.8576 -0.3867 -1.7908
 5447TIP3   OH237831   3.709   1.994  17.173 -0.5195  0.0369 -0.1001
 5447TIP3    H137832   3.646   2.032  17.112 -1.9557  0.1109  1.4138
 5447TIP3    H237833   3.693   1.899  17.167  0.9976 -0.1584 -1.6068
 5448TIP3   OH237834   1.991   0.254   5.888  0.5124  0.4009 -0.0875
 5448TIP3    H137835   2.031   0.241   5.974  2.3996  0.7075 -0.8917
 5448TIP3    H237836   2.049   0.208   5.827  0.2201  1.7773 -1.4314
 5449TIP3   OH237837   6.273   5.350  14.336 -0.1573 -0.7581 -0.3782
 5449TIP3    H137838   6.189   5.343  14.381 -1.1336  0.2055 -1.9846
 5449TIP3    H237839   6.297   5.260  14.314 -0.8873 -1.0244 -0.0868
 5450TIP3   OH237840   2.602   1.182   5.110 -0.2513  0.3519  0.6704
 5450TIP3    H137841   2.541   1.111   5.130 -0.0872 -0.4413 -1.5523
 5450TIP3    H237842   2.681   1.161   5.160  0.1068 -1.5218 -0.6349
 5451TIP3   OH237843   0.009   6.533  12.501  0.2885  0.2086  0.1583
 5451TIP3    H137844   0.077   6.502  12.561  1.9296  2.8464 -0.2239
 5451TIP3    H237845  -0.067   6.549  12.557  0.7729 -0.4288  1.0063
 5452TIP3   OH237846   3.396   6.045  17.137 -0.2605 -0.1153 -0.1043
 5452TIP3    H137847   3.487   6.034  17.111 -0.6946 -0.2871 -1.5907
 5452TIP3    H237848   3.345   6.027  17.058 -1.6167 -0.5774  0.8381
 5453TIP3   OH237849   3.387   2.332   1.324  0.2735 -0.0307 -0.2092
 5453TIP3    H137850   3.335   2.255   1.300  0.6694 -0.3946  0.1031
 5453TIP3    H237851   3.411   2.318   1.415  1.5007 -0.2029 -0.5441
 5454TIP3   OH237852   5.167   3.851  13.272 -0.3942  0.2744  0.4362
 5454TIP3    H137853   5.231   3.834  13.341 -0.6327 -0.5822  0.4498
 5454TIP3    H237854   5.087   3.810  13.303 -0.2645 -0.9329 -0.7633
 5455TIP3   OH237855   1.646   0.769   1.872 -0.1068  0.4646 -0.0287
 5455TIP3    H137856   1.661   0.864   1.873 -1.2321  0.6448  0.4391
 5455TIP3    H237857   1.702   0.737   1.801 -1.0033  1.7127 -1.3395
 5456TIP3   OH237858   2.254   1.893  10.486  0.4088 -0.0222 -0.7990
 5456TIP3    H137859   2.289   1.914  10.573 -0.3686 -0.5050 -0.3682
 5456TIP3    H237860   2.322   1.839  10.446  0.4793 -0.3513 -0.2401
 5457TIP3   OH237861   1.704   6.662  13.312 -0.1215  0.0475 -0.1847
 5457TIP3    H137862   1.624   6.663  13.260 -1.8675  0.2355  2.4239
 5457TIP3    H237863   1.731   6.570  13.313 -0.0277  0.0442 -1.3963
 5458TIP3   OH237864   1.844   6.552   1.588 -0.2647  0.2711  0.1070
 5458TIP3    H137865   1.754   6.583   1.571 -0.4500  0.0073  0.6209
 5458TIP3    H237866   1.834   6.459   1.610  0.1872  0.1109 -0.3528
 5459TIP3   OH237867   4.348   2.286  15.232  0.2434  0.4853  0.0192
 5459TIP3    H137868   4.358   2.292  15.327  1.5281 -0.1578 -0.0642
 5459TIP3    H237869   4.405   2.354  15.197  1.6953 -0.9038 -0.3648
 5460TIP3   OH237870   3.253   1.896   1.159  0.4142 -0.0123  0.3318
 5460TIP3    H137871   3.280   1.977   1.202 -1.0513  1.6477 -1.7504
 5460TIP3    H237872   3.307   1.892   1.080  0.2394 -0.8931  0.2496
 5461TIP3   OH237873   6.239   1.937  12.789 -0.5121 -0.2059  0.2213
 5461TIP3    H137874   6.173   1.922  12.857 -2.5864  1.0455 -1.4621
 5461TIP3    H237875   6.310   1.982  12.834 -1.8258  0.5640  1.5828
 5462TIP3   OH237876   2.277   5.206   3.592  0.6185  0.0045  0.2834
 5462TIP3    H137877   2.273   5.214   3.687 -0.7630  0.4592  0.2005
 5462TIP3    H237878   2.292   5.295   3.560 -0.0649  0.0292  0.0277
 5463TIP3   OH237879   0.048   1.554   5.794  0.1562  0.2213  0.1083
 5463TIP3    H137880   0.114   1.541   5.862  0.3389  0.0351 -0.1059
 5463TIP3    H237881   0.081   1.627   5.743 -1.0090  1.7703  1.4841
 5464TIP3   OH237882   3.012   3.220   0.601  0.2559 -0.0228  0.1958
 5464TIP3    H137883   2.942   3.174   0.648  0.4991 -0.6371 -0.0353
 5464TIP3    H237884   3.088   3.213   0.659  0.2630  0.1846  0.2104
 5465TIP3   OH237885   0.343   0.951  15.996  0.3967 -0.5619 -0.1621
 5465TIP3    H137886   0.430   0.988  16.008 -0.0870  0.0506  1.6091
 5465TIP3    H237887   0.311   0.935  16.085 -1.1560 -1.1142 -0.8024
 5466TIP3   OH237888   2.967   3.256   2.838 -0.3646 -0.1453  0.4638
 5466TIP3    H137889   3.009   3.341   2.852 -0.3242 -0.4672  2.5290
 5466TIP3    H237890   3.030   3.192   2.872 -0.7893 -0.9181 -0.2007
 5467TIP3   OH237891   6.790   5.991   4.319  0.6405  0.1236  0.2038
 5467TIP3    H137892   6.847   6.064   4.299 -0.4524  0.5612 -1.3815
 5467TIP3    H237893   6.702   6.023   4.299  0.1042 -1.4521 -0.0314
 5468TIP3   OH237894   3.072   3.268  11.111 -0.7983 -0.1400  0.3806
 5468TIP3    H137895   3.052   3.321  11.188  1.3931 -0.6557  1.3520
 5468TIP3    H237896   2.991   3.267  11.061 -2.1177  0.6291  2.4292
 5469TIP3   OH237897   6.673   4.270  13.373 -0.1769  0.0893 -0.0788
 5469TIP3    H137898   6.644   4.281  13.282 -1.7556 -1.1685  0.2589
 5469TIP3    H237899   6.756   4.319  13.378  0.4048 -0.6018 -2.4290
 5470TIP3   OH237900   5.139   3.557  14.040  0.0733  0.0945 -0.4128
 5470TIP3    H137901   5.067   3.586  13.984 -0.5450  0.2267  0.4483
 5470TIP3    H237902   5.106   3.477  14.082  0.2375  0.4212  0.3534
 5471TIP3   OH237903   4.219   2.284  12.254  0.1361  0.2986  0.0492
 5471TIP3    H137904   4.163   2.293  12.332 -0.6161 -0.9698 -0.3339
 5471TIP3    H237905   4.160   2.302  12.181  0.8330  1.4408 -0.2455
 5472TIP3   OH237906   1.301   2.517   1.708 -0.3250 -0.3912  0.0584
 5472TIP3    H137907   1.370   2.529   1.643  1.0331 -0.5687  1.4212
 5472TIP3    H237908   1.236   2.584   1.687  2.0195  2.2902  0.9326
 5473TIP3   OH237909   2.608   6.714  13.794  0.1652  0.2055  0.1416
 5473TIP3    H137910   2.671   6.642  13.794 -1.5183 -1.3198 -0.6763
 5473TIP3    H237911   2.589   6.728  13.887  0.5984 -0.3424  0.3197
 5474TIP3   OH237912   3.694   1.429   4.817  0.2949 -0.2382 -0.1278
 5474TIP3    H137913   3.772   1.470   4.854  0.0138 -0.0669  0.2809
 5474TIP3    H237914   3.622   1.487   4.843  0.2168  0.4330 -1.8267
 5475TIP3   OH237915   4.932   2.675   1.623 -0.2992 -0.0914 -0.6047
 5475TIP3    H137916   4.999   2.622   1.580 -0.7607 -0.7512 -0.5190
 5475TIP3    H237917   4.850   2.630   1.604 -0.2571 -2.2487  3.5822
 5476TIP3   OH237918   2.840   2.598  16.971  0.1477  0.0970 -0.6947
 5476TIP3    H137919   2.874   2.509  16.959 -0.6045 -0.2056 -0.6397
 5476TIP3    H237920   2.747   2.585  16.990  0.2889  0.8346  0.5399
 5477TIP3   OH237921   1.989   1.022  16.289 -0.7739  0.0795  0.4306
 5477TIP3    H137922   1.929   1.096  16.298  0.9961  1.4866  0.8606
 5477TIP3    H237923   2.048   1.048  16.218  0.9199 -0.1554  1.7152
 5478TIP3   OH237924   2.715   1.209   6.050 -0.6663  0.4980 -0.1217
 5478TIP3    H137925   2.773   1.164   6.112  0.7873 -0.9308 -2.4530
 5478TIP3    H237926   2.727   1.302   6.069  2.1679  0.2205 -0.3277
 5479TIP3   OH237927   3.612   1.265   6.771 -0.0855  0.3086 -0.2227
 5479TIP3    H137928   3.570   1.273   6.856  1.4560  3.2379  0.3284
 5479TIP3    H237929   3.542   1.281   6.707 -1.1308 -1.3903  0.4648
 5480TIP3   OH237930   6.187   5.721  12.786  0.0518 -0.2264  0.4404
 5480TIP3    H137931   6.277   5.689  12.798 -0.1224 -0.4782  1.0830
 5480TIP3    H237932   6.174   5.718  12.691 -0.3132 -3.0729  0.5161
 5481TIP3   OH237933   0.686   6.413   4.711  0.2294  0.1060 -0.7289
 5481TIP3    H137934   0.630   6.487   4.687 -0.3355 -0.0692  0.0252
 5481TIP3    H237935   0.729   6.441   4.792  0.6352 -0.0768 -0.8759
 5482TIP3   OH237936   5.682   1.951   3.644  0.0777 -0.5011  0.4438
 5482TIP3    H137937   5.738   1.984   3.574  0.1891 -2.7281 -0.5517
 5482TIP3    H237938   5.616   2.020   3.656  0.4814  0.2305 -1.3340
 5483TIP3   OH237939   0.766   1.301  15.259 -0.0749  0.1381  0.3546
 5483TIP3    H137940   0.704   1.254  15.203  1.9697  1.6253 -3.2992
 5483TIP3    H237941   0.836   1.238  15.274  0.1578  0.2758 -0.1438
 5484TIP3   OH237942   4.072   0.681  15.770 -0.4040  0.1651 -0.3451
 5484TIP3    H137943   4.011   0.754  15.762 -1.1061 -0.2918  0.8008
 5484TIP3    H237944   4.140   0.700  15.706 -1.4237  0.9912 -1.1920
 5485TIP3   OH237945   6.292   3.205  13.059  0.2211  0.3326 -0.3983
 5485TIP3    H137946   6.286   3.300  13.069 -1.0300 -0.0178  2.6731
 5485TIP3    H237947   6.370   3.181  13.108  0.1309 -0.3099 -0.5637
 5486TIP3   OH237948   3.236   6.538  12.698  0.0511 -0.0200 -0.1081
 5486TIP3    H137949   3.183   6.603  12.744  0.3960 -0.6641  1.2184
 5486TIP3    H237950   3.279   6.587  12.628 -0.0492  1.0843  0.5931
 5487TIP3   OH237951   2.367   3.107  15.896  0.1171 -0.5706  0.3527
 5487TIP3    H137952   2.299   3.130  15.832 -0.2237 -0.8900  0.5945
 5487TIP3    H237953   2.450   3.124  15.850 -0.1214  0.5672  0.3275
 5488TIP3   OH237954   3.299   1.627  14.299  0.2757 -0.0607  0.2509
 5488TIP3    H137955   3.216   1.633  14.346  0.0924 -0.0818 -0.0656
 5488TIP3    H237956   3.359   1.683  14.349  0.4698 -1.1921  1.3033
 5489TIP3   OH237957   2.806   1.063   1.695  0.1486 -0.0669 -0.2887
 5489TIP3    H137958   2.858   1.126   1.746  2.8236 -2.0619 -0.4665
 5489TIP3    H237959   2.774   1.000   1.759  2.5356 -1.9057 -0.8174
 5490TIP3   OH237960   5.830   3.290  14.622  0.5012  0.2709  0.3123
 5490TIP3    H137961   5.763   3.253  14.679  1.0983 -0.5000  0.5204
 5490TIP3    H237962   5.823   3.384  14.635 -1.0730  0.2467 -0.2586
 5491TIP3   OH237963   6.520   3.150  12.295 -0.6711  0.5426 -0.4233
 5491TIP3    H137964   6.429   3.128  12.274 -0.8618  1.0646 -0.1738
 5491TIP3    H237965   6.523   3.147  12.391 -0.3812  0.3517 -0.4387
 5492TIP3   OH237966   2.431   1.968   1.857 -0.2800  0.4015  0.1721
 5492TIP3    H137967   2.370   1.933   1.792  0.1569  0.7514 -0.4343
 5492TIP3    H237968   2.376   1.998   1.929 -0.9942  2.7296 -1.3071
 5493TIP3   OH237969   0.594   4.195   4.369 -0.6115 -0.3638  0.4886
 5493TIP3    H137970   0.625   4.159   4.286 -1.3583  1.3849 -0.5622
 5493TIP3    H237971   0.673   4.227   4.413 -0.1914 -1.4843  0.5596
 5494TIP3   OH237972   2.190   5.254   1.827 -0.0748 -0.0456  0.4509
 5494TIP3    H137973   2.163   5.304   1.749  1.2491  0.2331  0.1646
 5494TIP3    H237974   2.285   5.254   1.824  0.0333  1.1873  2.8619
 5495TIP3   OH237975   4.621   2.251  12.941  0.3553  0.6326 -0.2433
 5495TIP3    H137976   4.626   2.318  13.009 -0.1254  1.2944 -0.8507
 5495TIP3    H237977   4.652   2.296  12.862  2.8464 -0.6932 -0.0604
 5496TIP3   OH237978   2.602   3.102   2.654  0.2672 -0.2886  0.0896
 5496TIP3    H137979   2.596   3.092   2.749 -4.5107  0.0253 -0.0326
 5496TIP3    H237980   2.624   3.015   2.621  0.4653 -0.7237  1.3768
 5497TIP3   OH237981   1.058   4.243  16.791  0.3737  0.4237  0.3982
 5497TIP3    H137982   1.077   4.172  16.852 -0.2692  0.6139  0.8206
 5497TIP3    H237983   1.129   4.240  16.728 -0.2380 -1.3067 -0.2268
 5498TIP3   OH237984   3.118   2.483   3.303 -0.0233  0.1991  0.2612
 5498TIP3    H137985   3.175   2.560   3.304  1.3665 -0.7973  2.7197
 5498TIP3    H237986   3.165   2.419   3.250 -0.3410  0.4368 -0.3098
 5499TIP3   OH237987   2.131   3.058   5.201 -0.0394  0.5990 -0.3479
 5499TIP3    H137988   2.218   3.020   5.186 -0.0112  0.4554  0.1906
 5499TIP3    H237989   2.071   2.997   5.159 -0.1782 -1.1644  2.3018
 5500TIP3   OH237990   3.200   2.681   1.278 -0.4775 -0.1013  0.2925
 5500TIP3    H137991   3.171   2.598   1.241 -3.9929  1.3158 -0.3185
 5500TIP3    H237992   3.278   2.704   1.227 -1.7201 -1.1303 -2.1467
 5501TIP3   OH237993   2.605   2.741  12.802 -0.0378 -0.2976 -0.2557
 5501TIP3    H137994   2.608   2.832  12.831 -1.7425 -0.4226  0.3514
 5501TIP3    H237995   2.600   2.690  12.883 -2.0812 -0.7846 -0.6699
 5502TIP3   OH237996   1.384   2.307  12.091 -0.3948  0.0346  0.2282
 5502TIP3    H137997   1.475   2.288  12.068 -0.5411 -1.6692  1.0188
 5502TIP3    H237998   1.333   2.277  12.016 -0.2868  1.2707 -0.3472
 5503TIP3   OH237999   6.191   1.743   5.138  0.9319  0.1084 -0.4558
 5503TIP3    H138000   6.239   1.715   5.216  0.3593 -1.0141 -0.5018
 5503TIP3    H238001   6.138   1.667   5.114 -1.8345  1.7600  0.3020
 5504TIP3   OH238002   4.352   0.935   0.367 -0.3273 -0.8866 -0.4937
 5504TIP3    H138003   4.261   0.945   0.395 -0.1627  0.8854 -0.5202
 5504TIP3    H238004   4.346   0.896   0.280 -1.1240  0.3677 -1.0134
 5505TIP3   OH238005   0.231   6.312   0.784 -0.7811 -0.1295 -0.4137
 5505TIP3    H138006   0.305   6.363   0.817 -1.0088 -1.0670  1.6100
 5505TIP3    H238007   0.240   6.316   0.689  1.5422  0.2653 -0.2078
 5506TIP3   OH238008   3.866   0.058  12.252  0.1648  0.2582 -0.1105
 5506TIP3    H138009   3.891   0.107  12.174  1.2364  0.3401  0.2849
 5506TIP3    H238010   3.817   0.121  12.305  0.2464  0.4712 -0.2881
 5507TIP3   OH238011   3.469   5.859  11.639  0.3500  0.2118  0.0155
 5507TIP3    H138012   3.401   5.922  11.616 -1.0582 -0.4655  2.1558
 5507TIP3    H238013   3.424   5.774  11.636  1.3988 -0.3601  0.3251
 5508TIP3   OH238014   6.807   5.991   4.730  0.3120  0.1852 -0.4571
 5508TIP3    H138015   6.877   6.030   4.678 -0.0970 -0.0151 -1.1706
 5508TIP3    H238016   6.727   6.010   4.681  0.0362 -0.9835 -0.4884
 5509TIP3   OH238017   3.395   2.036  14.122 -0.5436 -0.2274 -0.7386
 5509TIP3    H138018   3.410   1.996  14.036 -1.4228 -1.8149 -0.1831
 5509TIP3    H238019   3.477   2.020  14.170 -0.2202  0.2593 -1.1274
 5510TIP3   OH238020   4.347   3.337   3.467  0.8048  0.0991 -0.7618
 5510TIP3    H138021   4.272   3.395   3.478  1.4445  0.9038 -0.5842
 5510TIP3    H238022   4.393   3.341   3.550  0.3451 -1.4188 -0.4098
 5511TIP3   OH238023   3.015   2.618  13.391 -0.0447  0.0679 -0.2769
 5511TIP3    H138024   2.955   2.620  13.316  2.5207 -0.8078 -2.4420
 5511TIP3    H238025   3.071   2.694  13.379 -0.4597  0.6865  1.5340
 5512TIP3   OH238026   4.597   2.488  15.471  0.6249 -0.0299 -0.6152
 5512TIP3    H138027   4.665   2.539  15.516  0.7008 -1.6557  1.1728
 5512TIP3    H238028   4.643   2.410  15.440 -0.4571 -1.2312  0.7710
 5513TIP3   OH238029   5.053   3.455  12.671 -0.1050  0.4858 -0.0101
 5513TIP3    H138030   5.110   3.530  12.690  0.0305  0.6138 -0.8849
 5513TIP3    H238031   4.964   3.488  12.684 -0.0123  0.5144  0.5695
 5514TIP3   OH238032   3.027   4.411  15.417  0.1935 -0.0646  0.4390
 5514TIP3    H138033   2.968   4.467  15.468 -0.3884  1.0119 -1.3695
 5514TIP3    H238034   3.098   4.469  15.390  0.4073 -0.5745 -0.1081
 5515TIP3   OH238035   2.703   6.135   2.906 -0.4215 -0.1144  0.6555
 5515TIP3    H138036   2.677   6.067   2.844  0.7737 -0.4091  0.4592
 5515TIP3    H238037   2.799   6.137   2.900 -0.4694  1.8260  0.4217
 5516TIP3   OH238038   6.382   1.474  12.679  0.1240 -0.2388 -0.9358
 5516TIP3    H138039   6.477   1.485  12.669  0.0424  0.3082 -1.1470
 5516TIP3    H238040   6.349   1.477  12.589 -0.4101  2.6655 -0.7018
 5517TIP3   OH238041   4.393   1.778   4.563 -0.1784  0.0137 -0.0917
 5517TIP3    H138042   4.429   1.860   4.596 -1.3898  1.8144 -3.0590
 5517TIP3    H238043   4.462   1.742   4.507 -0.2558 -0.1550 -0.0792
 5518TIP3   OH238044   4.145   6.101  17.286  0.2835  0.1913 -0.1008
 5518TIP3    H138045   4.232   6.077  17.254  0.5927  0.7625  0.2982
 5518TIP3    H238046   4.157   6.188  17.324 -0.5770  0.5056 -0.5349
 5519TIP3   OH238047   3.512   2.822  11.860  0.9942  0.1785 -0.0374
 5519TIP3    H138048   3.516   2.917  11.873 -0.0124  0.2550 -0.2666
 5519TIP3    H238049   3.503   2.811  11.766  2.6875 -0.2119 -0.1850
 5520TIP3   OH238050   3.722   5.107  16.830  0.0139  0.2586  0.6643
 5520TIP3    H138051   3.700   5.032  16.884 -0.0996  0.4950  0.9473
 5520TIP3    H238052   3.766   5.069  16.753 -0.9826 -0.1801  0.3049
 5521TIP3   OH238053   3.041   5.981  16.388  0.5745  0.6508  0.3216
 5521TIP3    H138054   3.048   5.915  16.319  0.0971 -0.2522  1.1204
 5521TIP3    H238055   3.072   5.937  16.467 -0.3125  1.1826  0.9816
 5522TIP3   OH238056   6.033   3.513   5.970 -0.1461  0.5381  0.3970
 5522TIP3    H138057   6.034   3.550   5.881  2.3849 -1.0430 -0.2831
 5522TIP3    H238058   6.104   3.559   6.016  0.9678 -1.1983  0.4662
 5523TIP3   OH238059   5.251   5.591  10.614  0.0142 -0.8688 -0.0712
 5523TIP3    H138060   5.340   5.614  10.587 -0.0852  1.2345  1.2357
 5523TIP3    H238061   5.228   5.516  10.560  0.6122  1.8248 -4.3617
 5524TIP3   OH238062   0.682   5.071   4.085 -0.0171 -0.1017  0.2580
 5524TIP3    H138063   0.594   5.034   4.081 -0.3711  0.8780 -1.7830
 5524TIP3    H238064   0.686   5.131   4.010  2.3173  0.0001  0.4325
 5525TIP3   OH238065   5.375   3.382   1.216 -0.6055 -0.2242 -0.0992
 5525TIP3    H138066   5.307   3.411   1.155 -0.6518  0.2401  0.1653
 5525TIP3    H238067   5.327   3.338   1.286 -0.3723 -3.0410 -1.6341
 5526TIP3   OH238068   0.050   1.288  12.705  0.5523 -0.2834 -0.0451
 5526TIP3    H138069   0.057   1.277  12.799 -0.6372  0.1412  0.0983
 5526TIP3    H238070  -0.039   1.260  12.683  0.3355  0.9396 -0.8352
 5527TIP3   OH238071   4.575   1.180  17.098  0.0173  0.5423 -0.3354
 5527TIP3    H138072   4.589   1.126  17.176 -2.2022 -0.0394 -0.3032
 5527TIP3    H238073   4.596   1.122  17.025 -0.6817  0.1877 -0.2540
 5528TIP3   OH238074   5.110   1.205  13.597 -0.0333  0.0372  0.0419
 5528TIP3    H138075   5.063   1.221  13.678  0.4264 -3.3999  1.0606
 5528TIP3    H238076   5.045   1.220  13.528 -1.3142 -0.1430  1.1934
 5529TIP3   OH238077   1.235   6.766   2.924  0.9281  0.4197 -0.3402
 5529TIP3    H138078   1.191   6.851   2.925  0.1512  0.0257 -0.5256
 5529TIP3    H238079   1.257   6.748   3.015 -0.0296  0.2443 -0.1422
 5530TIP3   OH238080   3.027   4.312  14.472  0.1476 -0.7778 -0.9940
 5530TIP3    H138081   2.942   4.268  14.474 -0.5681  0.5736 -1.0736
 5530TIP3    H238082   3.065   4.287  14.388  0.5906 -2.7535 -0.2440
 5531TIP3   OH238083   4.159   0.504  11.452  0.1035  0.3810  0.3387
 5531TIP3    H138084   4.228   0.479  11.391  0.4765 -0.1815  0.9847
 5531TIP3    H238085   4.145   0.597  11.436  2.8686  1.1395  2.0414
 5532TIP3   OH238086   5.538   1.474  16.783 -0.3682  0.4848  0.3239
 5532TIP3    H138087   5.489   1.411  16.730  1.4650 -0.7777  0.0420
 5532TIP3    H238088   5.492   1.557  16.773 -1.9073 -0.4750 -0.6122
 5533TIP3   OH238089   3.612   3.740   3.329 -0.6036  0.0359  0.0220
 5533TIP3    H138090   3.554   3.674   3.367  1.4897 -1.3940  0.8222
 5533TIP3    H238091   3.673   3.761   3.399  0.6409  0.5845 -1.2105
 5534TIP3   OH238092   2.972   1.731  14.716  0.0817 -0.2814  0.2914
 5534TIP3    H138093   2.971   1.637  14.736  0.5482 -0.3685 -0.0957
 5534TIP3    H238094   2.881   1.751  14.694 -0.2939 -0.3429  1.7261
 5535TIP3   OH238095   5.396   4.080   2.774 -0.5172  0.0286 -1.3704
 5535TIP3    H138096   5.424   4.154   2.827  0.0210 -1.1873  0.0898
 5535TIP3    H238097   5.457   4.078   2.700  0.0641  0.4729 -0.9043
 5536TIP3   OH238098   3.460   0.385  13.575  0.1065 -0.2324  0.1342
 5536TIP3    H138099   3.497   0.441  13.507 -1.0496  0.7727  0.3095
 5536TIP3    H238100   3.449   0.300  13.533 -0.0576  0.2288 -0.7665
 5537TIP3   OH238101   0.732   1.597   2.501 -0.3856 -0.2390  0.5735
 5537TIP3    H138102   0.745   1.502   2.512  0.7708 -0.1914 -0.2443
 5537TIP3    H238103   0.697   1.606   2.412  0.0012  0.1435  0.4614
 5538TIP3   OH238104   6.540   2.990   5.760 -0.4136 -0.2576  0.4448
 5538TIP3    H138105   6.540   3.047   5.683 -0.8063 -0.8154  0.0209
 5538TIP3    H238106   6.629   2.957   5.766 -0.1727  0.4349  0.7206
 5539TIP3   OH238107   5.074   1.118   3.420 -0.0392 -0.0465  0.3190
 5539TIP3    H138108   5.095   1.167   3.341 -0.4144 -1.1345 -0.4569
 5539TIP3    H238109   5.046   1.185   3.483  1.2887  0.9291 -0.1150
 5540TIP3   OH238110   0.446   1.077  14.235  0.7690  0.2098  0.2301
 5540TIP3    H138111   0.355   1.050  14.248  0.7480 -0.0895 -0.5380
 5540TIP3    H238112   0.495   0.995  14.236  1.0823  0.3950  0.9912
 5541TIP3   OH238113   4.819   1.532   4.985 -0.3192  0.3131  0.2269
 5541TIP3    H138114   4.743   1.489   5.024 -0.1091  0.6246  0.9834
 5541TIP3    H238115   4.803   1.527   4.891  0.4207 -2.7583  0.2157
 5542TIP3   OH238116   5.811   6.028  16.996 -0.7225  0.6735  0.4065
 5542TIP3    H138117   5.808   6.123  17.009  1.3823  0.7562  0.4693
 5542TIP3    H238118   5.752   5.993  17.063 -0.4541  1.8613  1.2833
 5543TIP3   OH238119   1.913   1.894  15.396  0.0756 -0.1950 -0.1528
 5543TIP3    H138120   1.902   1.820  15.336  0.2160 -0.3188 -0.0271
 5543TIP3    H238121   1.845   1.881  15.462 -1.5060  1.1375 -1.4761
 5544TIP3   OH238122   4.058   1.230  15.425  0.0935 -0.0741 -0.8084
 5544TIP3    H138123   3.993   1.167  15.457  0.1771 -0.7368 -1.8990
 5544TIP3    H238124   4.081   1.283  15.501  1.4588 -2.6192  0.6350
 5545TIP3   OH238125   0.529   6.253   5.715  0.6986 -0.1992  0.3164
 5545TIP3    H138126   0.449   6.214   5.679  1.8585  0.2195 -2.8164
 5545TIP3    H238127   0.509   6.346   5.724  1.5475  0.3139 -2.6835
 5546TIP3   OH238128   0.761   5.806  13.230  0.2657 -0.0895  0.0484
 5546TIP3    H138129   0.675   5.817  13.271 -0.4062  1.5874 -1.7065
 5546TIP3    H238130   0.812   5.882  13.261  0.0287  0.7162 -1.4688
 5547TIP3   OH238131   6.641   3.768   1.692  0.0101  0.4021  0.3771
 5547TIP3    H138132   6.559   3.759   1.644  0.1307  1.2900 -0.0113
 5547TIP3    H238133   6.623   3.832   1.760  0.5411  1.0570 -0.0897
 5548TIP3   OH238134   1.286   1.828   3.692  0.1663  0.1648 -0.0007
 5548TIP3    H138135   1.273   1.800   3.782 -2.5228 -3.0308 -1.2847
 5548TIP3    H238136   1.211   1.883   3.672  0.4153  0.3266 -0.5118
 5549TIP3   OH238137   5.516   6.346   1.522 -0.6101 -0.0031 -0.1449
 5549TIP3    H138138   5.606   6.324   1.500 -0.8584  0.0103 -1.2419
 5549TIP3    H238139   5.476   6.369   1.438 -2.0112 -1.3612  0.1192
 5550TIP3   OH238140   1.736   2.172  12.554 -0.4467  0.1272 -0.4276
 5550TIP3    H138141   1.818   2.150  12.510 -0.8721  0.3672 -1.3463
 5550TIP3    H238142   1.678   2.098  12.538 -0.2706 -0.2358  0.5877
 5551TIP3   OH238143   2.945   5.022  14.317  0.1300 -0.7558  0.2255
 5551TIP3    H138144   2.864   4.971  14.311 -0.1264 -0.2253 -1.0217
 5551TIP3    H238145   3.013   4.964  14.282 -0.3090  0.0458 -2.0317
 5552TIP3   OH238146   2.371   1.642   1.647  0.3689 -0.2670  0.2898
 5552TIP3    H138147   2.347   1.670   1.736  0.0457  3.0023 -0.7665
 5552TIP3    H238148   2.422   1.562   1.660  2.7143  1.6459  3.6285
 5553TIP3   OH238149   0.373   3.352  12.781  0.0406 -0.6427 -0.0116
 5553TIP3    H138150   0.324   3.427  12.749  0.2074 -0.6930 -0.3876
 5553TIP3    H238151   0.320   3.276  12.758  0.9746 -0.7943 -1.7104
 5554TIP3   OH238152   6.691   5.851   3.983 -0.0836  0.5014  0.1583
 5554TIP3    H138153   6.729   5.768   4.011 -1.5388 -0.1472  0.2669
 5554TIP3    H238154   6.611   5.827   3.936 -0.8888  1.8644  0.7833
 5555TIP3   OH238155   2.437   6.222   1.040 -0.0231  0.7372 -0.2010
 5555TIP3    H138156   2.366   6.180   0.991  1.0986 -0.2421 -1.0050
 5555TIP3    H238157   2.423   6.196   1.131 -0.5306  0.3235 -0.3993
 5556TIP3   OH238158   3.047   4.718   0.077  0.2451 -0.2559 -0.2094
 5556TIP3    H138159   3.055   4.814   0.069 -0.6065 -0.0493  1.3393
 5556TIP3    H238160   3.135   4.686   0.058  0.6393  0.8618 -0.3384
 5557TIP3   OH238161   0.344   1.655  14.461  0.0708  0.2402  0.9712
 5557TIP3    H138162   0.255   1.653  14.426 -0.4328 -1.1891  2.2576
 5557TIP3    H238163   0.389   1.721  14.409 -1.9366  1.4834  0.7530
 5558TIP3   OH238164   4.020   6.692  12.438 -0.2263 -0.0619 -0.2299
 5558TIP3    H138165   3.970   6.758  12.389  0.3004  0.1774 -0.4399
 5558TIP3    H238166   4.077   6.652  12.373 -0.4201 -0.6110 -0.0654
 5559TIP3   OH238167   0.622   1.373   5.079  0.0950 -0.1439  0.2278
 5559TIP3    H138168   0.536   1.379   5.120  0.6689  1.5745  1.2475
 5559TIP3    H238169   0.636   1.459   5.040  0.4245 -1.1182 -1.8714
 5560TIP3   OH238170   6.381   6.526   4.025  0.0738 -0.3783 -1.1124
 5560TIP3    H138171   6.304   6.473   4.004  0.0222 -0.4887 -0.6531
 5560TIP3    H238172   6.449   6.461   4.042 -0.2579 -0.3190  0.4795
 5561TIP3   OH238173   3.653   1.803  16.755 -0.4214 -0.1016 -0.2024
 5561TIP3    H138174   3.711   1.842  16.821 -1.2234  0.4295  0.1985
 5561TIP3    H238175   3.601   1.739  16.803  0.0898 -0.8366 -0.6342
 5562TIP3   OH238176   2.893   3.563   6.881  0.0114  0.2581 -0.4832
 5562TIP3    H138177   2.921   3.647   6.843 -0.4304  1.1710  1.1675
 5562TIP3    H238178   2.817   3.538   6.830  0.6025  0.4767 -1.4874
 5563TIP3   OH238179   0.966   0.861   2.489  0.1949  0.5001  0.5390
 5563TIP3    H138180   0.986   0.819   2.573 -0.7443  0.7517  0.8921
 5563TIP3    H238181   0.952   0.788   2.428  3.3418  0.2932 -0.0318
 5564TIP3   OH238182   6.305   4.634  12.485 -0.1531 -0.0982 -0.6641
 5564TIP3    H138183   6.221   4.622  12.441  0.3636 -1.5263 -1.2921
 5564TIP3    H238184   6.337   4.545  12.501  0.4471  0.4161  1.1039
 5565TIP3   OH238185   5.527   5.171  15.035 -0.4307 -0.0625 -0.6938
 5565TIP3    H138186   5.583   5.161  14.959 -1.0308 -0.3357 -1.1020
 5565TIP3    H238187   5.476   5.251  15.017  0.1536  0.4467 -0.1154
 5566TIP3   OH238188   1.905   5.464  13.897 -0.2073  0.0643 -0.1587
 5566TIP3    H138189   1.992   5.437  13.865  0.1062  0.3736  0.4289
 5566TIP3    H238190   1.923   5.516  13.975 -0.9395 -0.1210  0.1404
 5567TIP3   OH238191   1.754   2.679   2.091  0.3032  0.8670  0.5878
 5567TIP3    H138192   1.687   2.683   2.023  0.0510 -2.1069  0.5992
 5567TIP3    H238193   1.834   2.657   2.045  0.9113  2.4936  0.8271
 5568TIP3   OH238194   6.437   5.627  15.950 -0.3971  0.1362  0.1576
 5568TIP3    H138195   6.517   5.653  15.903 -1.4290 -0.9357 -2.2041
 5568TIP3    H238196   6.379   5.593  15.883 -2.7859  0.6685  1.9036
 5569TIP3   OH238197   6.341   1.355   3.308  0.0381 -0.0343 -0.1189
 5569TIP3    H138198   6.342   1.269   3.351 -1.4485 -0.4394 -0.8604
 5569TIP3    H238199   6.399   1.344   3.233 -1.8029 -1.0716 -1.4346
 5570TIP3   OH238200   3.963   6.505   0.596  0.0990 -0.2666  0.0383
 5570TIP3    H138201   3.891   6.561   0.624  0.9058  1.1927 -0.7299
 5570TIP3    H238202   4.036   6.565   0.582  1.3401 -1.6684  0.3826
 5571TIP3   OH238203   0.480   0.090  16.755 -0.2401 -0.4905 -0.0111
 5571TIP3    H138204   0.414   0.111  16.821 -1.6319 -1.1971 -1.1331
 5571TIP3    H238205   0.514   0.175  16.726  0.6963 -0.1978  1.9011
 5572TIP3   OH238206   1.562   1.083   2.564 -0.3191 -0.1414  0.2968
 5572TIP3    H138207   1.583   1.057   2.475  1.1988 -0.3379  0.6981
 5572TIP3    H238208   1.517   1.008   2.602  0.9783 -0.8927  0.3698
 5573TIP3   OH238209   0.050   0.873   3.813 -0.8374 -0.6287 -0.3326
 5573TIP3    H138210   0.028   0.802   3.875  1.3816 -0.8032  0.2875
 5573TIP3    H238211   0.130   0.843   3.769 -0.9558  0.6488 -1.4610
 5574TIP3   OH238212   0.274   1.034  13.116  0.1101 -0.2822 -0.9743
 5574TIP3    H138213   0.279   0.990  13.201  1.0300 -0.1095 -0.9354
 5574TIP3    H238214   0.227   1.116  13.133 -1.1534 -0.9934 -0.9484
 5575TIP3   OH238215   6.754   0.325   4.654 -0.3189 -0.3900  0.1954
 5575TIP3    H138216   6.769   0.231   4.670  0.7089 -0.3019 -0.1998
 5575TIP3    H238217   6.838   0.357   4.622 -1.3309  0.1604 -2.0517
 5576TIP3   OH238218   5.328   6.103   3.576 -0.3444 -0.2824 -0.3014
 5576TIP3    H138219   5.412   6.100   3.622  0.8775 -1.7090 -2.5434
 5576TIP3    H238220   5.350   6.087   3.484 -3.1485 -1.3362 -0.8417
 5577TIP3   OH238221   6.210   1.137  14.522 -0.9164 -0.3095  0.0342
 5577TIP3    H138222   6.171   1.211  14.475  0.1690  0.3229  0.0889
 5577TIP3    H238223   6.182   1.149  14.612  0.1577  0.6868  0.2527
 5578TIP3   OH238224   5.363   2.260   2.970 -0.5595 -0.1065 -0.0940
 5578TIP3    H138225   5.293   2.221   3.024 -1.5014  1.0658 -0.4527
 5578TIP3    H238226   5.359   2.210   2.888  0.2338 -1.2446  0.5390
 5579TIP3   OH238227   3.307   1.529   5.632 -0.4384  0.3691  0.1241
 5579TIP3    H138228   3.328   1.612   5.591 -2.7314  1.0995  0.3464
 5579TIP3    H238229   3.319   1.464   5.562 -0.6722  1.1526 -0.6555
 5580TIP3   OH238230   6.124   3.388  15.636  0.3446  0.3053  0.0854
 5580TIP3    H138231   6.213   3.366  15.611  0.0526 -0.6548 -0.1194
 5580TIP3    H238232   6.070   3.317  15.601 -0.3757  0.3329  1.0877
 5581TIP3   OH238233   3.814   2.907   2.649 -0.1314  0.0261  0.0939
 5581TIP3    H138234   3.887   2.968   2.640 -0.0525  0.4015  2.7163
 5581TIP3    H238235   3.747   2.957   2.696 -1.3316 -0.9153 -0.5910
 5582TIP3   OH238236   5.641   0.785  15.039  0.1627  0.3297 -0.1595
 5582TIP3    H138237   5.594   0.743  15.111 -2.2452  1.4412 -1.0116
 5582TIP3    H238238   5.723   0.737  15.032 -1.4949 -2.7166  0.4081
 5583TIP3   OH238239   2.500   5.942   5.876  0.2935 -0.6605  0.2631
 5583TIP3    H138240   2.557   5.941   5.799  1.7137 -0.9486  1.2875
 5583TIP3    H238241   2.443   6.018   5.864  1.3690  0.0437 -0.4543
 5584TIP3   OH238242   0.572   5.229   1.003  0.1270  0.0134 -0.2808
 5584TIP3    H138243   0.603   5.309   1.046  0.9194 -1.2672  1.5787
 5584TIP3    H238244   0.628   5.220   0.926  0.9116  0.5327  0.2202
 5585TIP3   OH238245   5.592   0.041  16.580  0.3286 -0.2921 -0.4700
 5585TIP3    H138246   5.656   0.028  16.650  1.8389  1.9271 -1.3947
 5585TIP3    H238247   5.644   0.048  16.500 -1.1016  0.8483 -1.3424
 5586TIP3   OH238248   0.272   1.972  11.396 -0.5330 -0.2991  0.6183
 5586TIP3    H138249   0.232   1.942  11.314 -1.4641  1.0241  0.5757
 5586TIP3    H238250   0.353   1.922  11.403  0.3887  0.7408 -1.9654
 5587TIP3   OH238251   5.176   6.299   2.462 -0.0351  0.1076  0.0488
 5587TIP3    H138252   5.268   6.324   2.473 -0.4123  1.0630  1.0998
 5587TIP3    H238253   5.148   6.344   2.382  0.0756  0.8105  0.4003
 5588TIP3   OH238254   3.924   0.481  16.888  0.0339 -0.3473  0.7562
 5588TIP3    H138255   3.919   0.470  16.983  0.9857 -4.7938  0.3844
 5588TIP3    H238256   4.012   0.454  16.865 -1.1354 -2.2762 -1.7050
 5589TIP3   OH238257   6.170   0.659  15.247 -0.8468 -1.1175 -0.0135
 5589TIP3    H138258   6.100   0.674  15.183 -0.0091 -0.7888 -0.8720
 5589TIP3    H238259   6.223   0.589  15.208  0.7139  0.3397 -0.5730
 5590TIP3   OH238260   1.728   4.437  10.780 -0.2507  0.1016  0.4320
 5590TIP3    H138261   1.792   4.413  10.713  0.2185 -1.6543  1.4984
 5590TIP3    H238262   1.676   4.507  10.740 -0.4214 -1.4026 -2.0027
 5591TIP3   OH238263   1.831   5.574  14.932  0.1759  0.0601  0.0184
 5591TIP3    H138264   1.892   5.608  14.998  1.2085 -0.5897 -0.5727
 5591TIP3    H238265   1.866   5.487  14.911 -0.9371 -0.2939 -0.3788
 5592TIP3   OH238266   5.852   0.740  11.969  0.0133  0.1033 -0.2458
 5592TIP3    H138267   5.891   0.663  12.012 -0.0134 -0.1735 -0.7154
 5592TIP3    H238268   5.924   0.778  11.919  0.0560  0.4555  0.0828
 5593TIP3   OH238269   4.510   0.868  13.845  0.5547  0.0038  0.4565
 5593TIP3    H138270   4.422   0.900  13.863 -0.1334 -2.1404  1.1476
 5593TIP3    H238271   4.562   0.946  13.832 -0.8851  1.4216  2.7677
 5594TIP3   OH238272   2.070   6.293   5.297 -0.1879 -0.5841 -0.4312
 5594TIP3    H138273   1.999   6.326   5.352 -2.9515 -0.3455 -3.9409
 5594TIP3    H238274   2.114   6.372   5.265 -1.9682 -0.4721 -2.7275
 5595TIP3   OH238275   3.498   0.125  11.167  0.4737 -0.1623  0.7010
 5595TIP3    H138276   3.440   0.200  11.160  0.7692  0.0834  0.8784
 5595TIP3    H238277   3.481   0.074  11.088 -1.5456 -1.2202  1.7692
 5596TIP3   OH238278   5.439   1.419  12.109  0.0796  0.7187 -0.4623
 5596TIP3    H138279   5.527   1.385  12.093 -0.0499 -0.7308  1.6945
 5596TIP3    H238280   5.382   1.358  12.062  0.1407  0.8436 -0.6996
 5597TIP3   OH238281   3.159   0.272   2.931 -0.3431 -0.0651 -0.3192
 5597TIP3    H138282   3.164   0.367   2.935  0.2733 -0.1458  0.7990
 5597TIP3    H238283   3.250   0.243   2.924 -0.3928 -0.6555  1.2306
 5598TIP3   OH238284   0.833   0.947   5.256  0.2579  0.4315 -0.1195
 5598TIP3    H138285   0.800   1.016   5.198  0.5760  1.1569  0.5620
 5598TIP3    H238286   0.924   0.934   5.229 -0.1780 -0.6500 -1.1212
 5599TIP3   OH238287   0.891   2.906  14.139 -0.4502 -0.3051  0.0905
 5599TIP3    H138288   0.879   2.811  14.144 -0.3178 -0.3266 -0.0172
 5599TIP3    H238289   0.858   2.938  14.224  1.2527 -0.6269  0.8911
 5600TIP3   OH238290   3.845   3.277  15.845  0.0826  0.2531  0.6660
 5600TIP3    H138291   3.880   3.298  15.932 -0.0611 -1.1702  1.0717
 5600TIP3    H238292   3.907   3.215  15.808 -0.7888 -0.5083  0.4645
 5601TIP3   OH238293   2.778   2.833  16.469 -0.0022 -0.6659  0.2464
 5601TIP3    H138294   2.811   2.746  16.446 -0.2113 -0.7394  0.2306
 5601TIP3    H238295   2.772   2.879  16.385  0.4827 -0.5032  0.2967
 5602TIP3   OH238296   3.729   0.713   1.685  0.5293  0.1114  0.1899
 5602TIP3    H138297   3.763   0.799   1.660  0.4903 -0.0298 -0.3620
 5602TIP3    H238298   3.805   0.666   1.717  0.2735  0.8683  1.9321
 5603TIP3   OH238299   3.218   3.249  12.951  0.2884 -0.8280  0.0233
 5603TIP3    H138300   3.221   3.340  12.922  0.1769 -0.5037  1.0004
 5603TIP3    H238301   3.304   3.213  12.927 -0.3902 -1.0382 -2.1541
 5604TIP3   OH238302   1.180   5.841  11.888 -0.5381 -0.4131 -0.1032
 5604TIP3    H138303   1.135   5.884  11.961  0.6678 -1.8487  1.5192
 5604TIP3    H238304   1.117   5.775  11.857  0.0268 -1.7796  1.5585
 5605TIP3   OH238305   1.060   3.877   5.876  0.1701 -0.2321 -0.2148
 5605TIP3    H138306   1.011   3.938   5.931  1.4670  1.0829 -0.4650
 5605TIP3    H238307   1.043   3.907   5.787  2.6846  1.2624 -0.2323
 5606TIP3   OH238308   0.348   3.889   6.398 -0.1388 -0.2376  0.3438
 5606TIP3    H138309   0.367   3.980   6.377  0.0531 -0.7968 -2.0628
 5606TIP3    H238310   0.291   3.859   6.326  1.0374 -2.4277  0.2682
 5607TIP3   OH238311   0.046   1.914  13.317  0.1835 -0.5256  0.6015
 5607TIP3    H138312   0.007   1.844  13.264  0.2945 -0.6561  0.6907
 5607TIP3    H238313   0.066   1.983  13.255  0.7885 -0.8871  0.3967
 5608TIP3   OH238314   1.022   3.636   4.883  0.0780  0.2520  0.5156
 5608TIP3    H138315   0.941   3.586   4.898  0.8354 -0.5033  2.1581
 5608TIP3    H238316   1.002   3.724   4.916  0.5789 -0.4760  2.8262
 5609TIP3   OH238317   3.020   2.720  12.637  0.2741  0.1357  0.2446
 5609TIP3    H138318   3.043   2.748  12.549  1.6928 -0.5222  0.4006
 5609TIP3    H238319   3.000   2.802  12.684  2.5302  0.7564  0.1717
 5610TIP3   OH238320   1.139   4.479  11.192  0.4798  0.1557 -0.3232
 5610TIP3    H138321   1.114   4.387  11.201 -0.5433  0.4789  0.1990
 5610TIP3    H238322   1.123   4.517  11.278  1.5184  0.6849 -0.3528
 5611TIP3   OH238323   0.715   3.254   3.840 -0.1376  0.2058 -0.3051
 5611TIP3    H138324   0.698   3.286   3.929  0.2820 -0.7504  0.1295
 5611TIP3    H238325   0.786   3.190   3.851 -0.9461 -0.8628 -1.1413
 5612TIP3   OH238326   0.456   3.039   4.546  0.1552 -0.9850 -0.0714
 5612TIP3    H138327   0.526   2.982   4.579  0.0377 -0.8987  0.3244
 5612TIP3    H238328   0.440   3.007   4.457  0.1073 -1.5546  0.1393
 5613TIP3   OH238329   1.830   2.589  11.380  0.5706  0.3830 -0.2745
 5613TIP3    H138330   1.816   2.515  11.439 -2.6936  0.4538 -0.8703
 5613TIP3    H238331   1.857   2.549  11.297 -0.6585 -0.1526 -0.4347
 5614TIP3   OH238332   5.005   0.610   3.888  0.2333  0.5182  0.2473
 5614TIP3    H138333   5.094   0.580   3.871  0.0069  0.4527 -0.8008
 5614TIP3    H238334   4.977   0.560   3.965  0.4218 -0.8257 -0.5578
 5615TIP3   OH238335   6.173   6.672  15.493  0.2711 -0.4815  0.0129
 5615TIP3    H138336   6.251   6.716  15.458  1.3554 -1.1452  1.5141
 5615TIP3    H238337   6.135   6.735  15.554  0.2227 -0.5532  0.0573
 5616TIP3   OH238338   5.249   4.052  13.109 -0.2090 -0.7771 -0.7188
 5616TIP3    H138339   5.187   4.124  13.120  1.0289  0.0759  1.0883
 5616TIP3    H238340   5.228   3.991  13.179  2.6401  0.8234  1.6713
 5617TIP3   OH238341   5.343   2.444  12.552  0.0478  0.3322 -0.5191
 5617TIP3    H138342   5.278   2.435  12.481 -0.5679  0.1056  0.0701
 5617TIP3    H238343   5.291   2.469  12.628  0.5991 -0.3084  0.0688
 5618TIP3   OH238344   5.651   4.552  14.250 -0.8114  0.5684  0.1091
 5618TIP3    H138345   5.659   4.464  14.287 -1.1143  1.7233  3.0750
 5618TIP3    H238346   5.723   4.560  14.188 -0.2177 -1.4305  0.5313
 5619TIP3   OH238347   6.749   0.521  14.232 -0.0108  0.4140 -0.1985
 5619TIP3    H138348   6.803   0.566  14.167 -0.9402  0.9095 -0.6397
 5619TIP3    H238349   6.764   0.428  14.215  0.4658  0.5462 -0.5171
 5620TIP3   OH238350   1.793   4.069  11.548  0.0743  0.2769  0.4337
 5620TIP3    H138351   1.709   4.103  11.518  0.3526 -0.5827 -1.4291
 5620TIP3    H238352   1.858   4.132  11.517  0.1316  0.9594  1.9018
 5621TIP3   OH238353   4.698   1.024  12.881  0.0210  0.6445 -0.2048
 5621TIP3    H138354   4.779   1.045  12.928  1.2024  1.1579 -2.3695
 5621TIP3    H238355   4.728   0.981  12.801 -1.9091  0.1355 -0.6837
 5622TIP3   OH238356   4.507   1.112  11.561 -0.6654 -0.0303  0.4844
 5622TIP3    H138357   4.502   1.078  11.651  0.1760 -0.4731  0.3690
 5622TIP3    H238358   4.554   1.195  11.570 -1.8045  0.5932  0.6326
 5623TIP3   OH238359   2.570   5.244   0.335 -0.3205 -0.3366  1.0678
 5623TIP3    H138360   2.561   5.310   0.267 -0.8275 -0.8649  0.6139
 5623TIP3    H238361   2.556   5.291   0.417 -0.0424  0.2375  0.7856
 5624TIP3   OH238362   6.641   4.903  12.611 -0.0472 -1.0760  0.3075
 5624TIP3    H138363   6.548   4.890  12.629 -0.3409  0.3662 -0.1023
 5624TIP3    H238364   6.643   4.968  12.540  1.2518 -1.5458 -0.1058
 5625TIP3   OH238365   5.080   6.239   0.603  0.2586 -0.3416 -0.1035
 5625TIP3    H138366   5.030   6.311   0.643 -1.5630 -0.4940 -1.9849
 5625TIP3    H238367   5.168   6.274   0.591 -0.2817  1.1508  0.1752
 5626TIP3   OH238368   0.414   2.808   0.288  0.0293  0.1459 -0.0145
 5626TIP3    H138369   0.424   2.746   0.361  0.4165 -0.2016 -0.3580
 5626TIP3    H238370   0.405   2.752   0.211 -1.2120  0.5016 -0.1338
 5627TIP3   OH238371   1.463   4.526  12.637  0.5439 -0.5949 -0.3943
 5627TIP3    H138372   1.471   4.620  12.624 -0.5753 -0.7690 -2.3765
 5627TIP3    H238373   1.453   4.516  12.732 -1.1602  1.4245 -0.3290
 5628TIP3   OH238374   0.314   5.913   3.727 -0.1666 -0.1198 -0.0798
 5628TIP3    H138375   0.257   5.939   3.654  0.1067  0.7603  0.0128
 5628TIP3    H238376   0.399   5.900   3.686 -0.0906  0.0508  0.0225
 5629TIP3   OH238377   1.560   0.378   3.375  0.2561 -0.1605 -0.2180
 5629TIP3    H138378   1.554   0.443   3.446  1.7057 -0.0261 -0.2151
 5629TIP3    H238379   1.591   0.428   3.299 -1.6151 -0.2332 -1.0571
 5630TIP3   OH238380   4.345   4.743  17.195 -0.0178  0.1401  0.0884
 5630TIP3    H138381   4.419   4.803  17.204  0.2483 -0.4139  1.7813
 5630TIP3    H238382   4.274   4.797  17.160  0.9382  0.8547 -0.8025
 5631TIP3   OH238383   4.798   2.738  13.196 -0.3183  0.2031 -0.4376
 5631TIP3    H138384   4.818   2.667  13.257 -0.9158 -0.6175 -1.1926
 5631TIP3    H238385   4.874   2.742  13.138 -0.3972  0.0085 -0.5553
 5632TIP3   OH238386   4.736   5.804  14.326  0.0418 -0.8582 -0.1202
 5632TIP3    H138387   4.683   5.856  14.386 -0.1297 -1.1586 -0.0071
 5632TIP3    H238388   4.824   5.839  14.334 -0.7395  1.9387 -2.8357
 5633TIP3   OH238389   2.550   5.665   0.559 -0.5166 -0.1827  0.4731
 5633TIP3    H138390   2.555   5.719   0.638  0.2410 -1.2554  1.1845
 5633TIP3    H238391   2.466   5.688   0.519  0.0860  1.9936  0.3867
 5634TIP3   OH238392   5.773   0.088   0.966 -0.0340  0.0838  0.0259
 5634TIP3    H138393   5.861   0.119   0.988 -0.2919  0.3260  0.7266
 5634TIP3    H238394   5.715   0.137   1.024 -0.4678 -1.5450  0.9877
 5635TIP3   OH238395   1.941   3.457  15.478 -0.3437 -0.3386 -0.8183
 5635TIP3    H138396   1.995   3.394  15.527 -1.7110  0.0802  1.2580
 5635TIP3    H238397   1.876   3.403  15.433 -0.1953 -0.5801 -0.7455
 5636TIP3   OH238398   2.001   4.459  16.189 -0.0581 -0.2018 -0.5158
 5636TIP3    H138399   2.039   4.375  16.212  1.1476  0.1345 -1.2463
 5636TIP3    H238400   1.942   4.480  16.262  1.4721 -0.5346  0.8409
 5637TIP3   OH238401   2.771   0.373  12.514 -0.6995  0.0091  0.3495
 5637TIP3    H138402   2.798   0.350  12.424  0.7297 -1.0941  1.0274
 5637TIP3    H238403   2.733   0.460  12.506  0.6909  0.5161 -1.1183
 5638TIP3   OH238404   6.645   5.139  12.388  0.0777 -0.0468 -0.8092
 5638TIP3    H138405   6.637   5.151  12.293  0.1873  1.1081 -0.6885
 5638TIP3    H238406   6.557   5.114  12.416  0.0207 -0.2974 -1.2010
 5639TIP3   OH238407   2.193   6.775  12.879 -0.1898 -0.2550  0.3153
 5639TIP3    H138408   2.242   6.820  12.810  0.8815  0.1836  1.3234
 5639TIP3    H238409   2.260   6.750  12.943 -1.1370 -0.7888  1.1157
 5640TIP3   OH238410   2.203   3.319  14.609  0.3115  0.1424 -0.3264
 5640TIP3    H138411   2.265   3.391  14.603  2.3998 -1.6545 -0.9511
 5640TIP3    H238412   2.143   3.332  14.536  1.8756  0.1801 -1.6381
 5641TIP3   OH238413   0.998   4.715  13.464  0.6127 -0.2173 -0.0573
 5641TIP3    H138414   0.969   4.646  13.405  2.0596 -0.6944 -0.2318
 5641TIP3    H238415   1.036   4.668  13.538 -0.6506  0.3783  0.9981
 5642TIP3   OH238416   1.534   5.867  15.812 -0.1522 -0.4984 -0.4386
 5642TIP3    H138417   1.573   5.950  15.840  1.0739 -0.8359 -1.1039
 5642TIP3    H238418   1.481   5.839  15.886  1.6828 -0.5295  0.8920
 5643TIP3   OH238419   0.628   6.082   1.141  0.1293 -0.3158 -0.1358
 5643TIP3    H138420   0.610   6.157   1.197  0.7912 -0.2304 -0.0292
 5643TIP3    H238421   0.576   6.097   1.062 -0.5008 -0.2428  0.2977
 5644TIP3   OH238422   0.687   6.591  11.979 -0.0175  0.3684  0.0416
 5644TIP3    H138423   0.726   6.520  11.928 -1.8510 -0.7493  0.1703
 5644TIP3    H238424   0.633   6.639  11.917  0.9781  1.5186  0.0236
 5645TIP3   OH238425   4.770   5.765  11.623 -0.0002  0.2479 -0.0343
 5645TIP3    H138426   4.825   5.802  11.553 -0.2595 -0.9023 -0.8683
 5645TIP3    H238427   4.727   5.690  11.582  0.6987 -1.1193  1.6667
 5646TIP3   OH238428   3.027   1.824   2.612  0.7912  0.1489  0.1720
 5646TIP3    H138429   3.000   1.908   2.651  0.4149 -0.1549  0.5710
 5646TIP3    H238430   3.062   1.774   2.685  0.5630 -0.2274  0.0260
 5647TIP3   OH238431   2.978   0.803  16.737 -0.1451  0.3119 -0.4654
 5647TIP3    H138432   2.968   0.707  16.735 -0.4404  0.3499 -1.0280
 5647TIP3    H238433   3.072   0.818  16.727  0.4427 -0.0292  3.7288
 5648TIP3   OH238434   0.988   0.543  14.079  0.0406 -0.1526 -0.5891
 5648TIP3    H138435   0.954   0.527  13.991  0.7255  0.1337 -0.9110
 5648TIP3    H238436   1.030   0.629  14.073 -0.1069 -0.0275  0.0779
 5649TIP3   OH238437   4.757   2.323  10.700  0.3562  0.1504  0.0433
 5649TIP3    H138438   4.684   2.335  10.760  0.3202  3.0807 -0.5027
 5649TIP3    H238439   4.834   2.350  10.751  0.6403  0.2235 -0.4246
 5650TIP3   OH238440   1.616   5.798   4.284 -0.4690  0.0884 -0.5746
 5650TIP3    H138441   1.587   5.744   4.358 -1.8623  2.1586  0.4377
 5650TIP3    H238442   1.646   5.880   4.325  0.8175  0.4266 -2.1392
 5651TIP3   OH238443   2.688   2.668  14.055  0.2450 -1.2340  0.0233
 5651TIP3    H138444   2.736   2.693  14.134  0.7444 -0.5854 -0.4814
 5651TIP3    H238445   2.600   2.646  14.086  0.2968 -0.5074  0.7063
 5652TIP3   OH238446   1.131   5.385   5.736 -0.0286 -0.3464 -0.0231
 5652TIP3    H138447   1.082   5.381   5.654 -3.7168 -0.7015  2.0472
 5652TIP3    H238448   1.106   5.470   5.773  1.9271 -0.0064  0.5480
 5653TIP3   OH238449   1.369   3.572  16.584 -0.0174 -0.1901  0.1071
 5653TIP3    H138450   1.295   3.534  16.536  1.5661 -1.2003 -1.6085
 5653TIP3    H238451   1.390   3.652  16.535 -1.3521  1.3031  1.8905
 5654TIP3   OH238452   0.352   3.503  16.536 -0.8687  0.2113  0.3393
 5654TIP3    H138453   0.433   3.532  16.495 -0.8739  2.3477  1.7812
 5654TIP3    H238454   0.380   3.445  16.607 -0.7493 -1.3613 -0.9711
 5655TIP3   OH238455   3.724   4.690   2.605 -0.3598  0.1307  0.5824
 5655TIP3    H138456   3.726   4.618   2.668 -1.9166 -1.0297 -0.6634
 5655TIP3    H238457   3.652   4.745   2.634 -2.3662 -1.4548 -1.2780
 5656TIP3   OH238458   3.310   0.746  13.218 -0.4322  0.5219 -0.0910
 5656TIP3    H138459   3.317   0.720  13.126  0.4277  1.9756 -0.4537
 5656TIP3    H238460   3.302   0.841  13.215  0.1115  0.6193  1.3647
 5657TIP3   OH238461   1.522   6.696  13.759 -0.2480 -0.9818  0.0401
 5657TIP3    H138462   1.549   6.749  13.684 -0.3661 -0.4330  0.3834
 5657TIP3    H238463   1.441   6.654  13.731 -1.5678  1.0469  0.6684
 5658TIP3   OH238464   3.757   6.820   6.402  0.8031 -0.5449 -0.0294
 5658TIP3    H138465   3.769   6.725   6.391 -0.0286 -0.7218  0.5333
 5658TIP3    H238466   3.666   6.829   6.432  0.1613  0.6104 -2.2419
 5659TIP3   OH238467   4.991   5.493   1.155 -0.3280 -0.0325 -0.0951
 5659TIP3    H138468   4.979   5.588   1.154 -1.2270 -0.0933  2.1775
 5659TIP3    H238469   4.903   5.458   1.143 -0.0577 -0.5834 -0.4735
 5660TIP3   OH238470   4.773   1.447   2.156  0.4408 -0.3727 -0.3876
 5660TIP3    H138471   4.752   1.362   2.117 -2.8240 -0.6399  1.7896
 5660TIP3    H238472   4.718   1.509   2.109 -0.7973 -0.1831  1.2841
 5661TIP3   OH238473   0.032   4.912  10.727  0.4169  0.0076  0.3776
 5661TIP3    H138474  -0.056   4.873  10.734  0.0389  0.5715 -0.9283
 5661TIP3    H238475   0.037   4.942  10.636  1.3870  1.3935  0.8729
 5662TIP3   OH238476   2.501   4.036   2.147 -0.2452  0.2961  0.0257
 5662TIP3    H138477   2.576   4.051   2.090  0.9873 -1.3068  1.1498
 5662TIP3    H238478   2.449   3.970   2.102 -0.3465  0.5362 -0.2062
 5663TIP3   OH238479   2.767   2.321   0.123 -0.0035  0.3423  0.0871
 5663TIP3    H138480   2.682   2.321   0.167 -0.0040 -0.6064  0.1039
 5663TIP3    H238481   2.807   2.238   0.150  1.0253  0.8934  0.2671
 5664TIP3   OH238482   1.754   3.706   4.529  0.0316 -0.3560  0.0079
 5664TIP3    H138483   1.837   3.743   4.498 -0.4716  0.8454  0.0671
 5664TIP3    H238484   1.772   3.681   4.620 -0.4636  2.6577  1.0173
 5665TIP3   OH238485   2.671   2.828  13.365 -0.3250 -0.1144 -0.3610
 5665TIP3    H138486   2.617   2.775  13.423 -0.9559  0.1331 -0.7170
 5665TIP3    H238487   2.682   2.911  13.412  0.7359 -0.5873  0.2359
 5666TIP3   OH238488   1.271   5.136  16.840 -0.1000 -0.2053  0.2765
 5666TIP3    H138489   1.361   5.113  16.865 -0.4434 -0.2490  1.4882
 5666TIP3    H238490   1.225   5.053  16.840 -0.3983 -0.0382  0.7192
 5667TIP3   OH238491   2.109   5.265   2.929  0.0276  0.4203  0.5551
 5667TIP3    H138492   2.178   5.204   2.903  0.0358  1.0675 -0.9991
 5667TIP3    H238493   2.069   5.225   3.006  1.4535 -0.4735  0.8418
 5668TIP3   OH238494   4.405   4.272  12.735  0.6341 -0.1176  0.2346
 5668TIP3    H138495   4.313   4.250  12.747  0.7549 -0.6777  0.1128
 5668TIP3    H238496   4.412   4.362  12.769  0.2165 -0.3704  1.0154
 5669TIP3   OH238497   5.620   2.015   1.470  0.2357  0.0052  0.3694
 5669TIP3    H138498   5.604   2.098   1.426 -0.0159 -0.9852 -1.4940
 5669TIP3    H238499   5.548   1.958   1.441 -0.3375 -0.4738  2.6580
 5670TIP3   OH238500   1.823   2.317   2.515  0.0290  0.0097  0.2345
 5670TIP3    H138501   1.908   2.351   2.485  0.1330  0.2970  0.8514
 5670TIP3    H238502   1.838   2.292   2.606 -1.0520  1.8787  0.9510
 5671TIP3   OH238503   1.595   0.256   5.591  0.0062 -0.0060  0.0813
 5671TIP3    H138504   1.553   0.291   5.512 -1.3371 -0.4690  0.5805
 5671TIP3    H238505   1.649   0.328   5.623  0.7693  0.0973 -1.4095
 5672TIP3   OH238506   6.744   4.971   1.255 -1.2433  0.1328 -0.6778
 5672TIP3    H138507   6.824   4.987   1.306 -1.3266  2.6615 -1.2746
 5672TIP3    H238508   6.682   4.935   1.319 -0.7826  1.6241  0.6632
 5673TIP3   OH238509   1.565   3.344   2.014  0.2261  0.1844 -0.5694
 5673TIP3    H138510   1.515   3.294   2.078  0.4478 -0.9484 -1.2756
 5673TIP3    H238511   1.542   3.436   2.032  0.0637 -0.1361  0.9279
 5674TIP3   OH238512   4.711   4.444  11.420 -0.3550  0.0147  0.1291
 5674TIP3    H138513   4.738   4.367  11.471 -1.1036  0.6056  1.4420
 5674TIP3    H238514   4.792   4.492  11.405 -0.2378  0.2853  1.5372
 5675TIP3   OH238515   6.515   4.651   5.971 -0.2693  0.4703 -0.1120
 5675TIP3    H138516   6.566   4.730   5.987 -0.2799  0.4557 -0.0013
 5675TIP3    H238517   6.428   4.683   5.945 -0.4580  0.4914  0.5400
 5676TIP3   OH238518   6.780   0.275  11.128  0.1274 -0.1959 -0.1192
 5676TIP3    H138519   6.857   0.253  11.181  0.2587 -0.5165 -0.4455
 5676TIP3    H238520   6.766   0.198  11.072 -1.2988 -0.7370  0.9525
 5677TIP3   OH238521   5.698   0.639   3.640  0.2126  0.4622  0.1390
 5677TIP3    H138522   5.624   0.699   3.637 -0.4452 -0.2515  1.7758
 5677TIP3    H238523   5.738   0.653   3.726 -0.2485 -1.7677  0.7567
 5678TIP3   OH238524   0.069   1.905   3.475 -0.3028  0.3104 -0.2006
 5678TIP3    H138525  -0.017   1.870   3.497  0.1522  0.3677  1.7507
 5678TIP3    H238526   0.130   1.855   3.530  0.8577  0.6466 -1.1581
 5679TIP3   OH238527   5.506   4.617  15.061 -1.0151  0.2004  0.3802
 5679TIP3    H138528   5.525   4.621  15.155  0.8277  0.5058  0.0087
 5679TIP3    H238529   5.489   4.524  15.044  0.4821 -0.1334  0.6791
 5680TIP3   OH238530   1.716   5.293  17.102 -0.1457 -0.4110 -0.3474
 5680TIP3    H138531   1.649   5.230  17.075 -1.6623  1.2501 -0.6049
 5680TIP3    H238532   1.776   5.298  17.028 -1.2958  0.1149 -1.2674
 5681TIP3   OH238533   1.621   6.437  12.157 -0.4238 -0.6098  0.1491
 5681TIP3    H138534   1.708   6.428  12.198  0.2360 -2.1920 -1.5686
 5681TIP3    H238535   1.561   6.446  12.231  1.0562 -0.7538  1.3957
 5682TIP3   OH238536   5.364   4.493   2.408  0.6370 -0.0531 -0.2230
 5682TIP3    H138537   5.287   4.549   2.404  0.2172 -0.5334  1.0869
 5682TIP3    H238538   5.366   4.461   2.498  3.3655  1.4027  0.3127
 5683TIP3   OH238539   4.436   5.476   2.636  0.3129  0.3028 -0.7113
 5683TIP3    H138540   4.500   5.489   2.567 -0.1554  0.1191 -1.1828
 5683TIP3    H238541   4.360   5.528   2.609  0.3031  0.6176 -0.0972
 5684TIP3   OH238542   3.199   3.955   4.499  0.2944 -0.3772  0.4852
 5684TIP3    H138543   3.179   3.964   4.593  1.0047 -0.8821  0.6874
 5684TIP3    H238544   3.269   4.018   4.484  1.2267 -1.3687  0.6275
 5685TIP3   OH238545   3.579   1.598   1.545 -0.1710  0.3662  0.0950
 5685TIP3    H138546   3.650   1.605   1.481 -1.4295 -0.1229 -1.3874
 5685TIP3    H238547   3.547   1.687   1.555  0.8526  0.6411  1.0174
 5686TIP3   OH238548   1.642   5.053  15.322 -0.8196 -0.2841 -0.1657
 5686TIP3    H138549   1.670   5.136  15.359  0.2147 -0.1302 -1.2902
 5686TIP3    H238550   1.587   5.014  15.390  1.0812 -0.0160  1.5697
 5687TIP3   OH238551   3.395   3.948   4.992 -0.1227 -0.2171 -0.6314
 5687TIP3    H138552   3.362   3.990   5.071  0.0405 -0.2209 -0.5610
 5687TIP3    H238553   3.319   3.906   4.953 -0.0673 -0.8297 -0.0939
 5688TIP3   OH238554   0.175   3.316  13.319 -0.7885 -0.2173 -0.2579
 5688TIP3    H138555   0.150   3.223  13.323  0.0502 -0.4206  0.4650
 5688TIP3    H238556   0.191   3.340  13.410 -2.9919  1.2078 -0.2277
 5689TIP3   OH238557   1.937   5.818   4.845  0.6352  0.7178 -0.0970
 5689TIP3    H138558   1.959   5.911   4.852  1.2356  0.5781 -0.0987
 5689TIP3    H238559   2.013   5.778   4.804 -0.6348  0.6278 -2.4659
 5690TIP3   OH238560   3.858   5.259   6.203 -0.3999  0.5607  0.1941
 5690TIP3    H138561   3.906   5.304   6.273 -3.1884 -0.0720  2.5690
 5690TIP3    H238562   3.771   5.299   6.204 -0.7481 -0.0102 -2.4425
 5691TIP3   OH238563   4.436   5.623   0.909 -0.5939 -0.2871  0.1419
 5691TIP3    H138564   4.523   5.641   0.876 -0.3024  1.0980  1.5868
 5691TIP3    H238565   4.441   5.533   0.942  0.0170 -0.5279 -0.5970
 5692TIP3   OH238566   1.099   6.150  12.213  0.0624  0.4085 -0.0953
 5692TIP3    H138567   1.130   6.142  12.304  1.3444 -0.0045 -0.5537
 5692TIP3    H238568   1.076   6.242  12.204  0.4951  0.5786  0.4811
 5693TIP3   OH238569   1.893   2.678   2.608 -0.2759  0.2946 -0.1251
 5693TIP3    H138570   1.926   2.713   2.692 -1.1157  0.2289  0.2390
 5693TIP3    H238571   1.921   2.587   2.608 -0.4637  0.2321  0.1968
 5694TIP3   OH238572   5.845   3.577  14.653  0.7625  0.0760  0.3472
 5694TIP3    H138573   5.857   3.649  14.715  0.9673  0.8595 -0.5929
 5694TIP3    H238574   5.774   3.606  14.595 -0.1295 -1.0857  0.8394
 5695TIP3   OH238575   0.674   1.059  12.624  0.2739 -0.5771 -0.1894
 5695TIP3    H138576   0.731   0.991  12.588 -0.3754 -1.6814  0.8176
 5695TIP3    H238577   0.635   1.101  12.547 -0.5212 -2.4027 -0.8038
 5696TIP3   OH238578   0.500   0.312  15.953  0.3944  0.1729  0.1817
 5696TIP3    H138579   0.507   0.389  16.009 -0.8432 -0.4755  1.2402
 5696TIP3    H238580   0.406   0.301  15.938  0.5345 -1.3305  0.3155
 5697TIP3   OH238581   5.548   4.342   1.803 -0.2807  0.0645  0.2405
 5697TIP3    H138582   5.570   4.264   1.853 -0.2239  0.8125  1.4133
 5697TIP3    H238583   5.469   4.318   1.754  0.1141 -0.9279  0.0769
 5698TIP3   OH238584   5.222   4.840  10.680  0.2048 -0.0007  0.2174
 5698TIP3    H138585   5.183   4.781  10.616  1.5108 -1.0199  0.3554
 5698TIP3    H238586   5.227   4.789  10.761  2.0302  0.0181  0.1401
 5699TIP3   OH238587   6.707   0.192  15.481 -0.8743  0.2057 -0.0481
 5699TIP3    H138588   6.677   0.206  15.391 -1.6822  0.7563  0.3113
 5699TIP3    H238589   6.771   0.261  15.495 -0.6001 -0.0003 -0.2617
 5700TIP3   OH238590   0.996   2.793   1.285  0.3318  0.1547 -0.3255
 5700TIP3    H138591   0.951   2.860   1.337  1.8706  1.0050 -0.0624
 5700TIP3    H238592   0.950   2.711   1.306 -0.7504  0.9240  0.3268
 5701TIP3   OH238593   3.770   3.320   0.565 -0.6370 -0.5525 -0.4503
 5701TIP3    H138594   3.852   3.284   0.530  0.7514  0.4688  1.6248
 5701TIP3    H238595   3.728   3.246   0.609 -0.5987 -0.9640 -1.0985
 5702TIP3   OH238596   4.089   5.387   2.774 -0.2638 -0.0235  0.2008
 5702TIP3    H138597   4.013   5.392   2.716  0.2931 -1.3716 -0.6785
 5702TIP3    H238598   4.103   5.293   2.788 -0.3795  0.2865  2.5404
 5703TIP3   OH238599   0.868   2.823  13.713 -0.4498 -0.7677 -0.3494
 5703TIP3    H138600   0.896   2.771  13.637  1.0413  2.4913 -2.1484
 5703TIP3    H238601   0.944   2.824  13.771  0.9332  2.4762 -2.1036
 5704TIP3   OH238602   0.753   3.441   0.762  0.2110 -0.4730  0.5573
 5704TIP3    H138603   0.667   3.467   0.792  0.7189 -0.1461  1.7447
 5704TIP3    H238604   0.764   3.352   0.793 -0.2420 -1.0033 -0.7719
 5705TIP3   OH238605   4.065   2.744   0.651  0.3453  0.8366  0.1308
 5705TIP3    H138606   4.074   2.787   0.736 -0.1806 -1.0154  1.1712
 5705TIP3    H238607   4.150   2.755   0.609  0.8964  1.0209  1.2755
 5706TIP3   OH238608   0.466   1.733   3.450 -0.3589  0.0473 -0.1906
 5706TIP3    H138609   0.460   1.824   3.421 -0.4442 -0.0442 -0.4599
 5706TIP3    H238610   0.539   1.697   3.400 -0.0094  0.1034  0.2772
 5707TIP3   OH238611   1.624   0.464   1.902 -0.4890 -0.2284  0.1273
 5707TIP3    H138612   1.673   0.546   1.894  0.6683 -0.7902  1.2463
 5707TIP3    H238613   1.551   0.474   1.841  0.5713  0.9601 -1.0015
 5708TIP3   OH238614   6.572   5.834  16.290  0.1544  0.1342 -0.2283
 5708TIP3    H138615   6.646   5.891  16.269  0.8700 -0.5648  0.3671
 5708TIP3    H238616   6.611   5.747  16.300 -0.7153 -0.1977  0.2952
 5709TIP3   OH238617   5.144   2.800   5.615  0.1208 -0.0454 -0.6624
 5709TIP3    H138618   5.194   2.719   5.629  1.8374  1.0342 -0.4219
 5709TIP3    H238619   5.195   2.867   5.661 -1.3978  1.1411 -0.6945
 5710TIP3   OH238620   1.675   2.462  16.729 -0.0673 -0.2268 -0.7802
 5710TIP3    H138621   1.629   2.533  16.776  0.0223 -1.0751  0.6205
 5710TIP3    H238622   1.759   2.501  16.704 -0.2194  0.3163 -0.4642
 5711TIP3   OH238623   0.544   6.735  12.277  0.6601  0.2079  0.1141
 5711TIP3    H138624   0.539   6.775  12.190 -0.8246  1.0347  0.5743
 5711TIP3    H238625   0.533   6.641  12.261 -1.5326  0.5333 -0.4179
 5712TIP3   OH238626   3.819   3.050  14.887  0.3562 -0.3390  0.8624
 5712TIP3    H138627   3.824   3.073  14.979 -4.2032  0.4721  1.0263
 5712TIP3    H238628   3.833   3.133  14.841 -0.7684 -0.0911  0.9568
 5713TIP3   OH238629   5.715   2.335  16.308  0.1135  0.3180 -0.3406
 5713TIP3    H138630   5.633   2.381  16.329  1.0460  3.2332 -2.7207
 5713TIP3    H238631   5.740   2.292  16.390 -3.7599 -0.5973  0.4471
 5714TIP3   OH238632   5.179   0.926  11.162 -0.2574  0.0071  0.4434
 5714TIP3    H138633   5.209   0.871  11.090 -2.3174 -0.7635  0.1289
 5714TIP3    H238634   5.259   0.962  11.200  0.9470 -0.7720 -1.2716
 5715TIP3   OH238635   0.469   3.890   4.763 -0.8069 -0.2299  0.2101
 5715TIP3    H138636   0.499   3.907   4.674 -0.1247  1.7767  0.7837
 5715TIP3    H238637   0.399   3.825   4.754 -0.6922 -0.0868 -1.7645
 5716TIP3   OH238638   4.486   6.179   0.006 -0.1742  0.3339  0.1882
 5716TIP3    H138639   4.525   6.177   0.094 -1.8683 -0.7660  0.9365
 5716TIP3    H238640   4.547   6.231  -0.046  2.6094 -1.8124  1.1743
 5717TIP3   OH238641   2.135   1.173   1.805 -0.0654  0.2668 -0.5188
 5717TIP3    H138642   2.184   1.108   1.754  1.2443  1.5788 -0.9601
 5717TIP3    H238643   2.102   1.124   1.881  0.6286 -0.9814 -1.0102
 5718TIP3   OH238644   3.894   0.785  15.498  0.1806  0.0582  0.9225
 5718TIP3    H138645   3.859   0.809  15.583  0.0957 -0.5123  1.0459
 5718TIP3    H238646   3.927   0.867  15.462 -0.5688  0.4531  1.1354
 5719TIP3   OH238647   4.613   5.847   6.078 -0.0669 -0.0481 -0.1913
 5719TIP3    H138648   4.679   5.875   6.141  0.4152  0.6741 -1.0102
 5719TIP3    H238649   4.535   5.829   6.131  0.7185 -0.7045  0.7514
 5720TIP3   OH238650   4.147   4.180   5.712  0.1529 -0.0486  0.3306
 5720TIP3    H138651   4.118   4.104   5.662  0.9687 -0.1938  0.0717
 5720TIP3    H238652   4.081   4.247   5.694  0.6211  0.0124 -1.2170
 5721TIP3   OH238653   5.762   2.872   3.033 -0.1062  0.4496  0.1060
 5721TIP3    H138654   5.825   2.820   3.082  0.1622  1.5185  0.9256
 5721TIP3    H238655   5.815   2.930   2.978 -0.3906  0.2421 -0.3904
 5722TIP3   OH238656   1.743   4.831  16.584  0.5404  0.1084  0.1661
 5722TIP3    H138657   1.812   4.884  16.544 -0.7107  1.1926 -0.6108
 5722TIP3    H238658   1.721   4.878  16.665  1.1954 -0.6238  0.7820
 5723TIP3   OH238659   0.393   5.705  13.570  0.0449 -1.0400  0.1420
 5723TIP3    H138660   0.452   5.639  13.606 -0.6984 -1.6214  0.3115
 5723TIP3    H238661   0.316   5.656  13.542 -0.5776 -0.2315  0.3946
 5724TIP3   OH238662   0.181   5.519  13.448  0.0394 -0.2531  0.6026
 5724TIP3    H138663   0.091   5.496  13.428 -0.4723  3.0960 -1.3637
 5724TIP3    H238664   0.232   5.481  13.377 -0.2184  0.4962  0.0087
 5725TIP3   OH238665   5.394   6.622   6.088  0.0487 -0.2277 -0.2696
 5725TIP3    H138666   5.336   6.634   6.163  1.5238 -2.1201  1.2637
 5725TIP3    H238667   5.461   6.690   6.099 -0.1655 -0.0145 -0.2874
 5726TIP3   OH238668   4.161   0.834  14.545 -0.7709 -0.5028 -0.3112
 5726TIP3    H138669   4.209   0.889  14.607 -0.0548 -0.8788 -0.5315
 5726TIP3    H238670   4.105   0.895  14.497  0.6564  0.1555 -1.1639
 5727TIP3   OH238671   1.269   5.050   1.043 -0.6761  0.8884 -0.6720
 5727TIP3    H138672   1.226   5.104   0.976 -2.3733  1.5922  0.9174
 5727TIP3    H238673   1.201   4.988   1.070 -0.7523  2.0753  1.9678
 5728TIP3   OH238674   3.339   0.106   0.456 -0.5409  0.9576 -0.3378
 5728TIP3    H138675   3.386   0.047   0.398 -0.8696  0.1190  0.2355
 5728TIP3    H238676   3.331   0.188   0.407 -1.3542  0.0728 -1.6902
 5729TIP3   OH238677   1.320   5.181  13.243  0.5209  0.0560  0.0899
 5729TIP3    H138678   1.308   5.156  13.152  1.0805  0.5160 -0.1143
 5729TIP3    H238679   1.231   5.187  13.278  0.2472  0.9444 -0.7211
 5730TIP3   OH238680   5.008   5.466  15.303  0.6218  0.4277 -0.2510
 5730TIP3    H138681   5.098   5.479  15.273  0.5126  2.2823  0.1877
 5730TIP3    H238682   4.955   5.523  15.249 -0.4396 -1.3226 -1.1118
 5731TIP3   OH238683   2.643   1.344  12.467  0.1368 -0.2036  0.1721
 5731TIP3    H138684   2.693   1.381  12.540  0.5191 -2.1290  0.8976
 5731TIP3    H238685   2.588   1.277  12.507 -0.2781 -0.6874 -1.1939
 5732TIP3   OH238686   0.849   1.127   4.644  0.6856 -0.1044 -0.0041
 5732TIP3    H138687   0.877   1.035   4.647  1.0356  0.0057  0.1223
 5732TIP3    H238688   0.759   1.123   4.613  0.4738 -0.5378  0.6580
 5733TIP3   OH238689   2.914   6.584   5.403 -0.1102  0.5224 -0.3392
 5733TIP3    H138690   2.956   6.667   5.378  3.8494 -0.8103  1.5145
 5733TIP3    H238691   2.938   6.572   5.495 -3.5083 -1.0269  0.3908
 5734TIP3   OH238692   6.806   1.589   1.677 -0.1854  0.1289 -0.5608
 5734TIP3    H138693   6.716   1.558   1.667 -0.6597  1.1348  0.4881
 5734TIP3    H238694   6.830   1.620   1.590 -0.6169 -0.7251 -1.0013
 5735TIP3   OH238695   0.127   2.680   5.919 -0.3340 -0.2756  0.2722
 5735TIP3    H138696   0.114   2.674   6.014  0.4367 -0.6642  0.3530
 5735TIP3    H238697   0.144   2.590   5.891 -1.9349 -0.3755 -0.4388
 5736TIP3   OH238698   1.919   2.094   0.338 -0.1198  0.4115  0.1156
 5736TIP3    H138699   1.917   2.170   0.280 -0.3756  0.7387  0.5490
 5736TIP3    H238700   1.947   2.021   0.282  1.5026  1.0925  0.0141
 5737TIP3   OH238701   1.616   3.670  13.961  0.1243  0.0046  0.0235
 5737TIP3    H138702   1.679   3.612  14.005  0.5217  0.8752  0.6237
 5737TIP3    H238703   1.551   3.689  14.029  0.7266  1.3389  0.2418
 5738TIP3   OH238704   0.208   2.085  16.873 -0.5420 -0.1525  0.1771
 5738TIP3    H138705   0.211   2.117  16.783 -1.6905 -0.1943  0.1102
 5738TIP3    H238706   0.173   1.996  16.867 -2.6639  0.5850  0.8057
 5739TIP3   OH238707   4.697   4.127  13.573 -0.4904 -0.2943  0.2655
 5739TIP3    H138708   4.655   4.210  13.596 -0.0638 -0.1811  0.6380
 5739TIP3    H238709   4.791   4.148  13.568 -0.6389 -0.1666 -2.2411
 5740TIP3   OH238710   5.912   3.060  16.993  0.0901 -0.2928 -0.1324
 5740TIP3    H138711   5.855   3.062  17.070 -1.1102 -0.7866 -0.9795
 5740TIP3    H238712   5.915   2.967  16.968 -0.4040 -0.0094 -1.2968
 5741TIP3   OH238713   4.605   0.423  17.269  0.1165  0.1508  0.0980
 5741TIP3    H138714   4.697   0.451  17.268  0.3475 -0.6142 -0.7935
 5741TIP3    H238715   4.609   0.327  17.260 -0.7877  0.1723 -0.6219
 5742TIP3   OH238716   5.224   1.408   4.096 -0.2092 -0.0852 -0.8904
 5742TIP3    H138717   5.181   1.492   4.078  1.8813  1.1989 -0.0376
 5742TIP3    H238718   5.234   1.367   4.011 -2.4532 -0.0878 -1.1830
 5743TIP3   OH238719   1.513   0.689   2.907  0.0676 -0.2479 -0.4785
 5743TIP3    H138720   1.495   0.760   2.846  1.6186  0.1247 -0.5271
 5743TIP3    H238721   1.596   0.713   2.948  0.7365 -2.1430 -0.6698
 5744TIP3   OH238722   0.908   1.989  15.470  0.1879 -0.5292  0.0527
 5744TIP3    H138723   0.815   1.997  15.492  0.4246 -1.5063  1.4786
 5744TIP3    H238724   0.941   1.921  15.530  2.1921  0.9978  0.7282
 5745TIP3   OH238725   4.995   6.369  12.162 -0.0033 -0.7508 -0.3440
 5745TIP3    H138726   5.026   6.435  12.100  0.4438  0.8550  1.5402
 5745TIP3    H238727   4.986   6.290  12.110 -0.4753  0.7678 -2.6426
 5746TIP3   OH238728   2.052   3.370  17.132 -0.1038 -0.2769  0.9106
 5746TIP3    H138729   2.087   3.298  17.185  0.0826 -1.7434 -1.1408
 5746TIP3    H238730   2.096   3.362  17.048 -3.9539 -1.0936 -1.1715
 5747TIP3   OH238731   4.935   3.626   2.418 -0.1618  0.1827  0.2153
 5747TIP3    H138732   4.840   3.633   2.417 -0.2380 -0.5410  1.2774
 5747TIP3    H238733   4.958   3.583   2.336 -0.9416 -1.7671  1.0048
 5748TIP3   OH238734   5.611   4.511   4.059 -0.2469  0.1526  0.4709
 5748TIP3    H138735   5.578   4.437   4.109 -0.7538 -0.8112 -1.2729
 5748TIP3    H238736   5.680   4.474   4.003  1.7171  1.5753  1.8566
 5749TIP3   OH238737   0.073   5.390   1.699  0.4666 -0.3187  0.4133
 5749TIP3    H138738   0.020   5.342   1.636  1.0438 -1.1274  0.5389
 5749TIP3    H238739   0.010   5.437   1.753 -0.0667 -0.3160 -0.2060
 5750TIP3   OH238740   3.167   4.816  15.424  0.3821  0.2953  0.2767
 5750TIP3    H138741   3.199   4.880  15.360  0.2231 -1.7960 -1.9880
 5750TIP3    H238742   3.240   4.756  15.438 -1.2718 -2.4802 -2.2747
 5751TIP3   OH238743   2.815   5.971  13.930 -0.4238 -0.0691 -0.2258
 5751TIP3    H138744   2.849   5.924  14.006  0.2163  0.4089 -0.2175
 5751TIP3    H238745   2.723   5.989  13.953  0.1246  1.2709  1.0194
 5752TIP3   OH238746   1.206   3.412  16.395  0.2904  0.2037 -0.7966
 5752TIP3    H138747   1.124   3.392  16.350 -0.1148 -1.6427  0.6879
 5752TIP3    H238748   1.272   3.358  16.351  0.9718  2.5650 -2.7551
 5753TIP3   OH238749   0.205   1.726   6.679  0.8182  0.0232  0.2338
 5753TIP3    H138750   0.290   1.767   6.661  0.5611  0.2483 -0.5102
 5753TIP3    H238751   0.142   1.784   6.636  0.4799 -1.3887 -1.1750
 5754TIP3   OH238752   4.674   3.138  12.490 -0.1571  0.4606 -0.4859
 5754TIP3    H138753   4.729   3.194  12.434  1.1852  0.0422  0.3994
 5754TIP3    H238754   4.734   3.105  12.557 -1.6808  0.6595  0.9932
 5755TIP3   OH238755   2.154   1.524  13.173 -0.3148 -0.1065 -0.2087
 5755TIP3    H138756   2.225   1.495  13.230  0.6331 -0.1523 -1.3890
 5755TIP3    H238757   2.159   1.619  13.174 -0.7246 -0.0877  0.3058
 5756TIP3   OH238758   5.493   0.595  16.370 -0.1665  0.1847 -0.0141
 5756TIP3    H138759   5.558   0.665  16.359  1.0195 -1.1138 -1.6563
 5756TIP3    H238760   5.526   0.543  16.443  0.2412 -0.0144 -0.3333
 5757TIP3   OH238761   6.080   6.551  16.572 -0.6324 -0.1551  0.4126
 5757TIP3    H138762   6.036   6.494  16.508 -0.7316  0.0682  0.2808
 5757TIP3    H238763   6.060   6.640  16.542 -2.2029 -0.0239  1.7613
 5758TIP3   OH238764   0.650   3.724   5.572  0.2909  0.0020 -0.3147
 5758TIP3    H138765   0.720   3.681   5.524  0.4003  0.0309 -0.1840
 5758TIP3    H238766   0.582   3.657   5.582 -0.0255  0.2080 -1.1138
 5759TIP3   OH238767   6.638   2.895  16.492 -0.2788  0.9868  0.0579
 5759TIP3    H138768   6.563   2.950  16.466 -1.1095  0.3527  1.0700
 5759TIP3    H238769   6.607   2.806  16.479  0.3724  0.7248  0.3351
 5760TIP3   OH238770   3.708   2.258  12.979 -0.2443 -0.0952  0.1224
 5760TIP3    H138771   3.738   2.349  12.988 -1.1996  0.3626 -1.2962
 5760TIP3    H238772   3.616   2.261  13.005  0.2236 -1.0428  1.9915
 5761TIP3   OH238773   2.140   3.077   1.540  0.4041  0.2090 -0.0193
 5761TIP3    H138774   2.203   3.101   1.608  1.3812 -0.5064 -0.6642
 5761TIP3    H238775   2.065   3.042   1.589  0.9478  0.0482  0.7084
 5762TIP3   OH238776   0.443   0.377   0.330 -0.2043  0.1568 -0.0116
 5762TIP3    H138777   0.496   0.451   0.361 -1.6801  1.8110 -1.3548
 5762TIP3    H238778   0.505   0.322   0.281  0.5924  1.3123 -0.3259
 5763TIP3   OH238779   6.025   3.330  16.583 -0.2424  0.9254  0.5760
 5763TIP3    H138780   6.049   3.252  16.533  1.5799  1.6099  0.3405
 5763TIP3    H238781   6.035   3.304  16.674  0.4566  0.9115  0.4965
 5764TIP3   OH238782   1.237   4.330   2.581 -0.1168  0.0487 -0.7064
 5764TIP3    H138783   1.201   4.418   2.575  1.1742  0.7284  1.0311
 5764TIP3    H238784   1.166   4.273   2.555 -0.7527  1.6394 -2.5530
 5765TIP3   OH238785   0.566   2.300  13.075  0.0627 -0.3478  0.3336
 5765TIP3    H138786   0.618   2.224  13.100 -0.0479 -0.2485  0.8766
 5765TIP3    H238787   0.582   2.363  13.146 -1.6359 -0.7155  1.0538
 5766TIP3   OH238788   1.104   3.450   4.649  0.0370  0.1946 -0.4044
 5766TIP3    H138789   1.180   3.463   4.705  0.0496  1.3329 -0.6694
 5766TIP3    H238790   1.031   3.490   4.698  0.1905  1.9042 -1.5179
 5767TIP3   OH238791   5.892   6.555  14.728  0.0350  0.2341  0.2295
 5767TIP3    H138792   5.874   6.649  14.727  0.5448  0.3334  0.1173
 5767TIP3    H238793   5.840   6.520  14.656 -1.6223  0.1447  1.4536
 5768TIP3   OH238794   4.167   6.604  16.329 -0.5658 -0.3504 -0.4599
 5768TIP3    H138795   4.241   6.626  16.274 -0.9312 -2.0473 -1.6851
 5768TIP3    H238796   4.187   6.516  16.362 -1.3091 -0.1907  0.4624
 5769TIP3   OH238797   3.693   2.050   2.398  0.2357 -0.1905 -0.5543
 5769TIP3    H138798   3.703   1.995   2.320  0.6382  0.3156 -0.8676
 5769TIP3    H238799   3.633   2.120   2.370  0.7410  0.2454 -0.5493
 5770TIP3   OH238800   6.250   6.653  12.796  0.7988  0.0683  0.3037
 5770TIP3    H138801   6.233   6.559  12.806 -2.7638  0.6667  0.6230
 5770TIP3    H238802   6.253   6.667  12.701 -0.5422 -0.1218  0.2137
 5771TIP3   OH238803   2.734   4.001   5.624  0.4884  0.2024 -0.3842
 5771TIP3    H138804   2.751   4.083   5.577  1.9714  0.5987  0.8038
 5771TIP3    H238805   2.775   4.014   5.710  0.9376 -1.8707 -0.2575
 5772TIP3   OH238806   6.574   4.284  14.179 -0.0722  0.0248 -0.1884
 5772TIP3    H138807   6.545   4.255  14.092 -0.0645  2.2602 -0.9653
 5772TIP3    H238808   6.566   4.379  14.177  0.2439  0.1367  2.1658
 5773TIP3   OH238809   3.259   6.525   0.968 -0.2831  0.2802  0.0230
 5773TIP3    H138810   3.198   6.501   1.038  1.3686 -0.0629  1.3680
 5773TIP3    H238811   3.220   6.486   0.889 -2.0208  0.4336  0.7773
 5774TIP3   OH238812   2.433   5.248   1.101 -0.4283  0.1109 -1.1309
 5774TIP3    H138813   2.516   5.264   1.056 -0.2748  1.2136 -0.4842
 5774TIP3    H238814   2.458   5.208   1.184 -0.5507  0.1737 -1.0623
 5775TIP3   OH238815   0.976   0.973   3.664  0.0241 -0.2647  0.3376
 5775TIP3    H138816   1.067   0.958   3.639 -0.4577 -0.4417 -1.3734
 5775TIP3    H238817   0.981   1.030   3.741  1.4886  3.5053 -2.4322
 5776TIP3   OH238818   6.502   5.350  15.560  0.0677  0.4315  0.0295
 5776TIP3    H138819   6.483   5.380  15.471  0.1053 -0.1927 -0.1900
 5776TIP3    H238820   6.450   5.408  15.616 -0.0434  0.7550 -0.4020
 5777TIP3   OH238821   0.800   0.283  16.036  0.7499 -0.4273  0.1376
 5777TIP3    H138822   0.770   0.361  16.083  1.4037  0.7110 -1.2834
 5777TIP3    H238823   0.733   0.218  16.053 -0.1319  0.6472  0.8550
 5778TIP3   OH238824   6.579   0.079   4.943 -0.2175 -1.0655 -0.2687
 5778TIP3    H138825   6.557   0.012   4.878 -0.5835 -0.1015 -1.1604
 5778TIP3    H238826   6.672   0.097   4.930 -0.4838 -0.2485 -1.1415
 5779TIP3   OH238827   1.501   6.404  10.641 -0.3957  0.0971  0.2247
 5779TIP3    H138828   1.425   6.351  10.662 -0.0017 -1.0729 -1.1892
 5779TIP3    H238829   1.560   6.345  10.594  1.5212  0.9055  1.5500
 5780TIP3   OH238830   2.393   5.408  10.739  0.1224  0.4646  0.1704
 5780TIP3    H138831   2.416   5.467  10.667  1.2152 -0.6178 -0.3936
 5780TIP3    H238832   2.470   5.410  10.797 -0.5095  0.8739  1.0138
 5781TIP3   OH238833   1.367   5.032  15.998  0.7638 -0.2542 -0.1530
 5781TIP3    H138834   1.295   4.974  16.025 -1.9139  2.2964 -1.5790
 5781TIP3    H238835   1.377   5.093  16.072  0.0653  0.6723 -0.8254
 5782TIP3   OH238836   4.992   5.493   3.060 -0.4394  0.4645  0.9547
 5782TIP3    H138837   5.073   5.455   3.093  0.0210  0.8608  0.2921
 5782TIP3    H238838   5.009   5.512   2.968 -1.8481 -1.0052  0.3637
 5783TIP3   OH238839   6.109   5.281   3.994  0.0920  0.3267  0.0224
 5783TIP3    H138840   6.144   5.348   4.053  2.2125 -0.4553 -0.3144
 5783TIP3    H238841   6.103   5.202   4.048  1.5082 -0.2480 -0.6392
 5784TIP3   OH238842   2.133   3.321   5.721  0.4246  0.0058 -0.2035
 5784TIP3    H138843   2.208   3.369   5.756  0.2719 -1.5427  2.3594
 5784TIP3    H238844   2.166   3.280   5.641  1.0913  2.7199 -1.3874
 5785TIP3   OH238845   2.484   3.864   4.451 -0.0532  0.1824 -0.1493
 5785TIP3    H138846   2.455   3.955   4.455 -0.6585  0.0382 -1.1033
 5785TIP3    H238847   2.416   3.819   4.401 -0.6030 -1.1349  1.7415
 5786TIP3   OH238848   4.415   1.215   5.872 -0.1806  0.3181  0.1245
 5786TIP3    H138849   4.440   1.167   5.951 -1.1973 -0.2168  0.1263
 5786TIP3    H238850   4.321   1.230   5.881 -0.3014  0.2867 -0.9623
 5787TIP3   OH238851   1.173   3.689  16.196  0.1749 -0.0289  0.4235
 5787TIP3    H138852   1.202   3.598  16.202 -1.7573 -0.8224 -1.6097
 5787TIP3    H238853   1.243   3.733  16.146  2.0949  0.1164  3.1357
 5788TIP3   OH238854   0.596   5.849   2.728 -0.3581  0.4496 -0.7675
 5788TIP3    H138855   0.642   5.858   2.645 -0.1820 -0.4051 -0.7724
 5788TIP3    H238856   0.612   5.758   2.754 -0.2488  0.7721  0.2969
 5789TIP3   OH238857   1.301   4.679   3.712  0.0934 -0.5262  0.7689
 5789TIP3    H138858   1.210   4.706   3.704  0.3481  0.5047  1.2895
 5789TIP3    H238859   1.343   4.749   3.761  1.3209 -0.6541 -0.0723
 5790TIP3   OH238860   0.037   4.917   5.347  0.0476 -0.4413 -0.0981
 5790TIP3    H138861  -0.011   4.836   5.358  1.3897 -1.0686  1.3461
 5790TIP3    H238862  -0.014   4.967   5.283 -2.1335 -1.3542  0.8791
 5791TIP3   OH238863   3.241   0.951   2.660  0.4392 -0.1968  0.0912
 5791TIP3    H138864   3.201   0.892   2.596 -0.6102  1.3732 -0.7140
 5791TIP3    H238865   3.258   0.895   2.736 -3.3911 -0.9243  0.4986
 5792TIP3   OH238866   4.918   3.733   5.186  0.6835  0.1099 -0.1456
 5792TIP3    H138867   4.895   3.662   5.126  2.6848 -0.8881  0.2457
 5792TIP3    H238868   4.837   3.784   5.194 -0.6912 -1.9097 -0.6962
 5793TIP3   OH238869   1.284   0.490   1.972 -0.2069  0.2816  0.2824
 5793TIP3    H138870   1.212   0.518   1.915  0.4972  0.5508 -0.4770
 5793TIP3    H238871   1.254   0.407   2.009 -0.0563 -0.6452 -1.6392
 5794TIP3   OH238872   2.849   0.725   5.540 -0.3967  0.3627  0.2055
 5794TIP3    H138873   2.903   0.788   5.491  0.2428 -1.1522 -1.0875
 5794TIP3    H238874   2.835   0.653   5.478 -2.3660 -0.0945  1.1670
 5795TIP3   OH238875   1.038   2.628   2.932 -0.4368 -0.2386 -0.1739
 5795TIP3    H138876   0.978   2.571   2.885 -0.5876 -1.7494  1.8022
 5795TIP3    H238877   1.078   2.572   2.998  3.1084  0.7467 -1.3461
 5796TIP3   OH238878   6.735   2.286  14.556  0.5239  0.2396 -0.4200
 5796TIP3    H138879   6.690   2.213  14.513  0.1565 -0.3327  0.9126
 5796TIP3    H238880   6.667   2.327  14.610  0.8143  1.3687 -0.9039
 5797TIP3   OH238881   4.016   6.534   1.765  0.4995  0.1168 -0.3363
 5797TIP3    H138882   3.956   6.478   1.814 -0.7698  2.1952  0.6017
 5797TIP3    H238883   3.962   6.571   1.695  0.8768  1.3193 -0.0139
 5798TIP3   OH238884   3.810   0.528  13.291 -0.1831  0.1896 -0.5455
 5798TIP3    H138885   3.788   0.588  13.219  1.8263  1.0632 -0.4452
 5798TIP3    H238886   3.752   0.555  13.362 -0.9210  0.4965 -1.2467
 5799TIP3   OH238887   5.862   5.556   2.425 -0.3302  0.7650 -0.0843
 5799TIP3    H138888   5.897   5.482   2.476  0.6131  1.3420  0.1289
 5799TIP3    H238889   5.798   5.597   2.483  0.2664  1.0283  0.3977
 5800TIP3   OH238890   1.996   5.060  14.312 -0.0025  0.8485 -0.0532
 5800TIP3    H138891   1.902   5.043  14.318  0.2224 -0.2660  0.2683
 5800TIP3    H238892   2.010   5.081  14.219 -0.3876 -0.0183 -0.3073
 5801TIP3   OH238893   2.895   6.400  14.746 -0.3675  0.2666 -0.1027
 5801TIP3    H138894   2.813   6.360  14.721 -1.4814  1.8973  0.7930
 5801TIP3    H238895   2.961   6.360  14.690 -1.7068 -1.3883 -0.5007
 5802TIP3   OH238896   2.216   3.470   3.719 -0.0350 -0.5143  0.7065
 5802TIP3    H138897   2.227   3.398   3.656 -0.5551 -1.1093  1.2973
 5802TIP3    H238898   2.253   3.437   3.800  2.1724  0.8660  0.3112
 5803TIP3   OH238899   2.818   5.798  15.307 -0.1027  0.0959  0.1375
 5803TIP3    H138900   2.779   5.856  15.372 -1.3146 -0.9504  0.3537
 5803TIP3    H238901   2.791   5.834  15.222 -0.2794  0.2380  0.2560
 5804TIP3   OH238902   2.313   3.157  13.858  0.5183  0.5828 -0.3617
 5804TIP3    H138903   2.273   3.072  13.875 -0.5868  0.8703 -1.4696
 5804TIP3    H238904   2.311   3.201  13.943 -0.1602  0.0317 -0.0794
 5805TIP3   OH238905   2.742   1.928  14.949  0.4182 -0.7772 -0.4331
 5805TIP3    H138906   2.674   1.882  14.998 -1.1609  1.0441 -0.8912
 5805TIP3    H238907   2.751   1.878  14.868 -0.2567 -1.0951 -0.3184
 5806TIP3   OH238908   3.095   5.715   2.389  0.6030 -0.0605  0.8304
 5806TIP3    H138909   3.107   5.803   2.352 -0.5135  0.0942  0.8138
 5806TIP3    H238910   3.180   5.673   2.377  0.8852  0.7054  0.0057
 5807TIP3   OH238911   2.539   0.579   2.454 -0.1546  0.7053  0.1823
 5807TIP3    H138912   2.612   0.614   2.505 -0.1169 -0.9396  1.3003
 5807TIP3    H238913   2.575   0.568   2.366  0.6575  0.7913  0.4972
 5808TIP3   OH238914   4.197   0.513   4.755 -0.2287 -0.0032  0.1194
 5808TIP3    H138915   4.256   0.439   4.743 -0.4460 -0.0511 -0.7194
 5808TIP3    H238916   4.210   0.540   4.846  0.9273 -0.1396  0.0037
 5809TIP3   OH238917   2.813   2.111   5.394  0.0583 -0.5769  0.1222
 5809TIP3    H138918   2.802   2.034   5.451 -0.7162 -0.9411 -0.5163
 5809TIP3    H238919   2.724   2.141   5.378  0.3576  0.4053  0.2920
 5810TIP3   OH238920   1.560   5.200  11.475  0.3845  0.6164 -0.5720
 5810TIP3    H138921   1.602   5.167  11.395  0.6858  0.8604 -0.5206
 5810TIP3    H238922   1.492   5.136  11.496  2.0301 -0.8533  0.4510
 5811TIP3   OH238923   3.457   0.903  13.523 -0.4203  0.5992  0.4213
 5811TIP3    H138924   3.454   0.822  13.572  0.8442  0.8626  0.9698
 5811TIP3    H238925   3.523   0.887  13.455 -0.2647  1.1138  0.4485
 5812TIP3   OH238926   2.662   5.871  14.577  1.0611 -0.2296 -0.1431
 5812TIP3    H138927   2.701   5.846  14.493  0.8211 -1.4860  0.1091
 5812TIP3    H238928   2.568   5.864  14.564  1.0014  0.1642  0.0567
 5813TIP3   OH238929   4.864   6.736  13.500 -0.6338  0.6776 -0.2331
 5813TIP3    H138930   4.925   6.789  13.550  0.3601 -0.0394 -0.6704
 5813TIP3    H238931   4.803   6.799  13.461  1.6055  1.6978 -2.2395
 5814TIP3   OH238932   1.984   3.090  13.549 -0.2783  0.1079 -1.0013
 5814TIP3    H138933   2.008   3.132  13.467  0.2099 -1.4024 -1.6548
 5814TIP3    H238934   2.062   3.099  13.604  0.6638 -1.8772 -1.9429
 5815TIP3   OH238935   4.491   3.140   6.707  0.3335  0.5490 -0.6297
 5815TIP3    H138936   4.574   3.108   6.743 -0.3969  0.2884  0.8468
 5815TIP3    H238937   4.438   3.061   6.694 -1.1893  1.0179  2.3001
 5816TIP3   OH238938   1.863   0.606   4.988  0.1600  0.7359  0.2954
 5816TIP3    H138939   1.939   0.632   4.937  1.5457 -0.2934  1.7510
 5816TIP3    H238940   1.879   0.514   5.009 -0.6803  0.9449  1.9822
 5817TIP3   OH238941   3.149   6.645  13.158  0.3954  0.1725  0.0578
 5817TIP3    H138942   3.235   6.612  13.184  0.2078 -0.7283 -0.4580
 5817TIP3    H238943   3.089   6.573  13.174 -0.0889  0.4146 -0.6358
 5818TIP3   OH238944   4.178   6.480  12.740  0.6467 -0.2261  0.5356
 5818TIP3    H138945   4.149   6.424  12.668 -0.3439 -0.3184  0.9960
 5818TIP3    H238946   4.255   6.436  12.775  0.8878 -0.4015 -0.1942
 5819TIP3   OH238947   3.859   6.550   6.439  0.5133  0.1266 -0.4921
 5819TIP3    H138948   3.842   6.467   6.483 -3.1364  1.5667  0.9433
 5819TIP3    H238949   3.940   6.582   6.480  1.3653 -2.1600 -0.3060
 5820TIP3   OH238950   0.142   2.069   2.066 -0.5641  0.2208  0.2114
 5820TIP3    H138951   0.196   2.147   2.055 -0.1220 -0.1080  0.0379
 5820TIP3    H238952   0.173   2.009   1.999 -2.7015  0.8801 -1.4369
 5821TIP3   OH238953   3.039   4.890  15.680 -0.0658 -0.3284  0.4432
 5821TIP3    H138954   2.960   4.836  15.686 -0.2897 -0.0337  0.1520
 5821TIP3    H238955   3.053   4.900  15.586 -1.9607  2.9458  0.4376
 5822TIP3   OH238956   5.857   5.448   3.158  0.5176 -0.3614  0.4469
 5822TIP3    H138957   5.864   5.429   3.064  0.5436  0.0426  0.3676
 5822TIP3    H238958   5.946   5.435   3.192  0.5901 -0.1306  0.3456
 5823TIP3   OH238959   5.626   0.976  12.012  0.0865  0.2803  0.0179
 5823TIP3    H138960   5.710   1.000  11.972 -0.7192  2.3564 -0.4855
 5823TIP3    H238961   5.603   0.893  11.971  1.2556  0.3541 -0.8274
 5824TIP3   OH238962   1.881   1.978   3.445  0.3120 -0.3465  0.5848
 5824TIP3    H138963   1.911   1.901   3.494  1.5316  0.7278  1.5729
 5824TIP3    H238964   1.856   1.944   3.360  1.7561 -1.7072  0.6779
 5825TIP3   OH238965   1.136   0.190   6.634 -1.2028  0.5495  0.4167
 5825TIP3    H138966   1.231   0.201   6.645 -1.0880 -1.0902  1.2782
 5825TIP3    H238967   1.102   0.279   6.625  0.7152  1.0675 -2.5317
 5826TIP3   OH238968   4.486   5.527   4.904  0.6376  0.1570  0.1831
 5826TIP3    H138969   4.459   5.618   4.892  1.3444  0.5146  1.2159
 5826TIP3    H238970   4.572   5.521   4.862 -0.2290 -0.5164 -1.5175
 5827TIP3   OH238971   6.691   1.115  12.351  0.1106  0.3614 -0.6968
 5827TIP3    H138972   6.765   1.056  12.361 -1.4337 -1.9532 -2.4017
 5827TIP3    H238973   6.650   1.118  12.437  0.9446 -0.0493 -0.2820
 5828TIP3   OH238974   4.764   1.132   1.568 -0.7539 -0.7416 -0.1715
 5828TIP3    H138975   4.798   1.180   1.493  0.8011 -1.1543  0.2393
 5828TIP3    H238976   4.709   1.064   1.530 -2.2373  0.7715 -0.7940
 5829TIP3   OH238977   1.447   2.510   1.979 -0.0446 -0.1502  0.0976
 5829TIP3    H138978   1.380   2.560   1.934 -0.8143  0.1663  1.5677
 5829TIP3    H238979   1.464   2.436   1.921  1.4098  1.9705 -2.3096
 5830TIP3   OH238980   4.252   0.414  17.201 -0.0111  0.4288  0.0086
 5830TIP3    H138981   4.223   0.433  17.290  0.7499  0.5579  0.2337
 5830TIP3    H238982   4.256   0.500  17.159  0.9647  0.5047  0.2612
 5831TIP3   OH238983   2.986   4.866   0.830  0.0825 -0.1275  0.2647
 5831TIP3    H138984   2.910   4.870   0.887  1.4413  0.9853  2.0474
 5831TIP3    H238985   2.980   4.780   0.788 -1.7484 -0.3308  0.8985
 5832TIP3   OH238986   5.904   3.463  16.333 -0.0642  0.3893 -0.2387
 5832TIP3    H138987   5.964   3.520  16.286  2.9761 -1.3587  1.3522
 5832TIP3    H238988   5.959   3.417  16.397 -3.1703 -0.9770  1.6059
 5833TIP3   OH238989   3.507   2.618   0.553  0.0516 -0.0243  0.0907
 5833TIP3    H138990   3.547   2.594   0.469 -1.7564  1.5876 -1.2814
 5833TIP3    H238991   3.506   2.713   0.553 -0.3986 -0.0097  1.7748
 5834TIP3   OH238992   4.561   2.954  13.987  1.1730 -0.2520 -0.3405
 5834TIP3    H138993   4.474   2.972  14.024  0.8098 -0.9041 -0.8557
 5834TIP3    H238994   4.575   3.024  13.924  1.2062  0.0997  0.0581
 5835TIP3   OH238995   1.889   1.269  13.664 -0.3722 -0.0105  0.4517
 5835TIP3    H138996   1.981   1.287  13.680 -0.1739  0.3284 -0.9880
 5835TIP3    H238997   1.849   1.355  13.655 -0.9425 -0.1449  1.6511
 5836TIP3   OH238998   0.105   5.537   1.255 -0.2450 -0.2729 -0.0146
 5836TIP3    H138999   0.088   5.531   1.161  0.2664  0.3505 -0.1481
 5836TIP3    H239000   0.021   5.562   1.293 -0.0708  1.0852 -0.4827
 5837TIP3   OH239001   6.607   1.147  13.621  0.3339  0.9380 -0.5409
 5837TIP3    H139002   6.652   1.216  13.572  1.9271  1.3444  1.4444
 5837TIP3    H239003   6.596   1.183  13.709 -2.1247  0.0559 -0.4509
 5838TIP3   OH239004   5.438   6.684   6.456 -0.4619 -0.0169  0.7338
 5838TIP3    H139005   5.366   6.688   6.393 -0.0151  1.5454  0.3023
 5838TIP3    H239006   5.406   6.728   6.534 -0.4748 -0.5903  1.0547
 5839TIP3   OH239007   6.112   0.506   2.928 -0.0896 -0.2345 -0.0708
 5839TIP3    H139008   6.136   0.567   2.997  1.4577 -0.5787 -0.2914
 5839TIP3    H239009   6.019   0.523   2.912 -0.4208 -0.0113  1.9405
 5840TIP3   OH239010   6.540   3.651   3.254 -0.6336 -0.3131  0.3636
 5840TIP3    H139011   6.517   3.622   3.343  0.1667 -0.9998  0.3605
 5840TIP3    H239012   6.635   3.664   3.258 -0.9113  1.7914  0.1994
 5841TIP3   OH239013   5.930   4.224   3.073 -0.0528  0.2410  0.0810
 5841TIP3    H139014   5.863   4.157   3.080 -0.3724  0.6447  0.9699
 5841TIP3    H239015   6.006   4.188   3.120 -0.2495  0.5304  0.6230
 5842TIP3   OH239016   2.221   4.318   2.009  0.3142  0.2000 -0.1002
 5842TIP3    H139017   2.181   4.257   1.947  2.2005 -0.8306 -0.3349
 5842TIP3    H239018   2.147   4.355   2.057 -0.9092 -1.9879 -0.2236
 5843TIP3   OH239019   6.288   3.064   1.286 -0.1415  0.4403 -0.2527
 5843TIP3    H139020   6.213   3.120   1.272  1.4247  2.1784 -1.9741
 5843TIP3    H239021   6.252   2.975   1.290 -2.2934  1.2878 -0.6083
 5844TIP3   OH239022   1.481   0.822  10.796 -0.4705  0.2124 -0.0487
 5844TIP3    H139023   1.399   0.783  10.826 -0.2347  0.1799  0.5675
 5844TIP3    H239024   1.549   0.774  10.844 -0.1351  0.7905  0.0599
 5845TIP3   OH239025   3.457   4.117  14.803 -0.3190 -0.0463  0.4745
 5845TIP3    H139026   3.362   4.121  14.806 -0.4040 -1.0256 -0.7922
 5845TIP3    H239027   3.479   4.036  14.850  0.0807  1.7483  3.5397
 5846TIP3   OH239028   4.373   4.704  16.359 -0.0560  0.6290 -0.1988
 5846TIP3    H139029   4.386   4.786  16.312  0.4661  1.9108  2.1613
 5846TIP3    H239030   4.410   4.719  16.446 -1.6927 -1.4550  0.8956
 5847TIP3   OH239031   3.011   2.510  12.323 -0.0039 -0.9074  0.1548
 5847TIP3    H139032   3.064   2.579  12.363 -1.6723  1.7519 -2.0756
 5847TIP3    H239033   3.044   2.504  12.233  0.6407 -3.6255  0.5146
 5848TIP3   OH239034   5.980   0.529  12.399 -0.2147 -0.5495  0.6255
 5848TIP3    H139035   6.030   0.593  12.448 -0.5604  0.1481  0.0715
 5848TIP3    H239036   5.897   0.521  12.447 -1.5497  1.9492 -1.1625
 5849TIP3   OH239037   4.227   3.041  12.618 -0.2011 -0.1417  0.4791
 5849TIP3    H139038   4.216   2.951  12.588  0.1742 -0.2928  0.7896
 5849TIP3    H239039   4.287   3.080  12.553 -0.5857 -0.0338  0.1859
 5850TIP3   OH239040   2.385   2.095  16.220  0.0052  0.4979  0.6460
 5850TIP3    H139041   2.421   2.072  16.305  0.9486 -1.3973 -0.2507
 5850TIP3    H239042   2.455   2.074  16.158 -1.7661 -0.9740 -0.8917
 5851TIP3   OH239043   0.782   4.098  16.974  0.2107  0.0954  0.0449
 5851TIP3    H139044   0.690   4.106  17.000  0.3339  0.8105  0.2481
 5851TIP3    H239045   0.778   4.073  16.881 -0.1812  0.7572 -0.1191
 5852TIP3   OH239046   4.528   5.929  16.812  0.1480 -0.0338 -0.4683
 5852TIP3    H139047   4.474   5.987  16.865  0.6089  0.1135 -0.1479
 5852TIP3    H239048   4.577   5.987  16.754  1.1434 -0.0355  0.3482
 5853TIP3   OH239049   3.168   3.452   4.614 -0.2392  0.0213  0.0583
 5853TIP3    H139050   3.121   3.368   4.608 -0.7226  0.3180 -0.4265
 5853TIP3    H239051   3.212   3.460   4.530  0.8120 -0.3238  0.5718
 5854TIP3   OH239052   2.448   1.186   6.187 -0.5089  0.0133 -0.2156
 5854TIP3    H139053   2.467   1.154   6.099  0.3764 -0.3189  0.0936
 5854TIP3    H239054   2.356   1.211   6.183 -0.7894 -1.0653 -0.9210
 5855TIP3   OH239055   2.019   6.575  13.197  0.7563 -0.0954  0.0992
 5855TIP3    H139056   2.109   6.545  13.182  1.2144  0.6387  1.3246
 5855TIP3    H239057   2.018   6.663  13.159  0.5553 -0.0943  0.1114
 5856TIP3   OH239058   3.618   3.809   0.514 -0.7822  0.3248 -0.0175
 5856TIP3    H139059   3.604   3.715   0.508 -0.4386  0.3829 -2.5300
 5856TIP3    H239060   3.545   3.841   0.567 -1.0278 -1.3222  0.6712
 5857TIP3   OH239061   4.564   6.563   2.599 -0.1333  0.7657 -0.0983
 5857TIP3    H139062   4.545   6.596   2.511 -1.6864 -2.4602 -1.0443
 5857TIP3    H239063   4.485   6.515   2.625  1.6660 -1.4556  1.5348
 5858TIP3   OH239064   3.504   0.572   1.652  0.3245  0.1341  0.2710
 5858TIP3    H139065   3.496   0.525   1.734 -1.8599  0.5930  0.3405
 5858TIP3    H239066   3.589   0.617   1.658  0.5337 -0.4655  1.9124
 5859TIP3   OH239067   5.491   5.722  10.528 -0.1664  0.3522 -0.4687
 5859TIP3    H139068   5.493   5.791  10.594 -1.2341 -1.0426  1.0514
 5859TIP3    H239069   5.582   5.713  10.501  0.0745  1.9515 -0.2790
 5860TIP3   OH239070   5.684   1.307  16.582  0.4051 -0.1135  0.1713
 5860TIP3    H139071   5.658   1.398  16.569 -0.3147 -0.2026  0.8930
 5860TIP3    H239072   5.718   1.304  16.672  0.1510 -0.6145  0.2528
 5861TIP3   OH239073   3.172   0.249   6.621  0.0178  0.7110 -0.8552
 5861TIP3    H139074   3.078   0.259   6.605 -0.0338  0.5989 -0.6249
 5861TIP3    H239075   3.189   0.305   6.698 -0.0995 -0.2366 -0.1314
 5862TIP3   OH239076   4.919   3.887   3.900  0.0024  0.3827  0.4719
 5862TIP3    H139077   4.963   3.863   3.818  0.3679  0.7636  0.5577
 5862TIP3    H239078   4.862   3.960   3.875  0.2290  0.5990  0.5916
 5863TIP3   OH239079   1.055   0.992   5.064 -0.1298  0.1623  0.5889
 5863TIP3    H139080   1.044   0.965   4.972  1.6627  1.7256 -0.1138
 5863TIP3    H239081   1.021   1.082   5.066  1.0508  0.6045  1.1405
 5864TIP3   OH239082   5.399   4.295   1.464  0.0816  0.0665 -0.2970
 5864TIP3    H139083   5.328   4.289   1.401 -1.5932  0.5772  1.5136
 5864TIP3    H239084   5.463   4.353   1.422 -1.1398  0.6289 -1.4107
 5865TIP3   OH239085   5.569   3.564   0.210  0.0158 -0.8445 -0.1035
 5865TIP3    H139086   5.563   3.471   0.234  1.4933 -0.8811  0.1914
 5865TIP3    H239087   5.569   3.610   0.294 -0.8310 -0.5719 -0.2548
 5866TIP3   OH239088   1.018   2.048  13.991  0.4691  0.0881  0.5500
 5866TIP3    H139089   1.034   2.111  13.920 -1.5013  1.1640  1.0178
 5866TIP3    H239090   1.097   2.051  14.045  1.1575  0.7524 -0.4829
 5867TIP3   OH239091   4.799   0.437  12.141  0.0893  0.3689  0.3172
 5867TIP3    H139092   4.861   0.364  12.138 -0.9742 -0.5642  0.6869
 5867TIP3    H239093   4.717   0.400  12.107 -1.4225  0.4039  3.7184
 5868TIP3   OH239094   2.003   6.326   4.986  0.5982 -0.0536  0.0059
 5868TIP3    H139095   2.021   6.329   5.080  0.2294 -0.8568  0.1065
 5868TIP3    H239096   2.059   6.393   4.949 -0.0430  1.0202  0.9263
 5869TIP3   OH239097   5.411   4.783   3.909 -0.1407  0.1657 -0.1393
 5869TIP3    H139098   5.320   4.800   3.935 -1.1688 -4.3600 -0.3469
 5869TIP3    H239099   5.462   4.803   3.987 -1.5734  0.7643  0.6641
 5870TIP3   OH239100   4.854   4.127   6.065 -0.5828  0.1670 -0.2849
 5870TIP3    H139101   4.776   4.098   6.016  0.3417 -0.7080 -1.2769
 5870TIP3    H239102   4.927   4.108   6.006  0.5251 -0.5299  1.2718
 5871TIP3   OH239103   2.594   0.536   6.716 -0.2649 -0.5105  0.0719
 5871TIP3    H139104   2.608   0.607   6.654 -1.5022 -1.4202 -1.2753
 5871TIP3    H239105   2.604   0.577   6.802 -0.9070  1.2715 -0.6874
 5872TIP3   OH239106   6.577   0.563   1.146 -0.4469 -0.4130  0.0673
 5872TIP3    H139107   6.578   0.500   1.218 -0.0431 -1.3839 -0.7684
 5872TIP3    H239108   6.669   0.571   1.120 -0.3421  1.4319  0.9374
 5873TIP3   OH239109   1.182   0.331  16.217 -0.4595 -0.3171  0.4919
 5873TIP3    H139110   1.099   0.345  16.262 -1.1145 -0.9847 -0.4727
 5873TIP3    H239111   1.159   0.281  16.139  0.3226  2.7042 -1.7644
 5874TIP3   OH239112   3.151   1.367  16.424  0.0534  0.7028 -0.5636
 5874TIP3    H139113   3.067   1.411  16.437  0.3355  0.9545  0.4079
 5874TIP3    H239114   3.217   1.433  16.447  0.4738 -0.2667  1.0924
 5875TIP3   OH239115   6.563   3.776  13.876 -0.1165  0.4380 -0.4612
 5875TIP3    H139116   6.658   3.784  13.865  0.0403 -1.7707 -0.9611
 5875TIP3    H239117   6.549   3.683  13.895 -2.1449  0.8308  0.0803
 5876TIP3   OH239118   5.956   0.617  16.804 -0.0625 -0.2810  0.9158
 5876TIP3    H139119   5.916   0.652  16.725 -1.8663 -0.0435  1.8952
 5876TIP3    H239120   5.920   0.529  16.813 -1.0629  0.2541  2.2774
 5877TIP3   OH239121   4.111   0.955  11.825  0.0937 -0.2427  0.5103
 5877TIP3    H139122   4.099   1.015  11.899  2.9722  0.8777  0.1574
 5877TIP3    H239123   4.138   0.872  11.865 -1.4580 -0.5913  0.8632
 5878TIP3   OH239124   6.069   4.401  13.974 -0.1994 -0.3809 -0.0392
 5878TIP3    H139125   6.035   4.363  13.893  1.3373 -2.5645  0.2610
 5878TIP3    H239126   6.163   4.380  13.972 -0.0247  0.0880  1.9984
 5879TIP3   OH239127   5.236   1.425   1.233  0.0917 -0.3846  0.6958
 5879TIP3    H139128   5.278   1.342   1.254  1.8569  0.4865  0.6567
 5879TIP3    H239129   5.307   1.482   1.205 -1.3764  0.4693 -1.4609
 5880TIP3   OH239130   0.345   5.222  15.528 -0.4313 -0.0674  0.1216
 5880TIP3    H139131   0.272   5.208  15.468 -0.6116  1.4427 -0.0286
 5880TIP3    H239132   0.396   5.141  15.523 -0.2813  0.1376 -2.3056
 5881TIP3   OH239133   3.729   4.431   1.942 -0.7698 -0.6883 -0.3099
 5881TIP3    H139134   3.778   4.425   2.024 -1.7828  0.9609  0.4382
 5881TIP3    H239135   3.708   4.524   1.933 -1.3119 -0.9564 -2.0677
 5882TIP3   OH239136   2.776   3.420   4.564  0.3344 -0.0290 -0.2146
 5882TIP3    H139137   2.685   3.413   4.535  0.9416  1.5170 -2.5638
 5882TIP3    H239138   2.805   3.505   4.532  3.0075 -1.0604 -0.6382
 5883TIP3   OH239139   6.326   3.498  14.870 -0.2496  0.1344  0.0387
 5883TIP3    H139140   6.343   3.591  14.853 -1.2220  0.2425 -0.3652
 5883TIP3    H239141   6.279   3.497  14.954  0.3131 -0.0455  0.3565
 5884TIP3   OH239142   1.478   3.132   6.514 -0.2777  0.1738 -0.0447
 5884TIP3    H139143   1.395   3.175   6.493 -0.7562 -0.0589  1.3671
 5884TIP3    H239144   1.535   3.203   6.542  0.6047  0.5954 -2.7741
 5885TIP3   OH239145   2.268   6.345  16.040 -0.2411  0.2100 -0.3355
 5885TIP3    H139146   2.273   6.336  16.135  2.3963 -2.1056 -0.6208
 5885TIP3    H239147   2.201   6.282  16.013 -1.3316  1.2132  0.0286
 5886TIP3   OH239148   5.898   4.000   0.428 -0.0134  0.2632  1.0301
 5886TIP3    H139149   5.963   4.060   0.392 -0.7838  0.5544  0.0942
 5886TIP3    H239150   5.871   4.040   0.510 -0.1161  0.9107  0.6792
 5887TIP3   OH239151   1.832   3.032  11.754  0.5757  0.0972  0.4359
 5887TIP3    H139152   1.834   2.938  11.770  2.2052 -0.1035 -0.8663
 5887TIP3    H239153   1.825   3.070  11.842  1.0559 -1.2047  1.0566
 5888TIP3   OH239154   3.297   2.398  14.816  0.9922  0.1295  0.6607
 5888TIP3    H139155   3.268   2.484  14.844  1.2983  0.4232  0.0977
 5888TIP3    H239156   3.358   2.369  14.884 -2.1633 -1.4139  2.9717
 5889TIP3   OH239157   0.584   4.335   3.808  0.0289 -0.6795 -0.1317
 5889TIP3    H139158   0.538   4.274   3.866 -1.0761  0.6889  0.4581
 5889TIP3    H239159   0.673   4.336   3.842 -0.8545  0.9508  2.3034
 5890TIP3   OH239160   1.178   2.172   6.196 -0.0555 -0.1975 -0.4506
 5890TIP3    H139161   1.214   2.084   6.191  0.7435  0.1693 -1.2718
 5890TIP3    H239162   1.105   2.165   6.258 -2.6557 -2.3438 -3.6012
 5891TIP3   OH239163   2.462   0.681   0.504 -0.8888 -0.3055 -0.1850
 5891TIP3    H139164   2.386   0.737   0.487 -0.1262  0.1791 -2.0934
 5891TIP3    H239165   2.425   0.594   0.521 -1.9310  0.1905  0.0961
 5892TIP3   OH239166   5.129   0.298   1.724  0.4385 -0.0789 -0.0729
 5892TIP3    H139167   5.202   0.358   1.706 -0.5701  0.6125 -1.8744
 5892TIP3    H239168   5.052   0.355   1.731 -0.4132 -1.0930 -1.1295
 5893TIP3   OH239169   5.016   6.648   4.130  0.4120  0.0280 -0.4590
 5893TIP3    H139170   5.016   6.554   4.110  1.6536  0.1275 -0.9837
 5893TIP3    H239171   4.992   6.653   4.222 -0.4829 -0.7496 -0.6336
 5894TIP3   OH239172   2.886   2.490  13.864 -0.1220  0.4688 -0.2581
 5894TIP3    H139173   2.884   2.538  13.781  2.6714 -1.4892 -1.5401
 5894TIP3    H239174   2.974   2.505  13.898  0.1540 -2.0999  0.2717
 5895TIP3   OH239175   6.179   0.170  13.128 -0.1307  0.6990 -0.3949
 5895TIP3    H139176   6.095   0.164  13.084  0.4182  0.8463 -1.4847
 5895TIP3    H239177   6.189   0.262  13.149 -0.1203  0.7286 -0.5259
 5896TIP3   OH239178   0.971   5.075  14.746  0.1411  0.3336  0.1795
 5896TIP3    H139179   1.004   5.048  14.832 -0.9357  3.2594  1.5734
 5896TIP3    H239180   0.899   5.135  14.766 -1.5568 -0.6376 -2.7918
 5897TIP3   OH239181   5.505   2.062   0.877 -0.6762  0.2992 -0.1880
 5897TIP3    H139182   5.437   2.079   0.812 -1.3636  1.6509  0.8525
 5897TIP3    H239183   5.463   2.082   0.961  1.4416  2.6308  0.3677
 5898TIP3   OH239184   0.181   6.518   2.914  0.4620 -0.6093 -0.2872
 5898TIP3    H139185   0.145   6.491   2.829  0.3053 -1.8228  0.1613
 5898TIP3    H239186   0.106   6.556   2.960  0.8075  1.1488 -1.1323
 5899TIP3   OH239187   1.110   2.435  13.107  0.0181  0.6232  0.6167
 5899TIP3    H139188   1.063   2.352  13.095 -1.4779  1.5951 -0.3723
 5899TIP3    H239189   1.197   2.418  13.070  0.3164 -1.0481  2.0267
 5900TIP3   OH239190   4.760   1.364   4.156  0.6945 -0.2299 -0.2572
 5900TIP3    H139191   4.821   1.437   4.169  1.5855 -1.0705  0.3683
 5900TIP3    H239192   4.674   1.405   4.151  1.0890  0.7788  1.0380
 5901TIP3   OH239193   5.764   6.069   3.648  0.0129 -0.8740 -0.2309
 5901TIP3    H139194   5.693   6.073   3.712  0.2582  2.8343 -0.0880
 5901TIP3    H239195   5.722   6.091   3.564  0.9788  1.6838 -0.0924
 5902TIP3   OH239196   6.085   3.672  13.595  0.4289 -0.3050 -0.1261
 5902TIP3    H139197   6.034   3.596  13.624 -0.1302 -0.0257 -0.3553
 5902TIP3    H239198   6.152   3.684  13.662  1.2592 -1.7172 -0.6777
 5903TIP3   OH239199   1.505   0.221  12.902  0.6384 -0.5200 -0.6973
 5903TIP3    H139200   1.477   0.153  12.840 -1.6595  0.9809 -1.3411
 5903TIP3    H239201   1.489   0.303  12.857 -1.3143  0.6257  1.9393
 5904TIP3   OH239202   5.565   1.439  12.495  0.2623  0.2668 -0.0806
 5904TIP3    H139203   5.540   1.354  12.459 -0.4674  0.5485 -0.2466
 5904TIP3    H239204   5.506   1.453  12.568  0.7493  0.3818  0.2935
 5905TIP3   OH239205   0.384   4.442   6.109 -0.1411 -0.0504 -0.1097
 5905TIP3    H139206   0.348   4.522   6.147 -0.0126  0.0980 -0.3049
 5905TIP3    H239207   0.363   4.374   6.174  1.0015  0.3830  0.7294
 5906TIP3   OH239208   4.767   1.461  15.443  0.1657 -0.4411 -0.4463
 5906TIP3    H139209   4.781   1.366  15.441  1.5903 -0.2403 -0.4289
 5906TIP3    H239210   4.835   1.494  15.502 -1.6921  0.3673  1.2896
 5907TIP3   OH239211   5.001   1.070  14.449 -0.3428  0.1588  0.4421
 5907TIP3    H139212   4.937   1.074  14.378 -0.3708  1.7381  0.5277
 5907TIP3    H239213   5.073   1.019  14.414 -0.6802  0.3061 -0.4682
 5908TIP3   OH239214   4.310   0.551   1.548 -0.0483  0.0285  0.1598
 5908TIP3    H139215   4.237   0.566   1.488 -0.9874  0.9524  1.4853
 5908TIP3    H239216   4.282   0.479   1.603  0.2703  0.0166  0.3082
 5909TIP3   OH239217   0.075   4.121   2.987  0.5751 -0.8229  0.2403
 5909TIP3    H139218   0.020   4.096   3.061  0.6471 -3.7945 -0.6645
 5909TIP3    H239219   0.164   4.100   3.015  0.7522 -0.5778 -0.1340
 5910TIP3   OH239220   6.036   6.437  13.862  0.7521 -0.4416 -0.4661
 5910TIP3    H139221   6.052   6.520  13.908  1.8302 -0.8296 -0.1240
 5910TIP3    H239222   5.960   6.454  13.807  0.0979  0.3553  0.6641
 5911TIP3   OH239223   5.965   3.897   3.418  0.3901  0.1466 -0.1696
 5911TIP3    H139224   5.874   3.928   3.413  0.9175  1.6605 -0.4114
 5911TIP3    H239225   5.956   3.802   3.432 -1.2542  0.6553  2.8202
 5912TIP3   OH239226   6.792   5.142  12.970 -0.3125 -0.3006 -0.1387
 5912TIP3    H139227   6.786   5.062  12.917 -0.2529 -0.4260  0.0413
 5912TIP3    H239228   6.719   5.196  12.941 -0.8936 -0.8001  0.3641
 5913TIP3   OH239229   2.559   5.390   0.100  0.0089  0.3573  0.1448
 5913TIP3    H139230   2.594   5.479   0.105 -1.1135  0.9077 -1.3210
 5913TIP3    H239231   2.466   5.402   0.078  0.0398 -1.1980 -0.9146
 5914TIP3   OH239232   3.316   0.936   1.524 -0.3638 -0.1379  0.7045
 5914TIP3    H139233   3.325   1.013   1.581  0.8511 -0.4565  0.9495
 5914TIP3    H239234   3.395   0.885   1.540  0.0627 -0.1675 -1.3824
 5915TIP3   OH239235   5.948   6.004   0.029  0.0194  0.6977  0.7462
 5915TIP3    H139236   5.861   5.969   0.008  0.0929  0.9083  0.0983
 5915TIP3    H239237   5.937   6.044   0.116 -0.4604  0.4696  0.7920
 5916TIP3   OH239238   5.988   5.407   5.074 -0.0821 -0.2456  0.0819
 5916TIP3    H139239   6.012   5.437   5.162 -0.1924 -1.0706  0.3937
 5916TIP3    H239240   5.910   5.458   5.052  0.2703  0.3725  0.2258
 5917TIP3   OH239241   2.154   3.041  10.574 -0.5112 -0.4039  0.0851
 5917TIP3    H139242   2.178   3.013  10.486  0.5427  1.6562 -0.3315
 5917TIP3    H239243   2.152   2.961  10.626  0.0718 -1.4908 -1.5477
 5918TIP3   OH239244   0.444   6.387   1.595 -0.3532  0.2333 -0.0878
 5918TIP3    H139245   0.464   6.300   1.629 -0.9827 -0.4782 -1.4888
 5918TIP3    H239246   0.348   6.392   1.597 -0.3755  0.4366 -1.0389
 5919TIP3   OH239247   3.355   4.313   5.347 -0.3592 -0.1641 -0.3683
 5919TIP3    H139248   3.274   4.279   5.308  0.2120 -1.5858 -0.3464
 5919TIP3    H239249   3.368   4.261   5.426 -0.0057  0.8213  0.2401
 5920TIP3   OH239250   6.741   2.159   5.738  0.1158 -0.0476  0.2903
 5920TIP3    H139251   6.695   2.076   5.727 -1.0014  0.6103 -0.0702
 5920TIP3    H239252   6.765   2.161   5.831  1.3821 -1.3912  0.0088
 5921TIP3   OH239253   2.544   5.472   1.283  0.2231 -0.4559  0.2249
 5921TIP3    H139254   2.527   5.566   1.281  0.1671 -0.4862 -0.8403
 5921TIP3    H239255   2.565   5.454   1.375  0.6250  0.6578  0.3591
 5922TIP3   OH239256   1.269   4.456   3.282  0.3924 -0.7265 -0.3864
 5922TIP3    H139257   1.295   4.455   3.374  1.2092 -1.2802 -0.6238
 5922TIP3    H239258   1.320   4.528   3.243 -0.9910  0.4341 -0.1155
 5923TIP3   OH239259   3.933   4.438  15.569  0.1113  0.3564  0.2889
 5923TIP3    H139260   3.986   4.411  15.493 -1.7334  0.8466 -1.2005
 5923TIP3    H239261   3.944   4.533  15.574  1.1955  0.1878  1.4004
 5924TIP3   OH239262   0.250   4.912  15.222  0.3373  0.0290 -1.1173
 5924TIP3    H139263   0.182   4.853  15.255  1.1164  0.7305  1.8925
 5924TIP3    H239264   0.229   4.997  15.261  1.4733  0.8267 -2.2132
 5925TIP3   OH239265   0.290   1.396   2.013 -0.1552 -0.6523 -0.2736
 5925TIP3    H139266   0.196   1.408   1.995  0.0624  1.2650 -0.1956
 5925TIP3    H239267   0.301   1.301   2.019 -2.0753 -0.9003 -0.3802
 5926TIP3   OH239268   1.115   4.136  14.702 -0.3141  0.4037  0.0852
 5926TIP3    H139269   1.092   4.201  14.768 -0.6445 -1.1777  1.5909
 5926TIP3    H239270   1.063   4.160  14.625 -1.2509  1.2786  0.9705
 5927TIP3   OH239271   1.478   4.827  15.480 -0.3531 -0.7425  0.9039
 5927TIP3    H139272   1.429   4.862  15.405  0.9039  0.6604  0.7173
 5927TIP3    H239273   1.415   4.831  15.552 -1.1374 -0.8041  0.2400
 5928TIP3   OH239274   5.701   2.733   2.560  0.0299 -0.2347  0.0143
 5928TIP3    H139275   5.632   2.789   2.597  0.5997  0.6337 -0.2231
 5928TIP3    H239276   5.687   2.648   2.601 -2.0358 -0.4348 -1.0644
 5929TIP3   OH239277   4.234   1.142   4.183  0.3159 -0.3548 -0.0036
 5929TIP3    H139278   4.208   1.052   4.165  0.2831 -0.2629 -0.4392
 5929TIP3    H239279   4.330   1.140   4.182  0.3222 -0.1529 -1.2766
 5930TIP3   OH239280   3.491   5.802   1.777 -0.4144 -0.0491  0.3185
 5930TIP3    H139281   3.489   5.709   1.753 -0.0903 -0.2019  0.8863
 5930TIP3    H239282   3.577   5.832   1.746 -1.7250  0.8326 -2.7111
 5931TIP3   OH239283   1.571   6.760   3.565  0.3279 -0.1854 -0.0168
 5931TIP3    H139284   1.633   6.791   3.499 -0.9610  1.6047 -0.4110
 5931TIP3    H239285   1.596   6.668   3.580  4.0136  0.8872  0.9387
 5932TIP3   OH239286   2.676   5.701  12.425  0.2607 -0.0409 -0.1153
 5932TIP3    H139287   2.762   5.712  12.384  1.3240  0.1298  2.0582
 5932TIP3    H239288   2.667   5.777  12.482 -1.4909  0.1073 -0.5875
 5933TIP3   OH239289   0.531   4.564   3.494  0.0935 -0.0779 -0.2051
 5933TIP3    H139290   0.593   4.573   3.566  0.6926 -3.4761 -0.1777
 5933TIP3    H239291   0.446   4.555   3.537 -0.0600  1.7448 -0.1131
 5934TIP3   OH239292   5.532   3.567   4.238 -0.3539 -0.1962 -0.1825
 5934TIP3    H139293   5.550   3.496   4.300  0.0028  0.4933  0.5143
 5934TIP3    H239294   5.468   3.530   4.177  1.7638 -1.9618 -1.3826
 5935TIP3   OH239295   5.469   3.726   2.689  0.1815 -0.2371  0.2491
 5935TIP3    H139296   5.539   3.751   2.749  1.6344  1.2287 -1.9406
 5935TIP3    H239297   5.453   3.633   2.707  0.5603  0.1735  2.8423
 5936TIP3   OH239298   4.016   5.696   4.774 -0.0807 -0.3538 -0.0396
 5936TIP3    H139299   3.960   5.751   4.829  0.1060 -0.2729  0.0721
 5936TIP3    H239300   4.031   5.617   4.826  1.5757  0.4774  0.8020
 5937TIP3   OH239301   0.429   0.403  10.701 -0.1607  0.2062  0.8361
 5937TIP3    H139302   0.518   0.421  10.731 -0.0227  1.5169 -0.3071
 5937TIP3    H239303   0.378   0.480  10.728 -0.8809 -0.3839  1.1911
 5938TIP3   OH239304   4.796   2.886   0.357 -0.4095  0.2106 -0.1624
 5938TIP3    H139305   4.843   2.859   0.436  0.8157  1.2455 -0.5270
 5938TIP3    H239306   4.739   2.812   0.337  1.4335 -1.2797 -0.0193
 5939TIP3   OH239307   5.575   2.359   0.599 -0.6374 -0.0087 -0.7795
 5939TIP3    H139308   5.587   2.360   0.694  3.3024  0.0007 -1.1920
 5939TIP3    H239309   5.535   2.444   0.579  0.7523  0.9900  0.6391
 5940TIP3   OH239310   2.911   0.688  12.925  0.2258 -1.1311 -0.5162
 5940TIP3    H139311   2.897   0.770  12.877  0.9935 -1.0353 -0.5938
 5940TIP3    H239312   2.827   0.669  12.965  0.0696 -0.2276 -0.3985
 5941TIP3   OH239313   5.175   3.118   0.517 -0.8822  0.6239 -0.1416
 5941TIP3    H139314   5.263   3.088   0.495  0.2657  1.6049  2.8370
 5941TIP3    H239315   5.166   3.102   0.611 -3.6694  1.1022 -0.2682
 5942TIP3   OH239316   5.743   1.804   0.247 -0.0921  0.0341  0.2095
 5942TIP3    H139317   5.805   1.845   0.308 -0.5683  0.4798  0.3999
 5942TIP3    H239318   5.787   1.808   0.162  0.9885 -1.4709  0.6845
 5943TIP3   OH239319   5.471   0.531  14.103 -0.1181 -0.2073 -0.3491
 5943TIP3    H139320   5.413   0.607  14.097  0.9194  0.7101  0.9370
 5943TIP3    H239321   5.462   0.487  14.018  0.8388  2.4946 -1.8935
 5944TIP3   OH239322   4.958   0.895  14.813 -0.4764  0.2548 -0.1915
 5944TIP3    H139323   4.919   0.891  14.725 -0.0535 -1.0371 -0.3319
 5944TIP3    H239324   5.053   0.900  14.797 -0.4226  0.4689  0.1845
 5945TIP3   OH239325   6.320   6.759   4.902 -0.1108  0.4110  0.1441
 5945TIP3    H139326   6.239   6.708   4.897  0.5064 -0.6028  0.3245
 5945TIP3    H239327   6.387   6.695   4.928  0.7359  1.2466  0.0362
 5946TIP3   OH239328   3.439   0.077  17.039 -0.3803  0.0908  0.2228
 5946TIP3    H139329   3.409   0.103  17.126 -1.8899 -1.1990  0.1127
 5946TIP3    H239330   3.425   0.155  16.985 -2.6155 -0.1338  0.4139
 5947TIP3   OH239331   5.549   5.572   2.310 -0.2429  0.1924  0.7023
 5947TIP3    H139332   5.491   5.612   2.376  0.7237 -0.8456  2.2212
 5947TIP3    H239333   5.623   5.540   2.361  0.1309 -1.3803 -0.8181
 5948TIP3   OH239334   6.579   4.460  15.638 -0.4483  0.1692 -0.1971
 5948TIP3    H139335   6.590   4.376  15.681 -1.4991 -0.1219 -0.4600
 5948TIP3    H239336   6.492   4.490  15.665  0.5847  1.9643  1.2244
 5949TIP3   OH239337   5.190   5.658  13.028 -0.1636 -0.5246 -0.2605
 5949TIP3    H139338   5.285   5.659  13.014 -0.1388  0.1194 -0.0457
 5949TIP3    H239339   5.169   5.565  13.039  0.5847 -0.5989  0.6069
 5950TIP3   OH239340   0.415   1.641  12.360  0.5367 -0.6921  0.1301
 5950TIP3    H139341   0.386   1.709  12.421  0.9306 -0.4000 -0.0086
 5950TIP3    H239342   0.463   1.688  12.291 -0.5351 -0.9360 -0.8000
 5951TIP3   OH239343   0.334   5.018   2.667 -0.2453  0.1647  0.0616
 5951TIP3    H139344   0.287   4.938   2.644  0.8515 -0.4420 -0.0609
 5951TIP3    H239345   0.307   5.036   2.757  1.5983 -1.8575  1.0612
 5952TIP3   OH239346   3.172   1.485  14.590 -0.3194  0.5638  0.1086
 5952TIP3    H139347   3.160   1.572  14.553  1.7639  0.8935  0.1375
 5952TIP3    H239348   3.221   1.437  14.522  1.7133  0.5472  1.5391
 5953TIP3   OH239349   1.056   1.894   3.380  0.4997 -0.7094 -0.3950
 5953TIP3    H139350   0.989   1.837   3.418  0.9496 -0.7244  0.3828
 5953TIP3    H239351   1.030   1.904   3.288 -1.2446  0.2718  0.1837
 5954TIP3   OH239352   2.429   1.434  14.266 -0.5103 -0.3661 -0.8583
 5954TIP3    H139353   2.376   1.379  14.208  1.0658 -2.9572  0.0582
 5954TIP3    H239354   2.518   1.426  14.231  0.2452 -0.9349  1.1418
 5955TIP3   OH239355   4.453   1.926   3.984  0.0022 -0.0960 -0.3296
 5955TIP3    H139356   4.367   1.894   4.011  0.1077 -0.5238 -0.4986
 5955TIP3    H239357   4.460   1.903   3.892  0.1107  0.3553 -0.4363
 5956TIP3   OH239358   5.133   3.365   0.794 -0.2304 -0.3661  0.1733
 5956TIP3    H139359   5.081   3.286   0.778  0.5023 -1.1895  1.7186
 5956TIP3    H239360   5.094   3.403   0.873  0.0844  0.2482  0.0293
 5957TIP3   OH239361   2.457   1.572   5.573  0.0621  0.0975 -0.1211
 5957TIP3    H139362   2.551   1.587   5.570  0.3867 -2.0960 -2.4104
 5957TIP3    H239363   2.419   1.644   5.523  0.7356 -0.4363 -1.4099
 5958TIP3   OH239364   1.152   2.595   4.552 -0.4737  0.2319 -0.1951
 5958TIP3    H139365   1.082   2.619   4.614  0.1448  0.5856  0.3689
 5958TIP3    H239366   1.151   2.500   4.550  1.5413  0.0999  2.7197
 5959TIP3   OH239367   5.503   3.189  12.278 -0.5125 -0.0841  0.3399
 5959TIP3    H139368   5.461   3.108  12.247 -0.2342 -0.6761  1.4824
 5959TIP3    H239369   5.467   3.257  12.222  1.4884 -1.3693 -2.7159
 5960TIP3   OH239370   1.881   6.085   0.972 -0.3107 -0.0472  0.2646
 5960TIP3    H139371   1.893   6.147   1.044 -0.2181  0.6705 -0.3705
 5960TIP3    H239372   1.905   6.133   0.893  0.3608 -1.0773 -0.1776
 5961TIP3   OH239373   3.106   6.102  12.336  0.3505 -0.3347 -0.0959
 5961TIP3    H139374   3.199   6.109  12.314  0.2751  0.2168 -0.2603
 5961TIP3    H239375   3.099   6.142  12.423  0.1077  0.5601 -0.5182
 5962TIP3   OH239376   0.799   4.887   2.811  0.1680  0.1757  0.7202
 5962TIP3    H139377   0.779   4.930   2.894  0.5805 -0.3751  1.1096
 5962TIP3    H239378   0.824   4.798   2.835  3.2797  0.8696  0.3055
 5963TIP3   OH239379   2.399   2.864   4.222  0.0702 -0.0392  0.3772
 5963TIP3    H139380   2.324   2.862   4.282  0.3788  0.9580  0.8053
 5963TIP3    H239381   2.388   2.946   4.174  1.6996  0.8416  1.4821
 5964TIP3   OH239382   4.861   0.412   1.225  0.5083  0.2179 -0.0860
 5964TIP3    H139383   4.827   0.333   1.267  0.7809  0.5707  0.7945
 5964TIP3    H239384   4.859   0.391   1.131 -1.1390 -0.1528  0.0115
 5965TIP3   OH239385   5.221   0.164   0.851  0.4425  0.1954 -0.5507
 5965TIP3    H139386   5.246   0.074   0.872 -0.9643 -0.4034 -1.3174
 5965TIP3    H239387   5.243   0.175   0.759 -0.5527  0.1975 -0.8001
 5966TIP3   OH239388   1.823   1.832  14.851  0.2689  0.2940  0.6311
 5966TIP3    H139389   1.781   1.774  14.787 -0.6186 -0.3493  1.7755
 5966TIP3    H239390   1.896   1.782  14.886 -0.6776 -0.2687  1.8370
 5967TIP3   OH239391   0.311   6.765  12.421  0.2695  0.0866  0.3797
 5967TIP3    H139392   0.298   6.681  12.467 -0.9660 -0.0424 -0.1910
 5967TIP3    H239393   0.377   6.745  12.354 -1.5145 -0.9712 -1.1102
 5968TIP3   OH239394   5.096   0.134   4.430 -0.3472  0.3302 -0.1226
 5968TIP3    H139395   5.078   0.167   4.519 -1.1257  0.9747 -0.5068
 5968TIP3    H239396   5.151   0.201   4.390  0.0215  0.0285 -0.1180
 5969TIP3   OH239397   0.317   1.447  13.635 -0.0849 -0.1327 -0.2427
 5969TIP3    H139398   0.322   1.352  13.620  2.2475  0.1063 -1.1945
 5969TIP3    H239399   0.285   1.483  13.552 -1.0692 -0.0733  0.1534
 5970TIP3   OH239400   3.202   4.239   1.335  0.4296  0.4227  0.2418
 5970TIP3    H139401   3.119   4.202   1.365 -0.3619 -0.6641 -3.0067
 5970TIP3    H239402   3.195   4.333   1.353 -1.5670  0.3644 -0.0705
 5971TIP3   OH239403   1.502   4.696   0.568 -0.7924  0.0531 -0.2957
 5971TIP3    H139404   1.568   4.761   0.546 -0.0331 -0.6062 -0.0029
 5971TIP3    H239405   1.533   4.656   0.649 -1.8772  0.1795  0.1899
 5972TIP3   OH239406   5.651   6.757   2.260  0.4356  0.1340 -0.5775
 5972TIP3    H139407   5.672   6.848   2.282  0.8929  0.2174 -1.3461
 5972TIP3    H239408   5.720   6.730   2.200 -0.0503 -0.5271 -0.8447
 5973TIP3   OH239409   6.126   1.821  11.141 -0.1337 -0.8403 -0.1962
 5973TIP3    H139410   6.159   1.856  11.058 -1.1185 -2.5903 -1.3601
 5973TIP3    H239411   6.189   1.851  11.207  1.6270 -0.8980 -1.8175
 5974TIP3   OH239412   6.496   0.318   4.818 -0.5825  0.4791 -0.0672
 5974TIP3    H139413   6.514   0.238   4.866 -1.3053  0.6290  0.4655
 5974TIP3    H239414   6.565   0.323   4.752 -0.2113 -0.2850  0.2621
 5975TIP3   OH239415   4.059   2.078  13.694  0.6492 -0.0190 -0.1083
 5975TIP3    H139416   4.064   2.002  13.751 -1.1025 -0.2526 -0.2311
 5975TIP3    H239417   4.054   2.041  13.606  1.9067  0.2992 -0.3162
 5976TIP3   OH239418   0.542   2.354  15.661  0.0833  0.3730  0.4374
 5976TIP3    H139419   0.590   2.360  15.579  1.1367  0.5484  1.0582
 5976TIP3    H239420   0.493   2.271  15.654 -0.3363  0.7002 -0.6142
 5977TIP3   OH239421   3.151   2.138  12.181 -0.2834  0.2809 -0.2246
 5977TIP3    H139422   3.212   2.208  12.204  2.1586 -1.2851 -1.6847
 5977TIP3    H239423   3.077   2.183  12.140  0.6646  2.0945 -0.0053
 5978TIP3   OH239424   3.525   0.983   1.006  0.5524  0.1160  0.6406
 5978TIP3    H139425   3.472   1.063   1.000  0.8173  0.2052 -0.5808
 5978TIP3    H239426   3.614   1.011   0.985  0.7436 -0.3901  0.7617
 5979TIP3   OH239427   0.877   6.426  13.598 -0.0471 -0.0660 -0.0174
 5979TIP3    H139428   0.835   6.475  13.669  0.7652 -0.6828  0.8922
 5979TIP3    H239429   0.947   6.482  13.567 -1.4333  0.9307 -1.4818
 5980TIP3   OH239430   5.129   5.796  16.809  0.4017  0.1413  0.4205
 5980TIP3    H139431   5.224   5.784  16.817  0.4201 -1.5297 -1.7625
 5980TIP3    H239432   5.114   5.803  16.715 -1.6174  0.6422  0.7633
 5981TIP3   OH239433   5.185   5.628   0.609 -0.5206  0.4445  0.3371
 5981TIP3    H139434   5.178   5.718   0.576  1.1574  0.4663 -0.0076
 5981TIP3    H239435   5.197   5.638   0.703 -0.1837  0.5904  0.2793
 5982TIP3   OH239436   4.564   2.616   6.174 -0.3275  0.5330  0.2958
 5982TIP3    H139437   4.558   2.677   6.247 -0.1141  1.7559 -0.6865
 5982TIP3    H239438   4.492   2.554   6.189 -2.1587  2.4994 -0.0066
 5983TIP3   OH239439   5.073   3.928  11.293 -1.0407 -0.3023  0.4700
 5983TIP3    H139440   4.994   3.874  11.296 -0.4048 -1.3249 -0.5184
 5983TIP3    H239441   5.047   4.011  11.332 -2.6498 -0.5703  0.0131
 5984TIP3   OH239442   3.964   3.917   2.888  0.2530 -0.0681 -0.3540
 5984TIP3    H139443   4.032   3.975   2.853 -1.5166  2.4603  0.2614
 5984TIP3    H239444   3.902   3.907   2.816 -0.2501  0.1067  0.0509
 5985TIP3   OH239445   4.557   0.076  12.610 -0.2941 -0.0089 -0.4623
 5985TIP3    H139446   4.493   0.118  12.552 -0.2254  0.4133 -0.2386
 5985TIP3    H239447   4.504   0.025  12.671 -0.3895 -0.1251 -0.6435
 5986TIP3   OH239448   6.472   1.055   4.237  0.5782 -0.4084 -0.2333
 5986TIP3    H139449   6.491   0.978   4.184  0.5935  0.3959 -1.4172
 5986TIP3    H239450   6.389   1.034   4.280  0.2439 -0.8286 -1.0671
 5987TIP3   OH239451   6.125   2.300   1.711  0.6120  0.1714  0.7785
 5987TIP3    H139452   6.149   2.390   1.691  0.7041 -0.0049  0.0663
 5987TIP3    H239453   6.140   2.253   1.629 -2.1737  0.0514  0.2793
 5988TIP3   OH239454   0.847   3.816   0.568  0.0208  0.3336  0.1321
 5988TIP3    H139455   0.751   3.810   0.574 -0.2540  2.0519 -1.8049
 5988TIP3    H239456   0.866   3.801   0.476  1.4439  1.8718  0.1473
 5989TIP3   OH239457   5.282   6.340   1.823 -0.2123 -0.0071 -0.3648
 5989TIP3    H139458   5.307   6.248   1.822  1.8949  0.5423 -2.9249
 5989TIP3    H239459   5.223   6.350   1.748 -0.3811  0.7397 -0.1421
 5990TIP3   OH239460   2.958   1.031   3.498 -0.0693 -0.4276 -0.5450
 5990TIP3    H139461   2.893   1.016   3.429  1.2837 -2.0746 -1.4816
 5990TIP3    H239462   3.038   0.990   3.465  1.1290  0.5223  1.1358
 5991TIP3   OH239463   4.912   2.467  12.130 -0.0540  0.8478  0.4812
 5991TIP3    H139464   4.951   2.536  12.076  3.3980 -1.1042  0.2715
 5991TIP3    H239465   4.977   2.396  12.128 -1.6030 -0.7947  4.0587
 5992TIP3   OH239466   6.810   4.633  12.144 -0.0961 -0.3118  0.1681
 5992TIP3    H139467   6.881   4.686  12.181 -0.2380  0.5386 -0.7651
 5992TIP3    H239468   6.778   4.581  12.218  1.4166 -0.6204  0.6281
 5993TIP3   OH239469   4.823   0.029   5.669 -0.2681 -0.6758  0.0144
 5993TIP3    H139470   4.826  -0.067   5.674 -0.1828 -0.6437  0.5760
 5993TIP3    H239471   4.912   0.055   5.645 -0.4693 -0.7779 -0.8682
 5994TIP3   OH239472   4.241   0.855  16.372 -0.0908 -0.0386 -0.4291
 5994TIP3    H139473   4.244   0.887  16.282 -0.5476  0.9836 -0.0840
 5994TIP3    H239474   4.258   0.932  16.426  1.4615 -0.8857  0.3322
 5995TIP3   OH239475   0.471   3.105   0.983  0.0592  0.2535  0.0579
 5995TIP3    H139476   0.397   3.060   1.024 -1.1585 -0.6055 -2.9076
 5995TIP3    H239477   0.431   3.180   0.938  1.3950  1.4167  0.7986
 5996TIP3   OH239478   6.588   5.503   1.921  0.2002 -0.0315  0.6008
 5996TIP3    H139479   6.609   5.431   1.980 -1.2534 -0.1343  1.0032
 5996TIP3    H239480   6.493   5.500   1.912  0.0531  2.2400  1.1421
 5997TIP3   OH239481   3.480   6.756   2.480 -0.0663  0.0095  0.3588
 5997TIP3    H139482   3.558   6.735   2.530  1.3844  1.1026 -1.3950
 5997TIP3    H239483   3.455   6.673   2.439 -1.0159 -0.7889  2.4988
 5998TIP3   OH239484   3.759   0.998  14.603  0.9908  0.1780  0.0725
 5998TIP3    H139485   3.679   0.984  14.551  1.4494 -0.2303 -0.5198
 5998TIP3    H239486   3.828   0.958  14.552  1.6442  0.8582  0.4135
 5999TIP3   OH239487   2.905   3.464  12.818 -0.8336  1.3474  0.0400
 5999TIP3    H139488   2.984   3.511  12.844  1.5096 -1.7480 -1.1219
 5999TIP3    H239489   2.902   3.388  12.877 -1.9047  0.4529 -1.1332
 6000TIP3   OH239490   4.947   3.643   4.024  0.4092 -0.3677  0.1713
 6000TIP3    H139491   4.943   3.733   3.992  1.6301 -0.3975 -0.0830
 6000TIP3    H239492   4.888   3.594   3.967  0.0341  0.1981  0.0756
 6001TIP3   OH239493   0.031   5.257   2.960 -0.5869 -0.0747  0.1701
 6001TIP3    H139494   0.030   5.201   2.882  0.1880 -1.0886  0.8829
 6001TIP3    H239495  -0.020   5.334   2.934 -1.7517 -1.1410 -0.7943
 6002TIP3   OH239496   1.834   1.986   4.102  0.3182 -0.1071  0.2992
 6002TIP3    H139497   1.792   1.934   4.034 -0.2412  2.3638 -1.2984
 6002TIP3    H239498   1.763   2.041   4.137  1.3250  1.0211  0.5679
 6003TIP3   OH239499   2.462   5.895   4.824 -0.3263 -0.3605  0.9443
 6003TIP3    H139500   2.426   5.863   4.741 -0.5755 -2.3198  1.7889
 6003TIP3    H239501   2.536   5.949   4.798 -1.5645  0.6245 -0.6358
 6004TIP3   OH239502   0.472   3.757  14.353  0.1410 -0.1439 -0.0002
 6004TIP3    H139503   0.430   3.712  14.279 -0.4566 -1.4876  1.1456
 6004TIP3    H239504   0.403   3.766  14.418  0.2963  2.3051 -0.1120
 6005TIP3   OH239505   1.746   5.630  15.744 -0.0360  0.1047 -0.1315
 6005TIP3    H139506   1.822   5.687  15.733 -0.3496  0.4757 -0.4175
 6005TIP3    H239507   1.765   5.553  15.690  0.8638 -0.5488  1.0974
 6006TIP3   OH239508   0.912   4.971  13.449  0.0438  0.6761 -0.0642
 6006TIP3    H139509   0.828   4.963  13.404  0.8415 -0.2777 -1.4290
 6006TIP3    H239510   0.940   4.881  13.464  0.7592  0.9871  0.4968
 6007TIP3   OH239511   1.633   0.337  15.167  0.2880 -0.2734 -0.2061
 6007TIP3    H139512   1.624   0.414  15.111 -0.3627 -0.1982 -0.0105
 6007TIP3    H239513   1.598   0.265  15.114 -0.6713 -0.1397  0.2234
 6008TIP3   OH239514   4.903   3.028   2.291  0.2665  0.6556 -0.1289
 6008TIP3    H139515   4.875   3.120   2.283  1.2031  1.0587  1.1725
 6008TIP3    H239516   4.994   3.028   2.260  0.1574  0.0969 -0.4529
 6009TIP3   OH239517   4.324   2.051  14.189  0.5596  0.3135 -0.1339
 6009TIP3    H139518   4.336   2.135  14.144 -1.7951  1.7808  1.8089
 6009TIP3    H239519   4.383   2.056  14.264 -1.4373  1.3883  1.4154
 6010TIP3   OH239520   0.872   1.355   2.125 -0.2457 -0.1477 -0.0926
 6010TIP3    H139521   0.847   1.285   2.185 -0.5940 -1.0952 -1.3161
 6010TIP3    H239522   0.792   1.406   2.112 -1.0511 -1.8872 -2.2939
 6011TIP3   OH239523   3.775   4.316  14.096  0.1571 -0.5334 -0.2171
 6011TIP3    H139524   3.718   4.364  14.155 -1.1859 -2.2568 -0.0759
 6011TIP3    H239525   3.790   4.232  14.139  0.6890 -1.0915 -1.4490
 6012TIP3   OH239526   6.632   2.097  13.614 -0.1863 -0.1345  0.3524
 6012TIP3    H139527   6.539   2.113  13.631 -0.0468  0.4119  0.6184
 6012TIP3    H239528   6.637   2.004  13.592 -0.9320  0.0436 -0.6141
 6013TIP3   OH239529   2.270   4.652  15.820  0.5754 -0.7206  0.3767
 6013TIP3    H139530   2.248   4.699  15.740 -0.6689  0.8065  1.5730
 6013TIP3    H239531   2.275   4.721  15.887  1.0961 -2.0257  1.7004
 6014TIP3   OH239532   2.621   0.119  15.545 -0.4125 -0.3211  0.0779
 6014TIP3    H139533   2.686   0.076  15.600  1.7205  0.7423 -1.5537
 6014TIP3    H239534   2.614   0.064  15.467 -1.2079 -0.2100  0.0599
 6015TIP3   OH239535   4.441   3.807   3.402  0.5510  0.0279  0.0217
 6015TIP3    H139536   4.472   3.717   3.394  1.0883  0.3176 -1.3992
 6015TIP3    H239537   4.421   3.833   3.312  2.4181  2.0045  0.1383
 6016TIP3   OH239538   4.738   1.245   5.964 -0.5771  0.1970  0.0802
 6016TIP3    H139539   4.717   1.246   5.870 -0.3352 -1.9777 -0.0206
 6016TIP3    H239540   4.725   1.335   5.992 -0.0205  1.0327 -2.1948
 6017TIP3   OH239541   6.777   2.025  11.610  0.4057  0.4620 -0.3198
 6017TIP3    H139542   6.792   2.013  11.517  0.6110 -0.1554 -0.2047
 6017TIP3    H239543   6.699   2.080  11.614 -0.2113 -0.3618 -0.8465
 6018TIP3   OH239544   2.262   4.368  12.214  0.3211 -0.5458  0.4224
 6018TIP3    H139545   2.328   4.428  12.178  0.6327  0.8004  3.1623
 6018TIP3    H239546   2.196   4.425  12.251  1.1297 -1.8367  4.0053
 6019TIP3   OH239547   4.339   6.463  14.877  0.1633 -0.4236  0.1084
 6019TIP3    H139548   4.306   6.382  14.839  1.2537 -1.0947  0.5572
 6019TIP3    H239549   4.327   6.451  14.972 -0.5332  0.3232  0.1145
 6020TIP3   OH239550   6.628   0.547   2.771 -0.7377  0.0259 -0.5009
 6020TIP3    H139551   6.556   0.524   2.830  1.3918 -0.6776  1.9297
 6020TIP3    H239552   6.706   0.511   2.814  1.2331  1.9062 -2.4058
 6021TIP3   OH239553   5.016   1.516   1.383 -0.4222  0.4465 -0.1010
 6021TIP3    H139554   5.015   1.612   1.388  0.0585  0.3687  1.4841
 6021TIP3    H239555   5.085   1.497   1.320 -0.5764  1.1357 -0.4926
 6022TIP3   OH239556   5.203   3.640  15.821 -0.4160  0.4477 -0.1144
 6022TIP3    H139557   5.270   3.702  15.852 -0.3383  0.0495  0.5128
 6022TIP3    H239558   5.213   3.641  15.725  1.1325 -0.3218  0.0309
 6023TIP3   OH239559   1.436   0.530   1.701  0.0076  0.0982 -0.2158
 6023TIP3    H139560   1.422   0.599   1.636 -0.9219  2.3481  2.2904
 6023TIP3    H239561   1.356   0.530   1.753  0.7885 -1.5853  1.0257
 6024TIP3   OH239562   0.098   2.496   5.209 -0.1796 -0.0742 -0.2044
 6024TIP3    H139563   0.133   2.564   5.267 -1.5514  1.9298 -1.6735
 6024TIP3    H239564   0.174   2.440   5.191  1.2680  1.7073  0.1337
 6025TIP3   OH239565   2.994   1.216  12.055  0.4098 -0.3888  0.3517
 6025TIP3    H139566   3.019   1.211  11.963  0.6254 -0.9628  0.4415
 6025TIP3    H239567   2.899   1.229  12.053  0.2907 -1.2698  0.0658
 6026TIP3   OH239568   5.485   0.679   0.044 -0.0026  0.2501 -0.3484
 6026TIP3    H139569   5.494   0.678   0.139  0.8720 -0.7544 -0.4385
 6026TIP3    H239570   5.566   0.720   0.013  0.2021 -0.4196 -0.7070
 6027TIP3   OH239571   0.086   1.287  14.965  0.4412 -0.0140 -0.1806
 6027TIP3    H139572   0.026   1.218  14.938  0.4724  0.0657 -0.4537
 6027TIP3    H239573   0.091   1.346  14.889  0.0572  0.5342  0.2123
 6028TIP3   OH239574   3.018   6.612   6.169  0.2960  0.4403 -0.2934
 6028TIP3    H139575   2.957   6.608   6.243 -0.2373  2.2425 -0.6014
 6028TIP3    H239576   3.101   6.640   6.208  0.5854 -0.7415 -0.0621
 6029TIP3   OH239577   6.477   5.037   5.922 -0.2686  0.0308  0.2139
 6029TIP3    H139578   6.408   4.996   5.974  0.3838  1.1455  2.0069
 6029TIP3    H239579   6.533   4.964   5.895 -1.2254 -0.6850  0.1373
 6030TIP3   OH239580   6.267   1.508   1.270  0.2175  0.3408  0.3120
 6030TIP3    H139581   6.235   1.594   1.298  1.1398  0.3297  1.4287
 6030TIP3    H239582   6.283   1.461   1.351  1.5126 -0.2199 -0.2599
 6031TIP3   OH239583   0.930   4.053   3.061  0.5250  0.2883  0.4198
 6031TIP3    H139584   0.964   4.061   2.972  0.7497  2.3152  0.6528
 6031TIP3    H239585   1.005   4.072   3.118 -0.0920  1.0154  1.0033
 6032TIP3   OH239586   2.489   1.589   4.123 -0.0049 -0.6306 -0.0064
 6032TIP3    H139587   2.539   1.523   4.074 -1.6439  0.0212 -2.6609
 6032TIP3    H239588   2.540   1.670   4.113 -1.5659  0.0779 -2.8756
 6033TIP3   OH239589   5.834   6.510   4.942  0.5166  0.2896 -0.2946
 6033TIP3    H139590   5.780   6.544   5.014  0.7459  2.0975 -0.9534
 6033TIP3    H239591   5.774   6.506   4.867  0.2516 -1.6906 -0.0050
 6034TIP3   OH239592   1.788   1.449  15.093  0.0178 -0.2863  0.6972
 6034TIP3    H139593   1.822   1.410  15.173 -1.1821  0.2311  1.4766
 6034TIP3    H239594   1.714   1.393  15.069  1.2744 -1.3112 -0.8869
 6035TIP3   OH239595   2.564   6.578  15.045 -0.1043 -0.1799 -0.1235
 6035TIP3    H139596   2.608   6.499  15.077 -0.0968 -0.1367 -0.0271
 6035TIP3    H239597   2.506   6.604  15.117 -0.8016 -0.6337 -0.5111
 6036TIP3   OH239598   4.411   0.527  15.698 -0.2227  0.0827 -0.0317
 6036TIP3    H139599   4.491   0.495  15.656  0.1925 -0.6988  1.3425
 6036TIP3    H239600   4.370   0.582  15.631  0.6371 -0.8075 -1.3117
 6037TIP3   OH239601   2.662   5.180   4.645  0.9795 -0.1576  0.3449
 6037TIP3    H139602   2.739   5.157   4.696  0.3148 -0.1934  1.3453
 6037TIP3    H239603   2.592   5.192   4.710 -0.6562 -3.3224 -0.6866
 6038TIP3   OH239604   4.655   3.494  11.145  0.4767 -0.2759  0.1778
 6038TIP3    H139605   4.670   3.569  11.087  0.0805  0.4404  1.0010
 6038TIP3    H239606   4.617   3.428  11.088  0.1571  0.4004 -0.4062
 6039TIP3   OH239607   4.646   2.776  14.213 -0.5729 -0.4697 -0.3710
 6039TIP3    H139608   4.603   2.758  14.129  1.3914 -1.1345 -1.2733
 6039TIP3    H239609   4.685   2.863  14.202 -2.7516  0.6989  0.9094
 6040TIP3   OH239610   0.541   3.505   3.970  0.5039 -0.7382 -0.3602
 6040TIP3    H139611   0.600   3.552   4.029 -0.5524  0.7531 -0.4677
 6040TIP3    H239612   0.543   3.556   3.888 -1.3289 -0.3516 -0.1863
 6041TIP3   OH239613   3.118   3.203  14.308  0.4761 -0.1509 -0.0017
 6041TIP3    H139614   3.060   3.192  14.233  1.8622  0.6196 -1.2028
 6041TIP3    H239615   3.126   3.298  14.319 -0.5110 -0.2366  1.7703
 6042TIP3   OH239616   6.663   3.728  11.884  0.1323  0.7546  0.2292
 6042TIP3    H139617   6.746   3.753  11.927  0.2603  2.2264 -0.8203
 6042TIP3    H239618   6.596   3.754  11.947  0.2743  3.7880 -0.7844
 6043TIP3   OH239619   0.181   2.175  11.551  0.1311 -0.6809 -0.2294
 6043TIP3    H139620   0.099   2.129  11.569 -0.7853  0.9128 -0.1886
 6043TIP3    H239621   0.235   2.111  11.504 -1.8952 -1.1118 -2.0602
 6044TIP3   OH239622   6.706   2.355   4.477  0.4244  0.3022 -0.0003
 6044TIP3    H139623   6.623   2.399   4.455 -0.0092 -0.9213 -0.8514
 6044TIP3    H239624   6.700   2.339   4.571  0.6084  2.1000  0.3348
 6045TIP3   OH239625   5.056   6.367  11.710 -0.1705 -0.2024 -0.4625
 6045TIP3    H139626   5.039   6.411  11.627 -0.9936  0.1656 -0.1064
 6045TIP3    H239627   5.152   6.362  11.716 -0.1179 -0.5506 -1.5931
 6046TIP3   OH239628   6.075   4.126   4.684  0.9453  0.1374 -0.3259
 6046TIP3    H139629   6.152   4.161   4.728  0.2645 -0.4326  1.4100
 6046TIP3    H239630   6.004   4.183   4.712  0.5708  0.0271 -1.0514
 6047TIP3   OH239631   3.918   4.792  14.768  0.1532  0.6129  0.5760
 6047TIP3    H139632   3.996   4.806  14.823  1.0973  0.4270 -0.6992
 6047TIP3    H239633   3.953   4.760  14.685 -1.2524  1.1362 -0.2198
 6048TIP3   OH239634   3.117   5.753   5.003 -0.1724  0.0165  0.4617
 6048TIP3    H139635   3.123   5.711   5.089 -0.7856 -1.0988 -0.0399
 6048TIP3    H239636   3.095   5.844   5.023 -1.5722 -0.5206  1.4317
 6049TIP3   OH239637   3.791   5.665   2.304 -0.0840 -0.5561 -0.0137
 6049TIP3    H139638   3.782   5.570   2.307  1.8771 -0.8842 -2.4424
 6049TIP3    H239639   3.860   5.680   2.239 -0.7082  2.5472 -0.0340
 6050TIP3   OH239640   6.605   0.258  15.242  0.5942  0.4910 -0.1274
 6050TIP3    H139641   6.510   0.258  15.229  0.6804  1.0316 -0.7432
 6050TIP3    H239642   6.631   0.349  15.231  1.3801  0.1313 -1.3150
 6051TIP3   OH239643   6.385   3.937  10.662 -0.0590  0.3913 -0.0295
 6051TIP3    H139644   6.433   3.855  10.670  1.0752  1.1781  1.4497
 6051TIP3    H239645   6.409   3.971  10.576  1.1093  0.1916  0.2154
 6052TIP3   OH239646   4.918   0.489   1.790  0.6403 -0.2631  0.3954
 6052TIP3    H139647   4.902   0.521   1.878  1.1155 -3.7800  1.8378
 6052TIP3    H239648   4.838   0.440   1.768  0.4444  0.7489 -1.2220
 6053TIP3   OH239649   3.148   6.607   0.429  0.0860  0.7235  0.6575
 6053TIP3    H139650   3.085   6.540   0.453  0.4434  0.3233  0.4785
 6053TIP3    H239651   3.113   6.647   0.349  0.6537 -0.2964 -0.1099
 6054TIP3   OH239652   4.132   0.143   4.136 -0.2406 -0.0701 -0.4973
 6054TIP3    H139653   4.193   0.078   4.102  0.9534  1.5574 -1.5464
 6054TIP3    H239654   4.129   0.127   4.230  2.6249  0.4618 -0.2749
 6055TIP3   OH239655   3.567   4.081  15.638  0.5204  0.4910  0.0709
 6055TIP3    H139656   3.598   3.992  15.652  0.6794  0.3663 -1.0448
 6055TIP3    H239657   3.570   4.094  15.544 -0.0814  1.4737  0.1667
 6056TIP3   OH239658   0.539   2.697  13.859 -0.8723  0.6790  0.1726
 6056TIP3    H139659   0.590   2.647  13.923 -1.7612  1.6378  1.6555
 6056TIP3    H239660   0.576   2.672  13.775  2.1044  1.3840  1.1923
 6057TIP3   OH239661   5.431   3.233  15.740  0.0719 -0.3511  0.2700
 6057TIP3    H139662   5.408   3.267  15.654 -1.1316 -1.6336  0.0551
 6057TIP3    H239663   5.438   3.138  15.727  1.7063 -0.3758  1.1874
 6058TIP3   OH239664   5.523   6.129  12.270 -0.3985  0.1571 -0.3688
 6058TIP3    H139665   5.574   6.067  12.322 -1.6240 -0.4818  0.0771
 6058TIP3    H239666   5.586   6.197  12.246  0.5864 -0.4490  0.4618
 6059TIP3   OH239667   2.533   5.154   2.573 -0.4785 -0.1556 -0.4990
 6059TIP3    H139668   2.488   5.236   2.593 -1.7773 -1.1997  1.0161
 6059TIP3    H239669   2.527   5.146   2.478  1.2869  2.3902 -0.8792
 6060TIP3   OH239670   3.749   3.397  13.087 -0.2628 -0.2705  0.3725
 6060TIP3    H139671   3.724   3.335  13.018 -0.7967 -0.8147  1.0482
 6060TIP3    H239672   3.775   3.341  13.160  3.2321  0.2503 -0.3785
 6061TIP3   OH239673   3.902   5.105   1.934  0.4369  0.0920  0.2130
 6061TIP3    H139674   3.941   5.026   1.972  1.5097  1.1250  1.3297
 6061TIP3    H239675   3.938   5.110   1.846  0.3910 -0.6391  0.1499
 6062TIP3   OH239676   1.843   1.323   3.564  0.2094 -0.0850 -0.3442
 6062TIP3    H139677   1.768   1.351   3.617  1.0078  0.5517  0.4460
 6062TIP3    H239678   1.893   1.264   3.620  0.6183 -0.0604 -0.6757
 6063TIP3   OH239679   1.147   3.075   0.757  0.8500  0.0225  0.0639
 6063TIP3    H139680   1.225   3.049   0.708  2.0455 -0.7667  2.3119
 6063TIP3    H239681   1.102   2.992   0.776 -0.2113  0.4198 -0.6670
 6064TIP3   OH239682   6.489   2.781   5.446 -0.4930 -0.1420 -0.0905
 6064TIP3    H139683   6.528   2.828   5.520  1.1210 -1.5428 -0.0143
 6064TIP3    H239684   6.456   2.849   5.388 -0.0264  1.0149  0.9868
 6065TIP3   OH239685   4.978   4.594   5.726 -0.2137 -0.2474  0.5207
 6065TIP3    H139686   4.897   4.629   5.690 -0.9820 -1.3010  1.2021
 6065TIP3    H239687   4.961   4.501   5.740  1.7674 -0.9009 -1.1473
 6066TIP3   OH239688   3.802   5.333   3.701  0.3938 -0.2658  0.0685
 6066TIP3    H139689   3.711   5.348   3.728  0.8727 -0.0380  1.6116
 6066TIP3    H239690   3.828   5.253   3.746  0.7782 -0.6491 -0.8276
 6067TIP3   OH239691   2.778   6.755  15.051  0.5460  0.3636  0.2614
 6067TIP3    H139692   2.716   6.729  14.984  1.7393 -0.6000 -0.4804
 6067TIP3    H239693   2.841   6.684  15.055  0.9587  0.7853  1.8313
 6068TIP3   OH239694   2.680   3.067  12.153 -0.1557 -0.0333 -0.2345
 6068TIP3    H139695   2.659   3.084  12.061  2.7063  0.5617 -0.8334
 6068TIP3    H239696   2.737   2.990  12.150  1.5817  1.1756  0.8240
 6069TIP3   OH239697   0.315   4.543   2.303  0.0482  0.1093 -0.2471
 6069TIP3    H139698   0.391   4.556   2.360 -0.0463 -1.3618  0.2422
 6069TIP3    H239699   0.255   4.490   2.355  0.8056 -3.0045 -2.3785
 6070TIP3   OH239700   0.724   2.056  13.163 -0.0199  0.1065  0.3716
 6070TIP3    H139701   0.763   2.063  13.251  2.3136 -1.0366 -0.5342
 6070TIP3    H239702   0.695   1.965  13.157  0.1650  0.0805 -0.1580
 6071TIP3   OH239703   3.431   0.242  15.604 -0.3725  0.4613 -0.5601
 6071TIP3    H139704   3.446   0.322  15.654  1.3233 -0.6002  0.6843
 6071TIP3    H239705   3.474   0.258  15.520  0.0402  0.8474 -0.2803
 6072TIP3   OH239706   6.217   2.938  12.947  0.5533 -0.0396  0.1275
 6072TIP3    H139707   6.246   3.020  12.987  0.3178 -0.8944  2.1128
 6072TIP3    H239708   6.298   2.890  12.931  0.7528  0.9128 -1.8299
 6073TIP3   OH239709   5.967   2.907  12.826  0.1463 -0.0066  0.1085
 6073TIP3    H139710   6.042   2.946  12.871  1.6712 -0.0354 -2.2974
 6073TIP3    H239711   5.902   2.978  12.822 -0.1600 -0.1015  2.5602
 6074TIP3   OH239712   0.743   0.799  16.171 -0.2839 -0.1142  0.1894
 6074TIP3    H139713   0.737   0.763  16.083  1.5234 -0.1303  0.0622
 6074TIP3    H239714   0.659   0.844  16.184 -2.0407 -3.1336 -0.1572
 6075TIP3   OH239715   4.365   1.883   0.149 -0.0416  0.2397  0.3464
 6075TIP3    H139716   4.343   1.973   0.123 -0.6242 -0.2613 -0.9398
 6075TIP3    H239717   4.457   1.873   0.122 -0.0005  0.4217  0.4150
 6076TIP3   OH239718   3.897   2.719   2.245 -0.4107  0.3492  0.0372
 6076TIP3    H139719   3.913   2.809   2.273  1.1559  0.2388 -0.4873
 6076TIP3    H239720   3.884   2.724   2.151  0.0678 -0.0285 -0.0504
 6077TIP3   OH239721   4.775   5.985   5.325  0.1347 -0.5866  0.3385
 6077TIP3    H139722   4.806   5.895   5.312  1.6123 -0.5927  3.3911
 6077TIP3    H239723   4.708   5.977   5.393 -0.3428  0.4925 -0.0181
 6078TIP3   OH239724   0.899   1.848   2.394 -0.5660 -0.2588  0.2042
 6078TIP3    H139725   0.971   1.908   2.376  1.1397 -1.8372  1.5757
 6078TIP3    H239726   0.856   1.836   2.309 -1.9655  4.0946  0.1939
 6079TIP3   OH239727   0.841   1.040   4.276  0.7638  0.5513 -0.6312
 6079TIP3    H139728   0.932   1.042   4.247  0.5087 -1.1713 -1.6310
 6079TIP3    H239729   0.840   0.979   4.350  0.3591  0.2259 -0.9009
 6080TIP3   OH239730   2.649   2.623  11.628 -0.0357 -0.4054  0.0744
 6080TIP3    H139731   2.703   2.607  11.552 -1.5020 -1.7642 -0.7008
 6080TIP3    H239732   2.642   2.538  11.672  0.6057  0.3078  1.6081
 6081TIP3   OH239733   6.328   1.427  13.469 -0.0605  0.4351 -0.4010
 6081TIP3    H139734   6.265   1.399  13.403  1.0209 -0.4197 -1.0826
 6081TIP3    H239735   6.414   1.415  13.428  0.6121  0.2413  1.0115
 6082TIP3   OH239736   5.705   0.480  12.874  0.3023 -0.0022 -0.8836
 6082TIP3    H139737   5.800   0.474  12.881  0.1772  0.3605  1.8114
 6082TIP3    H239738   5.690   0.545  12.805  1.9867 -0.4689 -1.7213
 6083TIP3   OH239739   4.052   0.805   4.371 -0.0865 -0.0692  0.1011
 6083TIP3    H139740   4.025   0.715   4.356  0.3457 -0.4612  1.5447
 6083TIP3    H239741   4.102   0.829   4.293 -1.4590 -0.5644 -0.9391
 6084TIP3   OH239742   0.158   6.539   1.090 -0.4190 -0.5394 -0.2592
 6084TIP3    H139743   0.147   6.570   1.000 -0.1875  1.2400  0.3087
 6084TIP3    H239744   0.141   6.445   1.085 -0.4813 -0.4489 -2.1479
 6085TIP3   OH239745   1.574   1.255  15.012  0.3415 -0.0139 -0.2855
 6085TIP3    H139746   1.487   1.258  14.974 -0.1398 -2.4194  0.5163
 6085TIP3    H239747   1.560   1.238  15.105  1.5964  2.5907  0.4249
 6086TIP3   OH239748   4.989   4.374   2.707  0.4381  0.0556  0.1425
 6086TIP3    H139749   4.957   4.459   2.736 -0.1985 -0.8644  2.2264
 6086TIP3    H239750   4.988   4.320   2.786  0.2979 -2.0502 -1.2765
 6087TIP3   OH239751   4.061   1.557  11.462  0.5429 -0.3893  0.0622
 6087TIP3    H139752   4.010   1.638  11.464 -0.0372 -0.7475 -0.1097
 6087TIP3    H239753   4.011   1.498  11.405  1.6579 -0.4089 -0.9219
 6088TIP3   OH239754   5.403   1.810   5.618  0.3538 -0.2399 -0.2952
 6088TIP3    H139755   5.466   1.801   5.547 -0.0403  0.3715 -0.7333
 6088TIP3    H239756   5.330   1.754   5.593  0.1140  0.1557 -0.4964
 6089TIP3   OH239757   0.554   0.448   5.791 -0.2036 -0.2240  0.6013
 6089TIP3    H139758   0.616   0.449   5.864 -0.1506 -1.7492  0.5990
 6089TIP3    H239759   0.470   0.427   5.832  0.0336 -2.2897  0.1146
 6090TIP3   OH239760   4.678   0.088  11.290 -0.2135 -0.0541  0.2036
 6090TIP3    H139761   4.596   0.137  11.291 -0.0231  0.2632  0.3276
 6090TIP3    H239762   4.745   0.153  11.270 -0.2721 -0.7305 -2.3188
 6091TIP3   OH239763   1.074   2.260   0.795  0.3134 -0.3140 -0.4817
 6091TIP3    H139764   1.070   2.335   0.855  1.9772 -1.9240  1.7132
 6091TIP3    H239765   1.161   2.266   0.755 -1.1548  1.3386 -3.6248
 6092TIP3   OH239766   1.081   2.484  10.605  0.0853  0.0017  0.4115
 6092TIP3    H139767   1.069   2.579  10.608  1.0401  0.1646 -0.5105
 6092TIP3    H239768   1.128   2.463  10.686 -0.7083  0.2122  0.9383
 6093TIP3   OH239769   6.504   1.403  14.566  0.3285  0.1137 -0.1640
 6093TIP3    H139770   6.438   1.383  14.632 -1.1361 -0.3050 -1.7304
 6093TIP3    H239771   6.517   1.498  14.572  0.7063 -0.0196  1.1794
 6094TIP3   OH239772   4.591   5.768   6.776 -0.1845  0.2479 -0.0462
 6094TIP3    H139773   4.623   5.708   6.842 -2.6286 -1.9263 -0.7449
 6094TIP3    H239774   4.617   5.728   6.693  0.8567  1.7575 -0.4561
 6095TIP3   OH239775   0.462   6.033   2.462  0.2546 -0.0576 -0.1253
 6095TIP3    H139776   0.445   6.120   2.498  0.8461  0.5319 -1.2586
 6095TIP3    H239777   0.381   6.010   2.417 -0.0748 -0.3115  0.5809
 6096TIP3   OH239778   4.822   3.659  17.053 -0.4303  0.2391 -1.1874
 6096TIP3    H139779   4.749   3.613  17.012 -1.5368  1.5146 -0.7024
 6096TIP3    H239780   4.886   3.670  16.983 -1.8615  1.4823 -2.3204
 6097TIP3   OH239781   0.744   4.816  12.672 -0.3813 -0.2387  0.9452
 6097TIP3    H139782   0.666   4.814  12.616 -1.3711 -0.2098  2.3009
 6097TIP3    H239783   0.817   4.798  12.613 -1.3349  0.5162 -0.4859
 6098TIP3   OH239784   0.892   5.930   0.069  0.2467  0.3584  0.7334
 6098TIP3    H139785   0.906   5.947   0.163 -1.1610  2.5662  0.5893
 6098TIP3    H239786   0.914   6.013   0.027  0.9512 -0.6562 -0.9304
 6099TIP3   OH239787   5.795   3.965   5.212 -0.0971  0.4247  0.1072
 6099TIP3    H139788   5.703   3.954   5.237  0.6677 -0.7046  2.5314
 6099TIP3    H239789   5.798   3.942   5.120 -1.9445 -1.3371  0.4538
 6100TIP3   OH239790   2.975   5.436   5.372  0.3216 -0.2396 -0.4772
 6100TIP3    H139791   2.933   5.458   5.455 -0.5027 -0.6342 -0.7828
 6100TIP3    H239792   3.048   5.379   5.396 -0.7789 -1.5180 -0.1395
 6101TIP3   OH239793   1.171   6.200   5.869  0.0049 -0.4053 -0.7369
 6101TIP3    H139794   1.085   6.174   5.835 -0.2631  0.4988 -0.7872
 6101TIP3    H239795   1.150   6.260   5.941  0.5952  0.1183 -1.0023
 6102TIP3   OH239796   4.436   1.527  14.067  0.0435  0.1632  0.1739
 6102TIP3    H139797   4.378   1.561  13.998  1.3817  1.7048 -0.2351
 6102TIP3    H239798   4.388   1.542  14.148 -1.4579 -1.4620 -0.3907
 6103TIP3   OH239799   6.419   0.442   4.170  0.1267 -0.6971 -0.6343
 6103TIP3    H139800   6.378   0.481   4.093  0.6274 -1.1266 -1.1249
 6103TIP3    H239801   6.380   0.488   4.245  0.4736  0.4988 -1.1933
 6104TIP3   OH239802   1.073   6.529  15.213  0.8388  0.1361  0.0041
 6104TIP3    H139803   1.132   6.599  15.240  0.6870  0.1878  0.2049
 6104TIP3    H239804   1.131   6.458  15.185  0.9942  0.2621  0.0071
 6105TIP3   OH239805   4.952   2.830  11.594  0.1287 -0.1540 -0.0709
 6105TIP3    H139806   4.939   2.883  11.673  0.0715  2.0231 -1.4725
 6105TIP3    H239807   4.867   2.789  11.579 -0.5752  1.3482 -0.3154
 6106TIP3   OH239808   1.748   2.691   4.098 -0.6650 -0.1778  0.6148
 6106TIP3    H139809   1.666   2.645   4.078 -1.0886  0.7422  0.1457
 6106TIP3    H239810   1.729   2.782   4.074  0.3738  0.1058  0.8779
 6107TIP3   OH239811   4.150   4.671  11.791  0.2003  0.0958 -0.0192
 6107TIP3    H139812   4.081   4.715  11.741  0.2085 -1.7042 -1.6412
 6107TIP3    H239813   4.121   4.677  11.882 -1.5591  0.3346 -0.5833
 6108TIP3   OH239814   1.011   0.189   1.846  0.9935 -0.2731 -0.2650
 6108TIP3    H139815   1.053   0.193   1.933 -0.3871  0.0203  0.4006
 6108TIP3    H239816   1.076   0.225   1.786  2.2951 -1.2598  0.5201
 6109TIP3   OH239817   4.582   2.373  13.321  0.3592 -0.2254 -0.0021
 6109TIP3    H139818   4.541   2.405  13.401  0.4180  1.1338 -0.5127
 6109TIP3    H239819   4.564   2.279  13.321 -0.4655 -0.0765  1.1194
 6110TIP3   OH239820   1.416   4.518  12.901 -0.4036 -0.0264  0.2488
 6110TIP3    H139821   1.439   4.562  12.983  0.2456  0.6505 -0.2848
 6110TIP3    H239822   1.438   4.426  12.915 -0.1419  0.1180  0.7796
 6111TIP3   OH239823   5.588   2.855  11.978 -0.3472 -0.2004 -0.6222
 6111TIP3    H139824   5.654   2.924  11.981  0.9867 -1.4850  0.2196
 6111TIP3    H239825   5.569   2.844  11.885  0.3592  0.4025 -0.8395
 6112TIP3   OH239826   4.177   4.864   1.830  0.3296 -0.0036  0.4281
 6112TIP3    H139827   4.142   4.778   1.851  0.7655 -0.3383 -0.2140
 6112TIP3    H239828   4.186   4.908   1.914  0.8540 -0.8669  0.8223
 6113TIP3   OH239829   0.803   5.138  15.523 -0.0109  0.5003 -0.2867
 6113TIP3    H139830   0.738   5.158  15.590  0.1540  1.6398 -0.4502
 6113TIP3    H239831   0.774   5.055  15.486 -0.3115  0.0497  0.9299
 6114TIP3   OH239832   6.331   4.789  14.976  0.2625 -0.3396 -0.0401
 6114TIP3    H139833   6.304   4.880  14.989  1.5179  0.1693 -0.9841
 6114TIP3    H239834   6.278   4.740  15.039 -0.6326  1.0048  0.2788
 6115TIP3   OH239835   0.408   4.751   1.578 -0.1836  0.2196 -0.1864
 6115TIP3    H139836   0.494   4.722   1.548 -0.8682 -0.8919 -1.1250
 6115TIP3    H239837   0.418   4.845   1.593  1.6601 -0.1888  1.4042
 6116TIP3   OH239838   6.360   4.138   0.914  0.2628  0.5737 -0.0792
 6116TIP3    H139839   6.387   4.227   0.890  2.0907  0.1693  0.3971
 6116TIP3    H239840   6.344   4.142   1.008  1.4340  0.1392  0.1415
 6117TIP3   OH239841   5.809   6.626   1.079  0.2082  0.0200  0.4000
 6117TIP3    H139842   5.824   6.715   1.048 -2.0192  0.3259  0.0522
 6117TIP3    H239843   5.814   6.632   1.174  2.7954 -0.0634  0.3038
 6118TIP3   OH239844   6.593   4.421   5.859 -0.1661  0.2081  0.4592
 6118TIP3    H139845   6.584   4.513   5.887 -1.2789  0.5943 -1.1302
 6118TIP3    H239846   6.525   4.375   5.908  0.4038  0.2015  1.2730
 6119TIP3   OH239847   5.761   2.552   5.023  0.2616 -0.1844  0.5868
 6119TIP3    H139848   5.761   2.639   5.062 -0.7229  0.0637  0.0508
 6119TIP3    H239849   5.761   2.491   5.097  0.6706  0.2677  0.9579
 6120TIP3   OH239850   1.099   5.118  15.536 -0.2180 -0.0947  0.1079
 6120TIP3    H139851   1.079   5.029  15.566 -0.0101 -0.6420 -1.3187
 6120TIP3    H239852   1.017   5.167  15.548 -0.3801 -0.5218  0.7425
 6121TIP3   OH239853   2.475   4.203   5.921 -0.5913 -0.3227 -0.3346
 6121TIP3    H139854   2.496   4.159   6.003 -2.5479 -0.9146 -0.1385
 6121TIP3    H239855   2.513   4.291   5.931  0.8504 -1.0122  0.4089
 6122TIP3   OH239856   3.110   4.382  14.040 -0.5197  0.6412 -0.4314
 6122TIP3    H139857   3.108   4.426  13.955 -3.5509 -0.6923 -1.0817
 6122TIP3    H239858   3.152   4.298  14.023 -0.0598  0.8523 -0.3564
 6123TIP3   OH239859   0.800   5.849   1.162 -0.4480  0.3257 -0.2740
 6123TIP3    H139860   0.717   5.896   1.156 -1.2955 -0.9653  1.0702
 6123TIP3    H239861   0.830   5.863   1.252  1.1575  1.3678 -0.9472
 6124TIP3   OH239862   4.799   0.995   0.836  0.1715  0.1664  0.3049
 6124TIP3    H139863   4.793   1.087   0.811  1.7354  0.3500  0.5816
 6124TIP3    H239864   4.708   0.970   0.855 -0.4899  1.1787 -1.3922
 6125TIP3   OH239865   2.309   4.103   5.378  0.5226 -0.1591 -0.8227
 6125TIP3    H139866   2.283   4.179   5.430  1.6566 -0.2642 -0.0918
 6125TIP3    H239867   2.228   4.053   5.367  0.3147 -0.3112  1.1532
 6126TIP3   OH239868   6.315   5.474   4.543  0.1563  0.8505 -0.0836
 6126TIP3    H139869   6.353   5.505   4.625 -0.2429  1.4397 -0.1190
 6126TIP3    H239870   6.271   5.393   4.566  0.0221  1.0284  0.2906
 6127TIP3   OH239871   1.402   6.785   5.335  0.2174  0.4554 -0.2373
 6127TIP3    H139872   1.350   6.849   5.287  0.9219 -0.5639 -2.4287
 6127TIP3    H239873   1.469   6.836   5.380  0.7892  1.2520 -1.9954
 6128TIP3   OH239874   5.880   5.983  13.839  0.1380 -0.5852  0.0979
 6128TIP3    H139875   5.957   5.971  13.784  0.1252  0.4613 -0.1619
 6128TIP3    H239876   5.821   6.037  13.787 -1.1650 -2.1357 -0.0646
 6129TIP3   OH239877   2.846   3.469   4.083 -0.5558  0.1496 -0.0274
 6129TIP3    H139878   2.810   3.438   4.000 -0.3634  0.9371 -0.4162
 6129TIP3    H239879   2.914   3.532   4.057 -1.9646  2.0370  0.7480
 6130TIP3   OH239880   0.048   3.762  12.686  0.3493  0.0875 -0.1202
 6130TIP3    H139881  -0.025   3.726  12.737  0.5850  1.7357  1.4045
 6130TIP3    H239882   0.005   3.813  12.616  0.0318  0.1753  0.1369
 6131TIP3   OH239883   2.507   3.959  11.486 -0.5837 -0.6651 -0.3937
 6131TIP3    H139884   2.596   3.991  11.500 -0.6064 -0.4197 -0.8021
 6131TIP3    H239885   2.476   3.935  11.573 -0.7735  0.9757  0.0132
 6132TIP3   OH239886   2.391   6.595  12.653 -0.3626  0.2708  0.0451
 6132TIP3    H139887   2.296   6.588  12.665 -0.3284 -2.2571 -0.8947
 6132TIP3    H239888   2.414   6.522  12.596  2.4498 -0.2792  1.7836
 6133TIP3   OH239889   0.946   2.208  14.879 -0.3108 -0.0156 -0.2074
 6133TIP3    H139890   0.898   2.138  14.834 -0.0132 -0.4306  0.1194
 6133TIP3    H239891   0.883   2.246  14.940 -0.4710 -0.0006 -0.3819
 6134TIP3   OH239892   0.803   4.174   4.858 -0.0417  0.5470  0.2409
 6134TIP3    H139893   0.838   4.134   4.938  1.0189  1.5276  0.2651
 6134TIP3    H239894   0.789   4.100   4.799  2.1183  0.1439  0.2054
 6135TIP3   OH239895   1.568   3.235   0.106  0.2473  0.5853  0.4372
 6135TIP3    H139896   1.485   3.212   0.149 -0.0407 -2.3808 -1.5668
 6135TIP3    H239897   1.634   3.218   0.173 -0.6289  1.5688  1.5795
 6136TIP3   OH239898   4.472   0.168  16.261 -0.6333 -0.3719  0.0806
 6136TIP3    H139899   4.421   0.210  16.191  0.4805  0.8561 -0.0048
 6136TIP3    H239900   4.501   0.241  16.316  0.8045 -1.0881  0.2840
 6137TIP3   OH239901   5.007   2.194   2.235 -0.8133  0.2451  0.0860
 6137TIP3    H139902   4.992   2.287   2.217 -0.7326 -0.0152 -1.4199
 6137TIP3    H239903   4.998   2.152   2.150 -0.5124 -1.0926  0.7050
 6138TIP3   OH239904   2.292   2.558  13.368 -0.0097 -0.4371  0.0522
 6138TIP3    H139905   2.315   2.466  13.386  1.6989 -0.3163 -1.3693
 6138TIP3    H239906   2.198   2.556  13.352 -0.2807 -1.6834  1.5664
 6139TIP3   OH239907   6.264   6.518  14.380 -0.1092  0.0435  0.0752
 6139TIP3    H139908   6.360   6.527  14.376  0.0355 -1.9477 -1.2841
 6139TIP3    H239909   6.250   6.435  14.425 -1.2087  0.2325  0.0875
 6140TIP3   OH239910   0.491   2.463   4.857  0.4308  0.6245 -0.2652
 6140TIP3    H139911   0.517   2.424   4.774 -1.5984 -0.6234 -0.3673
 6140TIP3    H239912   0.407   2.505   4.838  0.3259  0.9870  0.9644
 6141TIP3   OH239913   1.155   2.226  14.365 -0.9534  0.1154 -0.2080
 6141TIP3    H139914   1.086   2.237  14.300 -1.2683  2.3690  0.4838
 6141TIP3    H239915   1.151   2.305  14.419  1.0791 -0.4732  0.8713
 6142TIP3   OH239916   1.280   0.130   4.286  0.0215 -0.2934  0.2502
 6142TIP3    H139917   1.296   0.046   4.329 -0.1478 -0.1234  0.6410
 6142TIP3    H239918   1.356   0.183   4.309 -0.6499  0.2059  1.3480
 6143TIP3   OH239919   0.047   6.150   0.280 -0.3816 -0.7577  0.4192
 6143TIP3    H139920   0.079   6.154   0.190 -1.8849 -0.3481 -0.1130
 6143TIP3    H239921   0.039   6.057   0.298 -1.0512 -0.8397 -0.2472
 6144TIP3   OH239922   3.861   0.819   3.070  0.7018 -0.5381 -0.2053
 6144TIP3    H139923   3.800   0.745   3.064  0.4765 -0.4142  0.4656
 6144TIP3    H239924   3.947   0.779   3.065  0.5704 -0.7025 -1.2904
 6145TIP3   OH239925   6.107   0.497   2.638  0.5967 -0.0891  0.3811
 6145TIP3    H139926   6.098   0.587   2.605 -0.1825 -0.7840 -1.3623
 6145TIP3    H239927   6.099   0.506   2.733  0.3724  1.6667  0.2250
 6146TIP3   OH239928   5.065   1.067  15.554 -0.7280  0.3487 -0.2544
 6146TIP3    H139929   5.061   1.109  15.640  1.4700  0.0643  0.0152
 6146TIP3    H239930   5.046   0.975  15.571  1.9979 -0.1707  0.3441
 6147TIP3   OH239931   0.474   4.461  14.952 -0.4197 -0.0480 -0.2851
 6147TIP3    H139932   0.421   4.540  14.967  1.3408  0.9433  0.8690
 6147TIP3    H239933   0.418   4.389  14.981 -1.8658  0.8108 -0.8929
 6148TIP3   OH239934   3.161   3.229  11.721 -1.2565  0.1318  0.3748
 6148TIP3    H139935   3.168   3.154  11.661  1.2160  0.4551  0.2245
 6148TIP3    H239936   3.188   3.304  11.668 -1.2437  0.7511  1.2614
 6149TIP3   OH239937   1.787   5.141   4.901 -0.4252  0.0973 -0.4940
 6149TIP3    H139938   1.751   5.189   4.976 -0.0834  0.7021 -0.7117
 6149TIP3    H239939   1.784   5.049   4.927 -1.1478  0.2324 -0.0946
 6150TIP3   OH239940   4.590   3.692  15.347  0.1652 -0.4371 -0.1727
 6150TIP3    H139941   4.602   3.659  15.436 -3.4136 -1.5680 -0.0442
 6150TIP3    H239942   4.541   3.773  15.358  2.3961  1.0548 -0.9687
 6151TIP3   OH239943   5.771   2.317   4.616  0.1391  0.5869  0.4056
 6151TIP3    H139944   5.776   2.225   4.589  1.8730  1.0804 -1.0850
 6151TIP3    H239945   5.819   2.321   4.698  0.6433  0.2825  0.1264
 6152TIP3   OH239946   6.820   4.855  15.374  0.1939  0.3116 -1.0379
 6152TIP3    H139947   6.868   4.774  15.393 -1.9841 -0.8584 -0.3418
 6152TIP3    H239948   6.807   4.896  15.459  0.5070  0.9264 -1.2893
 6153TIP3   OH239949   6.375   3.887   3.132  0.1180  0.0679 -0.3467
 6153TIP3    H139950   6.407   3.810   3.178  2.0007  0.8426 -0.3408
 6153TIP3    H239951   6.323   3.852   3.059 -0.5190 -1.1715  0.6841
 6154TIP3   OH239952   0.696   4.030  14.543  0.0142  0.2134 -0.0579
 6154TIP3    H139953   0.675   4.108  14.595  0.1320 -0.0811  0.4321
 6154TIP3    H239954   0.640   4.037  14.465 -0.1149  0.6856  0.0772
 6155TIP3   OH239955   1.512   1.368   0.835  0.2926 -0.0143 -0.3423
 6155TIP3    H139956   1.492   1.411   0.751  1.7089  1.0379 -0.1576
 6155TIP3    H239957   1.604   1.386   0.849  0.1735 -0.6125  1.2219
 6156TIP3   OH239958   4.210   1.966   5.175  0.0968 -0.5061 -0.4835
 6156TIP3    H139959   4.247   1.951   5.088  1.5900  1.0413 -0.1386
 6156TIP3    H239960   4.138   2.028   5.159  0.5272 -0.0288 -0.6023
 6157TIP3   OH239961   5.596   5.481  13.859 -0.0705 -0.0329 -0.3298
 6157TIP3    H139962   5.641   5.432  13.790  0.8809  1.4062 -0.7590
 6157TIP3    H239963   5.563   5.414  13.918  1.6639 -1.1823 -0.6189
 6158TIP3   OH239964   5.819   1.750   3.772  0.3203 -0.3408 -0.1563
 6158TIP3    H139965   5.774   1.706   3.845  2.1778  2.2211  2.6628
 6158TIP3    H239966   5.752   1.807   3.735  0.4808  1.6027  2.4160
 6159TIP3   OH239967   3.587   1.799  16.486  0.6992 -0.1711 -0.2006
 6159TIP3    H139968   3.613   1.801  16.578 -0.0945  0.9541  0.0118
 6159TIP3    H239969   3.656   1.847  16.440 -0.3314  1.7030  0.1926
 6160TIP3   OH239970   1.370   2.935  11.695 -0.7470  0.3575  0.1684
 6160TIP3    H139971   1.325   3.001  11.642 -0.6854  0.1540 -0.1387
 6160TIP3    H239972   1.456   2.925  11.654 -0.9512 -0.3005 -0.1114
 6161TIP3   OH239973   4.324   0.819   0.117 -0.3366 -0.1417 -0.5785
 6161TIP3    H139974   4.300   0.730   0.142  0.5740 -0.3423 -0.3989
 6161TIP3    H239975   4.414   0.812   0.086 -0.6557  0.5109 -1.7195
 6162TIP3   OH239976   4.669   3.635  14.068  0.5642 -0.0707 -0.2067
 6162TIP3    H139977   4.669   3.730  14.084  1.7879  0.3385 -2.4283
 6162TIP3    H239978   4.594   3.621  14.010  0.2407 -0.5108  0.3126
 6163TIP3   OH239979   4.351   2.197   3.925  0.0292 -0.3117 -0.8661
 6163TIP3    H139980   4.332   2.103   3.929  0.8657 -0.5192 -1.4644
 6163TIP3    H239981   4.299   2.229   3.851  0.2708 -0.4440 -1.0959
 6164TIP3   OH239982   6.732   0.229  13.447 -0.5391  0.0246 -0.1225
 6164TIP3    H139983   6.778   0.159  13.400  0.9594 -0.0150  1.3557
 6164TIP3    H239984   6.650   0.190  13.475  0.3561 -1.2242  0.8339
 6165TIP3   OH239985   6.001   3.088   2.174  0.5031 -0.4052 -0.0917
 6165TIP3    H139986   6.019   3.030   2.248  0.6372  2.1556  1.9943
 6165TIP3    H239987   5.913   3.122   2.192  0.0861 -0.5776 -1.7169
 6166TIP3   OH239988   1.405   1.226   0.360 -0.4069 -0.2348 -0.7666
 6166TIP3    H139989   1.452   1.227   0.276  1.3111  2.0774  0.1618
 6166TIP3    H239990   1.313   1.216   0.336  0.0764  0.2260 -2.9335
 6167TIP3   OH239991   1.958   1.352  16.291 -0.1184 -0.2727  0.1156
 6167TIP3    H139992   1.960   1.359  16.386 -0.6595  2.2109 -0.0395
 6167TIP3    H239993   2.048   1.368  16.264 -0.7639  3.3736 -0.0340
 6168TIP3   OH239994   3.385   0.861   1.236 -0.5298 -0.0028  0.2966
 6168TIP3    H139995   3.431   0.873   1.153  0.9544 -0.2727  1.0692
 6168TIP3    H239996   3.370   0.951   1.268  0.8832  0.0680  0.7997
 6169TIP3   OH239997   5.780   1.656  13.810  0.1645  0.1379  0.0684
 6169TIP3    H139998   5.782   1.562  13.831 -0.4099 -0.2884 -1.6895
 6169TIP3    H239999   5.861   1.672  13.762  0.3176  0.5715  0.4693
 6170TIP3   OH240000   4.261   5.143   3.239  0.1249 -0.2896 -0.1962
 6170TIP3    H140001   4.231   5.059   3.276  1.4522 -0.5086  0.4121
 6170TIP3    H240002   4.213   5.209   3.289 -0.2898 -0.6651 -0.0904
 6171TIP3   OH240003   3.470   0.011  16.035  0.0949 -0.0370  0.0831
 6171TIP3    H140004   3.404   0.079  16.026  1.0481  1.0242  1.0610
 6171TIP3    H240005   3.469  -0.012  16.128  0.7314 -0.3970  0.0072
 6172TIP3   OH240006   2.459   6.502   6.722 -0.0587 -0.0294 -0.6319
 6172TIP3    H140007   2.468   6.450   6.642  1.4728 -1.1468  0.2389
 6172TIP3    H240008   2.481   6.442   6.793  0.7126  1.5102  0.4708
 6173TIP3   OH240009   2.946   5.670  16.830  0.1874 -0.1138 -0.1546
 6173TIP3    H140010   2.858   5.706  16.841 -0.3285 -1.5832  0.7909
 6173TIP3    H240011   3.005   5.742  16.852 -0.7955  0.6848 -0.1058
 6174TIP3   OH240012   5.638   3.325  12.916 -0.0550  0.4127  0.2522
 6174TIP3    H140013   5.680   3.385  12.978 -0.7871  1.3946 -0.1883
 6174TIP3    H240014   5.629   3.377  12.835 -0.8766 -0.2247 -0.0760
 6175TIP3   OH240015   3.763   0.395  11.214  0.0760  0.2461 -0.0851
 6175TIP3    H140016   3.698   0.390  11.144  1.6411  3.2236 -1.8464
 6175TIP3    H240017   3.839   0.348  11.180  0.5276  0.9433 -0.0657
 6176TIP3   OH240018   0.474   4.077  11.281 -0.0562 -0.0954 -0.1401
 6176TIP3    H140019   0.381   4.097  11.272  0.3101  2.4307  1.2075
 6176TIP3    H240020   0.478   4.008  11.347 -0.9233  0.1540  0.1709
 6177TIP3   OH240021   3.940   2.896  15.515  0.4339  0.3203 -0.6591
 6177TIP3    H140022   3.855   2.925  15.482 -0.1592 -0.0059  0.5631
 6177TIP3    H240023   3.946   2.804  15.490  0.2751  0.2512 -0.4418
 6178TIP3   OH240024   0.876   3.507  11.573 -0.2099 -0.5951  0.0544
 6178TIP3    H140025   0.821   3.440  11.534 -1.2155 -0.1209  0.6489
 6178TIP3    H240026   0.878   3.578  11.509 -2.7588  0.6493  1.2722
 6179TIP3   OH240027   2.431   4.599   2.572  0.0574 -0.0908  0.0048
 6179TIP3    H140028   2.452   4.676   2.625 -0.7292  1.1254 -1.3833
 6179TIP3    H240029   2.495   4.533   2.598  0.0196  0.6376  2.0684
 6180TIP3   OH240030   3.810   2.165  13.730  0.4045 -0.0045  0.6346
 6180TIP3    H140031   3.832   2.235  13.792 -0.3240  0.4034  0.4372
 6180TIP3    H240032   3.895   2.126  13.707  0.7863  0.6013  0.9970
 6181TIP3   OH240033   3.361   4.462  14.104 -0.4080 -0.2740  0.5445
 6181TIP3    H140034   3.392   4.379  14.068 -0.5315 -0.5532  1.0766
 6181TIP3    H240035   3.266   4.460  14.093 -0.2250  0.7287 -1.3951
 6182TIP3   OH240036   5.581   4.198   3.520  0.3731  0.4766  0.0370
 6182TIP3    H140037   5.572   4.201   3.424  1.4582  2.1760 -0.0278
 6182TIP3    H240038   5.660   4.147   3.534 -1.0191 -1.7239  0.1290
 6183TIP3   OH240039   0.651   0.871  16.708  0.2859 -0.0352 -0.3534
 6183TIP3    H140040   0.652   0.966  16.709 -0.0214 -0.0188 -1.0924
 6183TIP3    H240041   0.742   0.845  16.721  0.2454  0.3473  0.7249
 6184TIP3   OH240042   1.213   6.461  11.791  0.0198  0.3545 -0.5658
 6184TIP3    H140043   1.216   6.438  11.698  0.9543  2.6266 -1.1513
 6184TIP3    H240044   1.301   6.439  11.823  0.1876  0.9492 -0.6033
 6185TIP3   OH240045   6.346   5.056   6.530  0.2810 -0.1232  0.1288
 6185TIP3    H140046   6.395   4.974   6.533 -0.2214 -0.5014 -1.5561
 6185TIP3    H240047   6.410   5.122   6.504  0.4546 -0.1675  0.4459
 6186TIP3   OH240048   5.255   6.531   3.794 -0.7307  0.3014 -0.2696
 6186TIP3    H140049   5.159   6.533   3.796 -0.7225 -0.0544  1.5903
 6186TIP3    H240050   5.279   6.461   3.855  0.7131  0.6080 -0.4585
 6187TIP3   OH240051   6.176   2.034   1.526 -0.5637  0.6232 -0.5481
 6187TIP3    H140052   6.206   1.999   1.442 -1.4401 -0.8735 -0.2628
 6187TIP3    H240053   6.080   2.032   1.521 -0.6254  1.7333  0.0013
 6188TIP3   OH240054   0.351   2.350  11.936 -0.5224  0.1262  0.7307
 6188TIP3    H140055   0.398   2.341  11.853 -1.4380 -1.5134  0.3835
 6188TIP3    H240056   0.293   2.425  11.922 -0.2690  0.2080  0.0963
 6189TIP3   OH240057   2.297   0.890   4.065  0.3731  0.2187  0.0964
 6189TIP3    H140058   2.280   0.976   4.104 -1.0503 -0.5530  1.2658
 6189TIP3    H240059   2.366   0.853   4.119  0.8378  0.5469 -0.2741
 6190TIP3   OH240060   1.293   2.299   3.129 -0.5493 -0.3395 -0.1008
 6190TIP3    H140061   1.379   2.258   3.141  0.4678  1.4128 -1.1395
 6190TIP3    H240062   1.252   2.248   3.059 -0.6358 -1.5906  0.8469
 6191TIP3   OH240063   6.308   3.275   3.885  0.6379 -0.1096  0.4030
 6191TIP3    H140064   6.227   3.259   3.932  0.2207 -1.5458 -0.7840
 6191TIP3    H240065   6.320   3.370   3.890 -1.5511  0.2201 -0.0964
 6192TIP3   OH240066   1.388   3.500   1.567 -0.5721  0.2085  0.5124
 6192TIP3    H140067   1.462   3.495   1.628 -0.5944  0.6275  0.5717
 6192TIP3    H240068   1.419   3.454   1.489 -1.2421 -2.0759  1.5468
 6193TIP3   OH240069   6.422   0.110  16.375 -0.7234 -0.2653 -0.6791
 6193TIP3    H140070   6.401   0.191  16.329 -0.8056  0.4566  0.6015
 6193TIP3    H240071   6.345   0.054  16.361 -2.6277  1.5394  2.0972
 6194TIP3   OH240072   5.314   5.510  12.710  0.1395 -0.5206 -0.3024
 6194TIP3    H140073   5.313   5.444  12.779 -1.0464  0.7120  0.9018
 6194TIP3    H240074   5.336   5.592  12.756  1.0581  0.0177 -1.6706
 6195TIP3   OH240075   3.884   4.143  12.988  0.4179  0.3981 -0.3468
 6195TIP3    H140076   3.887   4.222  12.934  1.6189 -0.2341 -1.2420
 6195TIP3    H240077   3.844   4.171  13.070  1.8722  2.2048 -0.2173
 6196TIP3   OH240078   1.283   3.227   3.290 -0.4380  0.3475 -0.3062
 6196TIP3    H140079   1.313   3.311   3.325  0.2423 -0.0314  0.0279
 6196TIP3    H240080   1.345   3.207   3.220  1.0229 -1.1488  1.3389
 6197TIP3   OH240081   0.162   2.820   4.406  0.0623 -0.3211 -0.1432
 6197TIP3    H140082   0.235   2.769   4.440 -0.7700  0.4664  3.0203
 6197TIP3    H240083   0.086   2.791   4.457 -1.0245  1.7813 -0.4864
 6198TIP3   OH240084   3.428   1.977   3.434  0.3134  0.0474 -0.3600
 6198TIP3    H140085   3.474   1.894   3.419  1.3194  1.0183 -2.9761
 6198TIP3    H240086   3.351   1.972   3.377 -0.9005 -0.0384  1.2487
 6199TIP3   OH240087   3.023   4.249   5.648 -0.2053  0.0890  0.9260
 6199TIP3    H140088   3.037   4.202   5.565  0.0541 -1.4033  1.7973
 6199TIP3    H240089   2.940   4.216   5.681 -0.0042  0.2196  1.5681
 6200TIP3   OH240090   1.295   2.275   5.192  0.3517 -0.1164 -0.3024
 6200TIP3    H140091   1.338   2.256   5.276 -0.3079 -0.3408 -0.0149
 6200TIP3    H240092   1.356   2.240   5.127  0.8911  0.0966  0.0778
 6201TIP3   OH240093   3.511   3.977   4.670 -0.2240 -0.2311  0.3981
 6201TIP3    H140094   3.493   3.935   4.754  1.5530  1.2105  1.5345
 6201TIP3    H240095   3.553   4.060   4.693 -1.9743  1.3356 -1.8567
 6202TIP3   OH240096   3.133   2.143   0.378 -0.0210 -0.0525 -0.0681
 6202TIP3    H140097   3.214   2.137   0.327  0.2147 -0.4542  0.3459
 6202TIP3    H240098   3.161   2.178   0.463 -0.3333  0.1362 -0.0426
 6203TIP3   OH240099   1.789   3.110  15.203  0.4890  0.2797  0.1992
 6203TIP3    H140100   1.818   3.193  15.165  0.7423  0.2804  0.3888
 6203TIP3    H240101   1.820   3.044  15.142  2.9582  0.1154  1.5692
 6204TIP3   OH240102   4.370   2.906   5.137  0.1303  0.0971  0.3835
 6204TIP3    H140103   4.339   2.959   5.211 -0.1804  0.4664 -0.0059
 6204TIP3    H240104   4.384   2.819   5.174  1.0573  0.5555  1.1202
 6205TIP3   OH240105   3.021   1.900   3.376 -0.1453 -0.4015  0.6165
 6205TIP3    H140106   2.987   1.853   3.451 -0.1955 -0.5946  0.4738
 6205TIP3    H240107   3.083   1.963   3.413 -1.6668  0.9075  1.0110
 6206TIP3   OH240108   4.408   4.158   3.203  0.0173 -0.1208  0.3860
 6206TIP3    H140109   4.328   4.199   3.236 -0.1642  0.5407 -0.8545
 6206TIP3    H240110   4.478   4.203   3.249 -0.2455  0.5991  0.0888
 6207TIP3   OH240111   5.056   1.520   3.891 -0.1729  0.3922  0.5431
 6207TIP3    H140112   5.119   1.483   3.829 -1.8711  0.6038 -1.3616
 6207TIP3    H240113   4.981   1.461   3.886 -0.1578  0.1392  2.7978
 6208TIP3   OH240114   6.632   2.661   4.174 -0.4177 -0.6780  0.0966
 6208TIP3    H140115   6.591   2.739   4.212  0.0936  0.4644 -1.6683
 6208TIP3    H240116   6.567   2.629   4.112  0.2179 -0.4681 -0.6786
 6209TIP3   OH240117   5.333   0.357  11.703 -0.3718  0.4890 -0.2600
 6209TIP3    H140118   5.386   0.311  11.638 -0.7296  0.8931 -0.8484
 6209TIP3    H240119   5.348   0.309  11.784  1.8979  1.3637 -0.1317
 6210TIP3   OH240120   1.304   2.187  16.945  0.5690 -0.5047 -0.0225
 6210TIP3    H140121   1.320   2.107  16.995  2.7014 -0.8891 -1.2794
 6210TIP3    H240122   1.391   2.223  16.929 -0.3033  1.4783 -0.4636
 6211TIP3   OH240123   2.143   3.126   3.182 -0.1381  0.0408  0.4437
 6211TIP3    H140124   2.135   3.089   3.094 -0.3189  1.1823 -0.0210
 6211TIP3    H240125   2.167   3.051   3.237 -1.5747 -0.9923 -0.3025
 6212TIP3   OH240126   4.071   4.050  16.450  0.5774  0.0466 -0.1841
 6212TIP3    H140127   4.060   3.971  16.396 -1.0479 -0.0894  0.3184
 6212TIP3    H240128   4.163   4.049  16.476  0.6432 -1.5181 -0.4421
 6213TIP3   OH240129   6.033   0.433  15.887 -0.0149 -0.1958 -0.1984
 6213TIP3    H140130   6.003   0.454  15.976 -1.0125 -0.3224 -0.5030
 6213TIP3    H240131   6.079   0.349  15.898  1.8242  0.8840  0.5789
 6214TIP3   OH240132   0.632   6.582   5.319  0.1955  0.7051  0.0080
 6214TIP3    H140133   0.723   6.566   5.294  0.2637  1.7038 -0.4026
 6214TIP3    H240134   0.638   6.624   5.405  0.0523 -0.6011  0.6714
 6215TIP3   OH240135   5.104   5.711   6.544 -0.0353  0.0165  0.8128
 6215TIP3    H140136   5.118   5.798   6.582  1.8843 -0.4428  1.2427
 6215TIP3    H240137   5.047   5.725   6.469 -0.0930  1.5892  1.1523
 6216TIP3   OH240138   2.984   5.304   3.121 -0.4640 -0.4510 -0.0631
 6216TIP3    H140139   2.899   5.265   3.100 -0.4387 -0.1690 -0.6773
 6216TIP3    H240140   3.043   5.229   3.129 -1.2002 -0.8140  2.4174
 6217TIP3   OH240141   0.251   2.553   3.156  0.5403  0.2215  0.0605
 6217TIP3    H140142   0.274   2.606   3.080 -0.5865  0.8683  0.1569
 6217TIP3    H240143   0.190   2.488   3.122 -1.2003  1.4827  0.6718
 6218TIP3   OH240144   6.787   2.750  17.266 -0.2738 -0.4809 -0.0599
 6218TIP3    H140145   6.820   2.689  17.333  0.9820 -0.4757 -0.6464
 6218TIP3    H240146   6.778   2.833  17.312  1.4044 -0.2687 -0.0735
 6219TIP3   OH240147   0.514   1.647   1.095 -1.1406  0.2019 -0.2358
 6219TIP3    H140148   0.447   1.581   1.078 -0.1873 -1.1411  0.9946
 6219TIP3    H240149   0.580   1.632   1.027  0.7674 -2.5319  2.0734
 6220TIP3   OH240150   1.871   4.168  11.264  0.0004 -0.4240  0.1717
 6220TIP3    H140151   1.935   4.156  11.334 -2.0253  1.1053  2.3328
 6220TIP3    H240152   1.876   4.260  11.241 -0.6589 -0.5193 -0.3979
 6221TIP3   OH240153   6.102   0.712   6.068  0.2960  0.4278 -0.2025
 6221TIP3    H140154   6.148   0.679   5.991  0.9107  1.0539 -0.1066
 6221TIP3    H240155   6.153   0.679   6.143  0.9699  1.6631 -0.1104
 6222TIP3   OH240156   3.467   2.274  13.131 -0.0546 -0.1128  0.5019
 6222TIP3    H140157   3.488   2.310  13.217  2.4371 -1.3726  0.4636
 6222TIP3    H240158   3.483   2.180  13.140  0.5804 -0.2121 -1.4290
 6223TIP3   OH240159   2.687   0.730   6.504 -0.0496 -0.5231 -0.0492
 6223TIP3    H140160   2.750   0.793   6.540 -1.3646 -0.0516  1.4761
 6223TIP3    H240161   2.633   0.781   6.444 -0.0012 -0.5728 -0.1348
 6224TIP3   OH240162   3.457   0.421   4.322  0.1958 -0.1125  0.0996
 6224TIP3    H140163   3.447   0.489   4.256 -1.4486 -0.8074 -0.3957
 6224TIP3    H240164   3.424   0.461   4.403 -0.2138 -0.1186 -0.0632
 6225TIP3   OH240165   4.741   4.250   0.587 -0.1834 -0.3851  0.0953
 6225TIP3    H140166   4.730   4.218   0.676  0.0671  1.3589  0.7730
 6225TIP3    H240167   4.830   4.286   0.585 -0.4983  0.3912 -0.5839
 6226TIP3   OH240168   1.046   3.550  12.112  0.1311  0.5841  0.2167
 6226TIP3    H140169   1.040   3.467  12.065  0.7009  1.7865 -2.0552
 6226TIP3    H240170   1.128   3.545  12.160  1.0879  0.5645 -1.3981
 6227TIP3   OH240171   5.568   0.197   4.544 -0.3434 -0.2599 -0.4301
 6227TIP3    H140172   5.547   0.223   4.454 -0.7744  1.6052  0.1950
 6227TIP3    H240173   5.484   0.201   4.591  0.1764  0.4513  0.4551
 6228TIP3   OH240174   2.426   1.100   5.484 -0.1750 -0.1595  0.1139
 6228TIP3    H140175   2.510   1.067   5.453 -1.4413 -1.3292 -2.1999
 6228TIP3    H240176   2.423   1.074   5.577  2.5807  1.1390  0.5985
 6229TIP3   OH240177   1.027   2.906  12.906 -0.5749 -0.1210 -0.1010
 6229TIP3    H140178   1.062   2.939  12.823 -2.5437  1.5801 -0.3060
 6229TIP3    H240179   1.039   2.811  12.902 -0.2049  0.0016 -2.1258
 6230TIP3   OH240180   1.156   5.651   4.035  0.3344  0.5627 -0.1478
 6230TIP3    H140181   1.112   5.604   4.106 -1.5944  1.0941 -0.9528
 6230TIP3    H240182   1.084   5.680   3.978  1.5894  3.2882 -0.3976
 6231TIP3   OH240183   5.243   2.258   0.393  0.4837 -0.2439  0.5630
 6231TIP3    H140184   5.313   2.306   0.348  0.7770 -2.0946 -1.0099
 6231TIP3    H240185   5.280   2.170   0.407 -0.1463 -0.1271  3.1361
 6232TIP3   OH240186   1.528   3.517  15.994 -0.2729 -0.4753  0.0981
 6232TIP3    H140187   1.558   3.426  15.990  0.9144 -0.0693 -0.7088
 6232TIP3    H240188   1.534   3.548  15.903  0.2115  0.6788  0.5081
 6233TIP3   OH240189   2.698   6.239   0.479 -0.1188 -0.0299 -0.0605
 6233TIP3    H140190   2.650   6.237   0.397 -1.2803 -0.5858  0.6249
 6233TIP3    H240191   2.747   6.321   0.476 -0.4432  0.1283 -1.1395
 6234TIP3   OH240192   2.959   5.722  15.532 -0.2319  0.2486 -0.7792
 6234TIP3    H140193   2.938   5.784  15.462  1.6688  0.8695 -0.8408
 6234TIP3    H240194   2.984   5.642  15.487  0.0923  0.3542 -0.7891
 6235TIP3   OH240195   5.775   4.472  15.290 -0.1467 -0.1464  0.8129
 6235TIP3    H140196   5.857   4.496  15.333  0.3339 -4.3886  2.5657
 6235TIP3    H240197   5.707   4.496  15.354  0.0192  0.2155  0.8511
 6236TIP3   OH240198   4.749   4.401  12.776  0.1569 -0.1381  0.2332
 6236TIP3    H140199   4.797   4.329  12.817  1.0444  0.3498  0.0694
 6236TIP3    H240200   4.713   4.451  12.849 -1.1672 -1.2117  0.3327
 6237TIP3   OH240201   3.923   1.678  14.826 -0.0000 -0.1428 -0.1502
 6237TIP3    H140202   3.874   1.596  14.830  0.0768 -0.3484 -2.4858
 6237TIP3    H240203   4.001   1.662  14.880 -1.7687 -0.2730  2.4653
 6238TIP3   OH240204   0.309   2.181  16.094  0.4030  0.5378 -0.1310
 6238TIP3    H140205   0.360   2.246  16.046 -1.0432  0.2754 -2.0926
 6238TIP3    H240206   0.256   2.138  16.027  0.1450 -1.5512  1.3773
 6239TIP3   OH240207   4.642   1.017   5.530 -0.0791  0.0383 -0.6514
 6239TIP3    H140208   4.675   1.095   5.574 -0.7935  0.4080 -0.7613
 6239TIP3    H240209   4.550   1.011   5.557 -0.0747 -0.6577 -0.7867
 6240TIP3   OH240210   1.374   2.654   3.109  0.2698  0.4244 -0.7089
 6240TIP3    H140211   1.454   2.681   3.064  0.3313  0.4758 -0.5680
 6240TIP3    H240212   1.382   2.559   3.116  0.6631  0.5012 -0.0411
 6241TIP3   OH240213   0.399   4.104  12.215 -0.4087  0.4632 -0.3684
 6241TIP3    H140214   0.358   4.167  12.273  0.5860 -0.6624  1.6144
 6241TIP3    H240215   0.471   4.066  12.267 -0.5369 -1.7614 -1.7289
 6242TIP3   OH240216   2.854   6.371   0.698  0.7220  0.3656  0.1681
 6242TIP3    H140217   2.860   6.467   0.697  0.6649  0.3671 -1.3706
 6242TIP3    H240218   2.762   6.354   0.717  1.2502  0.5658  3.1202
 6243TIP3   OH240219   5.816   3.106  11.361 -0.4696 -0.0897 -0.3642
 6243TIP3    H140220   5.842   3.181  11.415  1.6664  0.2035 -1.7216
 6243TIP3    H240221   5.796   3.037  11.424 -2.8367  1.7031  0.9252
 6244TIP3   OH240222   6.797   2.192   5.168  0.4472  0.0834 -0.3601
 6244TIP3    H140223   6.706   2.166   5.155  0.0764  1.3158 -0.3200
 6244TIP3    H240224   6.791   2.271   5.223  1.7133 -1.8999  2.7367
 6245TIP3   OH240225   5.362   3.256  12.946 -0.1308  0.0986 -0.0839
 6245TIP3    H140226   5.451   3.273  12.916  0.3389 -0.3348  1.0272
 6245TIP3    H240227   5.340   3.331  13.000  0.4746 -0.9213  1.6091
 6246TIP3   OH240228   3.562   6.310   3.949 -0.2539  0.6440 -0.0191
 6246TIP3    H140229   3.638   6.272   3.992 -0.3301 -1.4719 -1.6772
 6246TIP3    H240230   3.489   6.255   3.976 -0.8462  1.3036 -0.2411
 6247TIP3   OH240231   2.267   1.779   4.162  0.4111  0.1360 -0.4196
 6247TIP3    H140232   2.319   1.700   4.171 -1.2837 -0.7763  1.8249
 6247TIP3    H240233   2.331   1.850   4.163  1.8098 -1.1012 -0.5724
 6248TIP3   OH240234   0.468   4.783   4.357  0.3586 -0.1223 -0.0932
 6248TIP3    H140235   0.435   4.699   4.387 -0.7130  0.2865 -0.1264
 6248TIP3    H240236   0.481   4.834   4.438 -1.5017  0.5982 -0.2228
 6249TIP3   OH240237   4.870   0.583  11.454 -0.0770 -0.3031  0.2899
 6249TIP3    H140238   4.796   0.526  11.432 -0.0696 -0.6594  1.1656
 6249TIP3    H240239   4.945   0.525  11.459  0.1530 -0.0310 -0.0190
 6250TIP3   OH240240   6.010   0.758   3.566 -0.3598 -0.5422  0.1846
 6250TIP3    H140241   5.987   0.801   3.648 -1.9543 -1.5378  0.2844
 6250TIP3    H240242   6.075   0.693   3.590 -0.0638 -0.1296  0.4972
 6251TIP3   OH240243   3.772   4.108  14.268  0.2641 -0.4889  0.1150
 6251TIP3    H140244   3.706   4.051  14.306  0.8393 -0.5878  0.9804
 6251TIP3    H240245   3.846   4.104  14.329  0.9487 -0.1356 -0.6764
 6252TIP3   OH240246   2.149   1.065   5.917 -0.3172  0.5617 -0.3526
 6252TIP3    H140247   2.081   1.123   5.951  1.0894  2.9841 -1.4863
 6252TIP3    H240248   2.192   1.030   5.995 -1.8540  0.2322  0.3516
 6253TIP3   OH240249   6.262   1.777  15.075 -0.0548  0.0724  0.0044
 6253TIP3    H140250   6.222   1.698  15.038  1.3617 -0.6396 -0.0744
 6253TIP3    H240251   6.233   1.848  15.018 -2.2145 -0.2204  0.7152
 6254TIP3   OH240252   3.284   0.365   1.139  0.2301 -0.0655 -0.1454
 6254TIP3    H140253   3.227   0.422   1.086 -0.6871 -0.8429 -0.0013
 6254TIP3    H240254   3.237   0.354   1.221  1.5025  0.8637  0.7271
 6255TIP3   OH240255   2.304   0.657   1.587  1.1268 -0.1093 -0.0285
 6255TIP3    H140256   2.248   0.642   1.511  1.7857  1.0590 -0.7560
 6255TIP3    H240257   2.347   0.573   1.602 -1.6519 -1.3772  1.2481
 6256TIP3   OH240258   1.741   6.384  12.808  0.0915 -0.2970  0.0054
 6256TIP3    H140259   1.773   6.338  12.730 -0.4732  1.3138 -1.1981
 6256TIP3    H240260   1.816   6.388  12.867  1.5188  1.5577 -1.8909
 6257TIP3   OH240261   1.083   6.708  16.831  0.0561 -0.2379  0.0485
 6257TIP3    H140262   1.105   6.774  16.766 -1.2418 -0.2993 -0.4518
 6257TIP3    H240263   1.069   6.757  16.912  1.3579 -0.1342  0.2360
 6258TIP3   OH240264   4.327   4.193  14.169 -0.1435  1.2465  0.7957
 6258TIP3    H140265   4.234   4.199  14.192 -0.0778  2.4963  0.7697
 6258TIP3    H240266   4.358   4.116  14.215 -1.9227 -1.0792 -1.7208
 6259TIP3   OH240267   1.701   3.692   1.207  0.6193 -0.2557  0.2845
 6259TIP3    H140268   1.793   3.712   1.194 -0.0491  1.5906 -1.8839
 6259TIP3    H240269   1.676   3.639   1.132 -0.4189  0.4593  0.1099
 6260TIP3   OH240270   1.086   4.625  11.941 -0.0927  0.2954 -0.2314
 6260TIP3    H140271   1.127   4.553  11.989 -0.6683 -0.2705 -0.5762
 6260TIP3    H240272   1.021   4.660  12.002  1.8291  2.1040  0.8435
 6261TIP3   OH240273   1.009   5.269   1.098  0.3499 -0.0868  0.1669
 6261TIP3    H140274   1.032   5.332   1.166  1.0811  1.0391 -1.1064
 6261TIP3    H240275   1.061   5.192   1.119 -0.9621 -0.5138  2.0620
 6262TIP3   OH240276   4.200   3.061   0.553 -0.6164 -0.5067  0.4395
 6262TIP3    H140277   4.223   2.976   0.515 -0.7725 -0.2711 -0.1972
 6262TIP3    H240278   4.278   3.087   0.602 -0.2791 -0.6566 -0.0088
 6263TIP3   OH240279   4.131   0.961  12.439  0.7361 -0.1474  0.5077
 6263TIP3    H140280   4.113   1.012  12.518  1.8269  0.4599  0.3718
 6263TIP3    H240281   4.178   0.884  12.471 -0.1869 -0.6749  0.6182
 6264TIP3   OH240282   4.327   0.041  13.603  0.2395 -0.0211 -1.1776
 6264TIP3    H140283   4.374  -0.040  13.622  0.4128  0.5068  0.7954
 6264TIP3    H240284   4.347   0.060  13.512  0.1028 -2.2431 -1.7035
 6265TIP3   OH240285   0.544   3.878   2.834 -0.6915 -0.5707 -0.2130
 6265TIP3    H140286   0.508   3.873   2.745  0.0508 -0.3631 -0.5271
 6265TIP3    H240287   0.631   3.840   2.827 -0.2346  0.3786  0.2172
 6266TIP3   OH240288   0.264   6.009   6.323 -0.3532  0.3848  0.3463
 6266TIP3    H140289   0.211   5.929   6.318  1.0413 -0.4229 -1.7640
 6266TIP3    H240290   0.203   6.079   6.300 -1.5328 -0.0573  2.0126
 6267TIP3   OH240291   0.532   6.268  10.112 -0.2725  0.0545 -0.1499
 6267TIP3    H140292   0.619   6.303  10.095 -0.0197  0.5803  2.1263
 6267TIP3    H240293   0.478   6.346  10.127 -0.9126 -0.3106 -0.5430
 6268TIP3   OH240294   1.428   4.514   4.864  0.0580 -0.2713  0.6230
 6268TIP3    H140295   1.458   4.599   4.895 -0.5483 -0.0344  0.5671
 6268TIP3    H240296   1.483   4.451   4.910 -0.9837  0.0642  2.3678
 6269TIP3   OH240297   5.576   1.630  12.856  0.3746  0.4237  0.0869
 6269TIP3    H140298   5.642   1.584  12.803  1.3182  1.4715  0.3433
 6269TIP3    H240299   5.560   1.711  12.809 -0.0407  0.5951  0.5271
 6270TIP3   OH240300   4.774   2.690  10.871  0.1094 -1.0526 -0.3070
 6270TIP3    H140301   4.828   2.620  10.836  1.2919 -0.4849  0.3525
 6270TIP3    H240302   4.690   2.648  10.892 -0.0032 -1.7622 -2.0935
 6271TIP3   OH240303   4.402   1.238   2.762 -0.2139 -0.1028 -0.3163
 6271TIP3    H140304   4.482   1.195   2.792  0.0023 -0.5797 -1.5801
 6271TIP3    H240305   4.339   1.221   2.833  0.7572  0.1925  0.6355
 6272TIP3   OH240306   1.996   4.895   0.304 -0.4576 -0.1144 -0.3831
 6272TIP3    H140307   2.013   4.810   0.345  3.3698  0.7316 -0.0499
 6272TIP3    H240308   2.013   4.881   0.211 -0.0484  0.2395 -0.3604
 6273TIP3   OH240309   3.814   4.471  12.559  0.3441 -0.1129  0.1450
 6273TIP3    H140310   3.721   4.466  12.537  0.3010  0.5795  0.1642
 6273TIP3    H240311   3.820   4.543  12.622  0.6911 -1.0554  1.2048
 6274TIP3   OH240312   5.161   0.007   1.992 -0.4764 -0.0415  0.1294
 6274TIP3    H140313   5.225  -0.045   1.944 -1.1012  1.1385 -2.0369
 6274TIP3    H240314   5.189   0.001   2.083  1.6980 -0.9758 -0.5656
 6275TIP3   OH240315   6.711   4.377  14.813 -0.1088  0.2331 -0.2273
 6275TIP3    H140316   6.744   4.338  14.894 -2.1171 -0.2778  0.3530
 6275TIP3    H240317   6.650   4.312  14.778 -1.1817  1.5368 -0.8326
 6276TIP3   OH240318   1.487   5.636  15.422  0.2280 -0.3749  0.0858
 6276TIP3    H140319   1.410   5.661  15.474 -0.1183  0.2385 -0.7026
 6276TIP3    H240320   1.454   5.569  15.362  0.0796  0.5049 -0.8462
 6277TIP3   OH240321   4.285   0.745   0.875  0.5804  0.0750 -0.0284
 6277TIP3    H140322   4.305   0.691   0.799  0.6052 -0.6014  0.4512
 6277TIP3    H240323   4.252   0.682   0.941  2.4073  0.3700  1.1905
 6278TIP3   OH240324   3.161   2.840  13.524 -0.1788 -0.3552 -0.2587
 6278TIP3    H140325   3.091   2.891  13.563 -0.7752 -1.1864 -0.2222
 6278TIP3    H240326   3.221   2.823  13.597 -0.2436 -0.1420 -0.1564
 6279TIP3   OH240327   3.510   0.049  12.542  0.7301 -0.2565  0.5340
 6279TIP3    H140328   3.547  -0.038  12.529  1.1284 -0.2380  1.4962
 6279TIP3    H240329   3.418   0.034  12.562  0.3270 -0.3368 -1.2542
 6280TIP3   OH240330   1.352   5.451   4.165 -0.4737  0.2176 -0.0661
 6280TIP3    H140331   1.368   5.457   4.259  0.1270  0.8345 -0.2109
 6280TIP3    H240332   1.288   5.519   4.147 -0.7449 -0.0366 -0.0720
 6281TIP3   OH240333   1.667   5.842   2.970  0.3895  0.6835 -0.3499
 6281TIP3    H140334   1.760   5.843   2.945  0.9615  3.3090  1.6749
 6281TIP3    H240335   1.639   5.933   2.963 -1.4173  0.2851  1.3053
 6282TIP3   OH240336   4.272   1.214  11.978  0.1046  0.1170 -0.0072
 6282TIP3    H140337   4.240   1.173  12.058  0.2702 -1.2949 -0.6544
 6282TIP3    H240338   4.319   1.145  11.932  2.9342  1.8065  0.2549
 6283TIP3   OH240339   5.848   5.427   2.185 -0.0411  0.1616  0.2629
 6283TIP3    H140340   5.895   5.484   2.124 -0.1430  0.5285  0.5246
 6283TIP3    H240341   5.851   5.474   2.268  2.8202 -1.7635  1.3261
 6284TIP3   OH240342   6.773   5.720  13.593 -0.3781 -0.1862  0.1583
 6284TIP3    H140343   6.853   5.754  13.635  1.6808 -4.5330  0.0074
 6284TIP3    H240344   6.740   5.794  13.542  1.8760  2.6248  2.5544
 6285TIP3   OH240345   4.934   6.348   5.284  1.1609  0.2247 -0.3165
 6285TIP3    H140346   4.840   6.362   5.279  1.2594  1.5431  1.2016
 6285TIP3    H240347   4.948   6.265   5.238 -0.8265 -0.3730  0.0968
 6286TIP3   OH240348   2.010   5.452   2.539  0.1070  0.3096 -0.2338
 6286TIP3    H140349   1.949   5.445   2.466 -2.2200 -0.8341  1.7360
 6286TIP3    H240350   2.054   5.536   2.525 -1.1829  0.6932 -2.2695
 6287TIP3   OH240351   4.603   5.949  17.165  0.1120 -0.3813  0.4682
 6287TIP3    H140352   4.541   6.013  17.200  0.8579  0.3289  0.5188
 6287TIP3    H240353   4.635   5.902  17.242  1.2268  0.7070  0.6906
 6288TIP3   OH240354   3.522   4.463   3.181 -0.6538  0.0491 -0.1645
 6288TIP3    H140355   3.548   4.489   3.093  1.6123  0.0083  0.4714
 6288TIP3    H240356   3.479   4.378   3.169  0.2458 -0.2725 -1.1452
 6289TIP3   OH240357   6.685   1.061  12.826  0.3427 -0.3746 -0.0166
 6289TIP3    H140358   6.774   1.041  12.854  0.2275 -0.2011  0.4832
 6289TIP3    H240359   6.646   1.108  12.900  0.1190  0.3385 -0.5814
 6290TIP3   OH240360   3.232   1.799  12.505  0.1462 -0.1420 -0.0848
 6290TIP3    H140361   3.209   1.756  12.422 -0.9666  0.3718 -0.0543
 6290TIP3    H240362   3.149   1.832  12.539  0.7327  0.4945  0.7676
 6291TIP3   OH240363   4.791   2.266   3.676 -0.5350  0.3356  0.3414
 6291TIP3    H140364   4.852   2.220   3.734 -0.7055  0.3547  0.5404
 6291TIP3    H240365   4.764   2.199   3.613 -1.2377 -0.0061  0.9945
 6292TIP3   OH240366   0.510   1.984  11.709  0.2341 -0.0816 -0.1662
 6292TIP3    H140367   0.502   2.034  11.791  1.0843  1.6925 -1.1474
 6292TIP3    H240368   0.598   1.946  11.713  0.0327 -0.5350  0.0277
 6293TIP3   OH240369   6.041   4.410  16.855  0.4046  0.2860  0.5250
 6293TIP3    H140370   6.089   4.427  16.936  0.0196  1.6762  0.4852
 6293TIP3    H240371   5.953   4.386  16.883  0.1323  1.2496  0.5195
 6294TIP3   OH240372   4.534   4.611   5.892  0.4438 -0.6518 -0.3449
 6294TIP3    H140373   4.471   4.680   5.870  2.0302  0.0321 -2.8994
 6294TIP3    H240374   4.543   4.616   5.987 -0.7663  1.4961 -0.3254
 6295TIP3   OH240375   2.316   2.179   5.821  0.1426 -0.2352  0.5371
 6295TIP3    H140376   2.322   2.188   5.726  1.2928 -1.1176  0.5215
 6295TIP3    H240377   2.222   2.177   5.840 -0.0847  0.3250 -0.5417
 6296TIP3   OH240378   1.306   0.869   5.971  0.3321  0.2544  0.0047
 6296TIP3    H140379   1.284   0.939   5.910 -2.4102 -0.2914  0.2998
 6296TIP3    H240380   1.345   0.914   6.047 -0.2384  1.3265 -0.3367
 6297TIP3   OH240381   6.690   3.729  16.358  0.5387 -0.1774  0.1457
 6297TIP3    H140382   6.629   3.687  16.298 -0.6522 -1.1854  1.9894
 6297TIP3    H240383   6.777   3.704  16.326 -0.0120  0.6476 -2.0678
 6298TIP3   OH240384   4.089   4.742  15.274  0.0114  0.1476 -0.3719
 6298TIP3    H140385   4.149   4.729  15.347 -0.7755 -0.7943  0.1078
 6298TIP3    H240386   4.129   4.694  15.201 -0.1832 -0.5268 -0.0377
 6299TIP3   OH240387   0.624   2.547   3.078 -0.0629  0.3085  0.3524
 6299TIP3    H140388   0.654   2.629   3.116 -0.0277  0.7600 -0.6314
 6299TIP3    H240389   0.572   2.574   3.002 -0.5406 -0.5584  0.3706
 6300TIP3   OH240390   1.140   3.640  14.955 -0.3840 -0.3398 -0.1733
 6300TIP3    H140391   1.139   3.725  14.910  1.1734 -0.7123 -0.9251
 6300TIP3    H240392   1.071   3.589  14.912 -0.2231 -0.0220 -0.8075
 6301TIP3   OH240393   5.307   0.949  12.464 -0.1114 -0.4965 -0.1362
 6301TIP3    H140394   5.265   1.029  12.434  0.3045 -0.3005 -0.2095
 6301TIP3    H240395   5.254   0.878  12.428 -0.1863 -0.2553 -0.5067
 6302TIP3   OH240396   4.143   1.449   4.713  0.5740 -0.0133  0.1668
 6302TIP3    H140397   4.104   1.364   4.694  0.0027 -0.6885  3.8962
 6302TIP3    H240398   4.237   1.434   4.709  0.4677 -0.4631 -0.6246
 6303TIP3   OH240399   1.735   4.467   4.468  0.3280  0.0304  0.2129
 6303TIP3    H140400   1.807   4.410   4.496  0.0966 -0.0006  0.7666
 6303TIP3    H240401   1.683   4.413   4.409 -0.0839 -0.4590  1.0084
 6304TIP3   OH240402   4.419   1.262   0.835 -0.2793 -0.2061  0.1171
 6304TIP3    H140403   4.415   1.201   0.908 -1.9683 -0.9246 -0.5396
 6304TIP3    H240404   4.471   1.218   0.768  1.5555  0.5933  0.9956
 6305TIP3   OH240405   1.977   5.318   4.753  0.2502  0.0430 -0.5649
 6305TIP3    H140406   1.932   5.257   4.810  1.0310  1.9423  2.2012
 6305TIP3    H240407   1.941   5.302   4.666 -1.2235 -2.6829  0.5172
 6306TIP3   OH240408   4.564   2.233   0.390  0.0263  0.1106 -0.7043
 6306TIP3    H140409   4.630   2.275   0.446 -1.4326 -0.1629  1.2684
 6306TIP3    H240410   4.515   2.305   0.352 -0.2439  0.2517 -0.0823
 6307TIP3   OH240411   3.513   2.827   3.237  0.1395  0.7849  0.2347
 6307TIP3    H140412   3.494   2.791   3.324  1.6242  0.2077  0.3364
 6307TIP3    H240413   3.469   2.912   3.237  0.0890  0.7781  1.5439
 6308TIP3   OH240414   3.004   2.845   4.617 -0.2284  0.4210  0.7252
 6308TIP3    H140415   3.013   2.875   4.708  2.1393 -0.1351  0.7146
 6308TIP3    H240416   2.991   2.750   4.625  0.1920  0.3426  0.4813
 6309TIP3   OH240417   4.818   3.920  16.546 -0.1769 -0.3715 -0.1564
 6309TIP3    H140418   4.810   3.854  16.615 -0.8778 -0.0922  0.0378
 6309TIP3    H240419   4.789   4.002  16.587  0.6803  0.0545 -0.3963
 6310TIP3   OH240420   4.166   1.041   1.647  0.2025 -0.1149  0.2038
 6310TIP3    H140421   4.189   1.093   1.723 -0.9233 -1.5723  1.5774
 6310TIP3    H240422   4.137   1.104   1.581 -1.2354  0.9927  1.8658
 6311TIP3   OH240423   6.673   1.344   5.185 -1.1208 -0.5696 -0.0750
 6311TIP3    H140424   6.593   1.343   5.238 -0.0459  1.8566  1.6746
 6311TIP3    H240425   6.737   1.391   5.239  1.3924 -2.0949 -1.6161
 6312TIP3   OH240426   1.479   0.833  12.114 -0.3014  0.1815  0.3775
 6312TIP3    H140427   1.439   0.817  12.029  0.1806  1.4267 -0.0981
 6312TIP3    H240428   1.560   0.780  12.112  0.1352  0.8600 -0.2750
 6313TIP3   OH240429   4.675   3.025   5.988 -0.2095  0.6278  0.0532
 6313TIP3    H140430   4.642   2.972   5.916 -2.0497  1.0488  0.5647
 6313TIP3    H240431   4.659   2.973   6.066  0.0635  0.9663  0.3414
 6314TIP3   OH240432   5.009   0.615  13.419  0.5270 -0.0560 -0.3273
 6314TIP3    H140433   5.053   0.576  13.344  1.9155  3.2996 -1.3405
 6314TIP3    H240434   4.928   0.651  13.384 -0.6355 -1.7295  0.5538
 6315TIP3   OH240435   3.403   5.121   4.286 -0.1069 -0.0454 -0.8598
 6315TIP3    H140436   3.330   5.149   4.230  0.4787  0.2420 -1.4741
 6315TIP3    H240437   3.478   5.171   4.255 -0.0955  1.2492  1.1822
 6316TIP3   OH240438   0.199   4.525  12.851  0.2603 -0.0235 -0.2436
 6316TIP3    H140439   0.220   4.472  12.928 -0.6364  0.4146  0.3187
 6316TIP3    H240440   0.105   4.512  12.839  0.1879  0.8168 -0.5755
 6317TIP3   OH240441   6.478   6.086  11.054  0.4512  0.1385  0.1328
 6317TIP3    H140442   6.404   6.082  10.994 -1.0694  0.3530  1.9246
 6317TIP3    H240443   6.546   6.033  11.013 -0.6232  0.1251 -1.6566
 6318TIP3   OH240444   5.493   6.745  11.480  0.0761  0.3919  0.2796
 6318TIP3    H140445   5.418   6.723  11.424  1.6087  0.0818 -1.6759
 6318TIP3    H240446   5.531   6.660  11.503  1.2671  0.6505 -0.7209
 6319TIP3   OH240447   0.580   4.960  11.406  0.3076 -0.2491 -0.7536
 6319TIP3    H140448   0.505   4.900  11.398  1.0161 -1.1501 -0.8052
 6319TIP3    H240449   0.611   4.971  11.316  0.8942 -0.7424 -0.6135
 6320TIP3   OH240450   4.130   5.370   6.037  0.2278  0.0739 -0.2116
 6320TIP3    H140451   4.099   5.318   6.111  0.4445 -1.5308 -1.2329
 6320TIP3    H240452   4.177   5.308   5.982 -1.3136  0.8791 -2.5107
 6321TIP3   OH240453   5.461   4.331   0.064 -0.0025 -0.4522  0.4522
 6321TIP3    H140454   5.396   4.262   0.079  0.0918 -0.9380 -1.2535
 6321TIP3    H240455   5.410   4.408   0.041 -0.0231 -0.6001 -0.0100
 6322TIP3   OH240456   3.222   3.591   5.320 -0.8941  0.5530 -0.3733
 6322TIP3    H140457   3.146   3.536   5.338 -0.3005 -0.6184 -1.3856
 6322TIP3    H240458   3.215   3.611   5.227  0.1122  0.3229 -0.5032
 6323TIP3   OH240459   5.287   0.852   3.900 -0.2844  0.3165  0.0683
 6323TIP3    H140460   5.207   0.868   3.951  0.2609  0.4339  0.9015
 6323TIP3    H240461   5.299   0.757   3.905  0.6784  0.4887  1.5890
 6324TIP3   OH240462   6.586   1.797  12.175  0.0874  0.2404  0.5132
 6324TIP3    H140463   6.636   1.717  12.164  0.3791  0.3263  1.1856
 6324TIP3    H240464   6.544   1.811  12.090  0.5577 -0.2649  0.1939
 6325TIP3   OH240465   5.935   4.461   2.361  0.0028  0.1723 -0.3875
 6325TIP3    H140466   5.844   4.476   2.385 -0.3205  0.0049 -1.4759
 6325TIP3    H240467   5.972   4.549   2.351 -0.3634  0.2526 -1.1067
 6326TIP3   OH240468   2.278   4.442   1.291  0.6202 -0.3308  0.2422
 6326TIP3    H140469   2.243   4.424   1.204 -2.0355 -2.5206  1.6936
 6326TIP3    H240470   2.356   4.387   1.298  2.1213  1.5361 -1.5428
 6327TIP3   OH240471   1.149   5.260  14.332 -0.6077  0.4656  0.1624
 6327TIP3    H140472   1.161   5.310  14.413 -0.7047 -0.1315  0.5431
 6327TIP3    H240473   1.064   5.219  14.342 -0.8467  0.8057 -0.4700
 6328TIP3   OH240474   4.338   1.591  11.290 -0.6035 -0.0071  0.6300
 6328TIP3    H140475   4.280   1.631  11.225  0.8352  1.3088  0.1152
 6328TIP3    H240476   4.327   1.646  11.368 -0.9214 -0.4587  0.9065
 6329TIP3   OH240477   3.769   5.490  12.416 -0.3248 -0.5758  0.0716
 6329TIP3    H140478   3.760   5.582  12.391 -0.5700 -0.3967  0.8022
 6329TIP3    H240479   3.854   5.485  12.458 -1.0447 -0.3034  1.6143
 6330TIP3   OH240480   6.498   2.860  14.932  0.1531  0.5822  0.3543
 6330TIP3    H140481   6.570   2.815  14.977  0.5324 -1.2442 -1.9970
 6330TIP3    H240482   6.419   2.816  14.963  0.3816 -0.3697 -0.3927
 6331TIP3   OH240483   1.619   5.855  15.550 -0.4183  0.2212 -0.4579
 6331TIP3    H140484   1.593   5.852  15.642  1.2441 -1.6182 -0.0165
 6331TIP3    H240485   1.609   5.765  15.519  1.4620  0.3048 -1.3731
 6332TIP3   OH240486   4.699   4.686   3.355  0.5132 -0.4075 -0.0541
 6332TIP3    H140487   4.780   4.637   3.371  1.0117  0.6079  0.6692
 6332TIP3    H240488   4.705   4.713   3.264  0.8951 -0.5246 -0.0657
 6333TIP3   OH240489   6.650   2.058   3.010 -0.0797  0.1785 -0.6476
 6333TIP3    H140490   6.589   2.132   3.007  0.5045  0.7438  0.8835
 6333TIP3    H240491   6.727   2.089   2.963 -0.7220 -0.3290 -2.0768
 6334TIP3   OH240492   3.564   5.684  11.200  0.0592 -0.2370 -0.1580
 6334TIP3    H140493   3.588   5.649  11.114  0.2036  1.7074 -0.9467
 6334TIP3    H240494   3.482   5.731  11.185  0.1891  0.2893  0.7064
 6335TIP3   OH240495   2.070   3.871  15.390  0.3110  0.8579 -0.3963
 6335TIP3    H140496   2.160   3.904  15.393  0.7685 -0.3903 -0.0483
 6335TIP3    H240497   2.057   3.844  15.300  0.8435 -0.4470 -0.0947
 6336TIP3   OH240498   5.396   0.628  11.367  0.3174 -0.6371 -0.1243
 6336TIP3    H140499   5.452   0.698  11.334  1.0180 -0.6360  1.0235
 6336TIP3    H240500   5.336   0.672  11.428  2.6706 -1.4081  2.8827
 6337TIP3   OH240501   4.349   2.186   0.119  0.0095  0.1035  0.8523
 6337TIP3    H140502   4.408   2.254   0.149 -0.1927  0.8356 -0.3670
 6337TIP3    H240503   4.354   2.190   0.023 -0.3571 -1.2805  0.7575
 6338TIP3   OH240504   6.036   6.376   5.717  0.1434 -1.2198 -0.5988
 6338TIP3    H140505   6.009   6.335   5.799  0.5464 -1.3368 -0.5213
 6338TIP3    H240506   5.955   6.409   5.678  0.1325  0.2260  0.6000
 6339TIP3   OH240507   2.975   1.415  12.429  0.5267  0.2611 -0.1749
 6339TIP3    H140508   3.019   1.401  12.345 -2.1610  0.4871 -1.6908
 6339TIP3    H240509   2.959   1.327  12.462 -1.5610  0.0387 -1.6652
 6340TIP3   OH240510   5.503   4.363   0.582 -0.0935 -0.2049  0.4225
 6340TIP3    H140511   5.533   4.311   0.657 -0.5959 -0.6582  0.3113
 6340TIP3    H240512   5.559   4.441   0.583  1.4021 -1.2344 -0.0352
 6341TIP3   OH240513   4.597   2.392   3.832  0.3991 -0.2045  0.1180
 6341TIP3    H140514   4.521   2.429   3.787  0.2219  0.3871  0.8793
 6341TIP3    H240515   4.636   2.331   3.769  1.2873  2.0093 -1.5386
 6342TIP3   OH240516   5.706   2.393   0.849  0.0665 -0.5402 -0.5360
 6342TIP3    H140517   5.743   2.417   0.933 -0.0691 -1.1004 -0.3136
 6342TIP3    H240518   5.717   2.471   0.794  2.3323 -0.9671 -0.7400
 6343TIP3   OH240519   4.051   5.178   4.717  0.0527 -0.0004 -0.1743
 6343TIP3    H140520   4.089   5.108   4.771  1.1009  2.2333  2.1028
 6343TIP3    H240521   3.968   5.198   4.760  0.2649  0.8611 -0.1600
 6344TIP3   OH240522   1.336   5.564   1.940  0.2657  0.6556  0.5322
 6344TIP3    H140523   1.419   5.526   1.967  1.3640  1.7115 -1.3136
 6344TIP3    H240524   1.294   5.496   1.887  0.7786  0.8057 -0.0682
 6345TIP3   OH240525   1.787   3.690  15.487 -0.2368 -0.2136 -0.0036
 6345TIP3    H140526   1.857   3.626  15.496  2.6292  2.4595 -1.8881
 6345TIP3    H240527   1.744   3.667  15.404  1.6407  0.9771 -1.3619
 6346TIP3   OH240528   4.414   5.886  16.196 -0.0164 -0.8002 -0.5798
 6346TIP3    H140529   4.335   5.931  16.226  0.8538  0.2312  0.2015
 6346TIP3    H240530   4.381   5.813  16.144 -1.5068 -0.8108  0.3347
 6347TIP3   OH240531   4.408   6.608   5.459 -0.0948  0.1342 -0.3769
 6347TIP3    H140532   4.398   6.698   5.489 -1.4298 -0.8067  2.2055
 6347TIP3    H240533   4.336   6.561   5.502 -0.2475 -1.9100 -2.7487
 6348TIP3   OH240534   1.686   0.168   1.343 -0.3100 -0.0774 -0.6301
 6348TIP3    H140535   1.636   0.192   1.420  0.6959 -1.2826  0.4193
 6348TIP3    H240536   1.736   0.248   1.321  0.4515 -0.1505  0.8000
 6349TIP3   OH240537   1.620   0.724   0.092 -0.3640 -0.0353  0.2080
 6349TIP3    H140538   1.580   0.758   0.172  0.0990  0.6102  0.1710
 6349TIP3    H240539   1.546   0.704   0.035 -0.7593 -2.0868  1.4218
 6350TIP3   OH240540   3.341   1.817   3.736  0.0610 -0.0812  0.3765
 6350TIP3    H140541   3.265   1.876   3.744 -0.5859 -0.8884  0.2631
 6350TIP3    H240542   3.365   1.822   3.643 -0.3165 -0.3907  0.2608
 6351TIP3   OH240543   4.392   2.481   3.669  0.5433 -0.1492  0.1578
 6351TIP3    H140544   4.441   2.551   3.625  0.3578  0.1781  0.4695
 6351TIP3    H240545   4.345   2.437   3.598  0.3745  0.2727  0.0043
 6352TIP3   OH240546   5.072   6.772   3.079 -0.6779  0.4900  0.5206
 6352TIP3    H140547   4.977   6.759   3.077 -0.6938  0.4486  1.2426
 6352TIP3    H240548   5.107   6.687   3.105 -0.5704  0.9740  2.0432
 6353TIP3   OH240549   3.841   5.677  15.206 -0.6018 -0.0825 -0.3884
 6353TIP3    H140550   3.836   5.601  15.263  0.2286 -0.7503 -1.1884
 6353TIP3    H240551   3.930   5.675  15.171 -0.7617  0.9183 -0.8706
 6354TIP3   OH240552   4.356   1.751   2.171  0.2323  0.3676 -0.2749
 6354TIP3    H140553   4.390   1.807   2.241  0.2291  2.2316 -1.7253
 6354TIP3    H240554   4.263   1.772   2.168  0.2450  0.3361 -0.8728
 6355TIP3   OH240555   6.628   4.851  14.960 -0.3362  0.3751  0.6958
 6355TIP3    H140556   6.539   4.825  14.985 -0.2672  1.3490  2.0257
 6355TIP3    H240557   6.672   4.867  15.044  0.8016  0.8714  0.0119
 6356TIP3   OH240558   0.483   4.821  12.497  0.0550 -0.0730  0.5322
 6356TIP3    H140559   0.425   4.774  12.557 -0.9991  0.2679 -0.2028
 6356TIP3    H240560   0.434   4.899  12.472  0.6480 -0.0097 -0.4686
 6357TIP3   OH240561   5.282   2.448  15.833 -0.3620  0.6449  0.3854
 6357TIP3    H140562   5.199   2.420  15.872 -0.0143  0.4189  0.9734
 6357TIP3    H240563   5.349   2.418  15.895  0.3574 -1.5974 -1.4371
 6358TIP3   OH240564   4.918   6.282   1.551 -0.2652 -0.4796 -0.2222
 6358TIP3    H140565   4.992   6.320   1.597 -0.1744 -0.7889 -0.1156
 6358TIP3    H240566   4.920   6.323   1.465 -0.9065  0.7038  0.3045
 6359TIP3   OH240567   6.085   3.016  17.259  0.0924  0.2334  0.2332
 6359TIP3    H140568   6.021   3.079  17.225  0.3571  0.4952  0.2203
 6359TIP3    H240569   6.047   2.986  17.342 -1.1327 -1.3061 -0.8533
 6360TIP3   OH240570   3.294   3.337   4.137  0.1385  0.2796  0.0330
 6360TIP3    H140571   3.321   3.402   4.073 -2.3621  1.0775 -0.2674
 6360TIP3    H240572   3.250   3.269   4.085 -3.3724  1.7168  0.9914
 6361TIP3   OH240573   6.151   3.026   2.595 -0.1353 -0.2005 -0.7837
 6361TIP3    H140574   6.091   2.952   2.583 -0.1445 -0.0815 -1.4852
 6361TIP3    H240575   6.238   2.986   2.596 -0.1998 -0.3427 -0.0249
 6362TIP3   OH240576   2.718   1.224  12.952  0.3066 -0.3055  0.5480
 6362TIP3    H140577   2.644   1.284  12.953  0.5262  0.0066 -0.7640
 6362TIP3    H240578   2.781   1.266  12.893  1.0072 -1.1790  0.6752
 6363TIP3   OH240579   1.647   6.061   0.020  0.1620  0.4820 -0.8787
 6363TIP3    H140580   1.624   5.975  -0.016  2.1377  0.4753 -2.2312
 6363TIP3    H240581   1.612   6.060   0.109 -0.8104 -1.2995 -1.2497
 6364TIP3   OH240582   3.046   1.348  13.060  0.1172 -0.7909  0.3284
 6364TIP3    H140583   3.061   1.258  13.089  0.4706 -0.3443  1.5649
 6364TIP3    H240584   3.133   1.382  13.040  0.1555 -0.2170  1.4263
 6365TIP3   OH240585   3.981   2.382   1.899  0.0898  0.2262 -0.3508
 6365TIP3    H140586   4.043   2.314   1.872 -0.3725 -0.2239 -0.3131
 6365TIP3    H240587   3.898   2.354   1.859  0.0789  1.2313 -1.0470
 6366TIP3   OH240588   2.043   1.942   2.409  0.1698  0.5520  0.8118
 6366TIP3    H140589   1.952   1.972   2.418 -0.1343  0.4426 -1.6349
 6366TIP3    H240590   2.037   1.847   2.422 -0.3254  0.3338 -0.9076
 6367TIP3   OH240591   0.635   4.216  10.807  0.1450  0.0023  0.1849
 6367TIP3    H140592   0.706   4.208  10.744 -0.1004  1.4204 -0.2811
 6367TIP3    H240593   0.642   4.306  10.841 -1.0806 -0.0175  0.5343
 6368TIP3   OH240594   3.981   1.603  12.776 -0.1651  0.0462  0.7788
 6368TIP3    H140595   3.946   1.611  12.687 -0.3307 -0.1003  0.8291
 6368TIP3    H240596   3.927   1.535  12.816  3.0965 -3.5765 -0.6184
 6369TIP3   OH240597   4.283   2.906   7.004 -0.0161  0.8403  0.2578
 6369TIP3    H140598   4.296   2.842   6.934  1.3477 -1.2105  2.3201
 6369TIP3    H240599   4.228   2.861   7.068 -1.4266  2.7608  0.4765
 6370TIP3   OH240600   3.379   3.557   4.812  0.1864 -0.3328 -0.4696
 6370TIP3    H140601   3.298   3.589   4.851  2.2636  1.8478  2.2883
 6370TIP3    H240602   3.385   3.602   4.728 -0.2196  1.4856  0.4482
 6371TIP3   OH240603   0.173   0.328   4.519 -0.1738 -0.1141 -0.5831
 6371TIP3    H140604   0.130   0.308   4.436 -0.5850 -1.3628 -0.0715
 6371TIP3    H240605   0.248   0.382   4.495 -2.1960  2.4140 -1.4666
 6372TIP3   OH240606   2.542   6.361  16.997 -0.1001 -0.0101 -0.3995
 6372TIP3    H140607   2.611   6.322  16.943 -0.2809  0.7121 -1.1626
 6372TIP3    H240608   2.462   6.318  16.968  0.0018 -0.8286  0.4698
 6373TIP3   OH240609   5.098   3.267  16.675  0.1520 -0.3838  0.0941
 6373TIP3    H140610   5.114   3.242  16.584 -0.7723 -0.0517 -0.1615
 6373TIP3    H240611   5.072   3.359  16.671  3.0419  0.5262  0.9743
 6374TIP3   OH240612   4.308   3.673   4.725 -0.6238 -0.0406 -0.0191
 6374TIP3    H140613   4.306   3.584   4.690 -1.0418  0.0055 -0.1144
 6374TIP3    H240614   4.323   3.729   4.649 -0.5404 -0.0137  0.0166
 6375TIP3   OH240615   1.082   0.122   1.155 -0.2378 -0.5847  0.1959
 6375TIP3    H140616   1.086   0.090   1.065  2.0931  1.3346 -0.4186
 6375TIP3    H240617   1.118   0.051   1.208 -0.8760 -1.3999 -0.4483
 6376TIP3   OH240618   1.370   6.425   0.256 -0.0811 -0.7833 -0.4480
 6376TIP3    H140619   1.447   6.413   0.311  1.0205  0.1151 -1.7307
 6376TIP3    H240620   1.404   6.418   0.166 -1.6236 -1.0776 -1.0294
 6377TIP3   OH240621   2.566   0.348   1.807  0.1099 -0.4781  0.3114
 6377TIP3    H140622   2.551   0.378   1.718  0.2026  2.1716  1.1490
 6377TIP3    H240623   2.653   0.309   1.805  1.0857  1.6865 -0.2413
 6378TIP3   OH240624   0.341   0.271  15.032 -0.2687  0.4069 -0.5042
 6378TIP3    H140625   0.302   0.192  14.994 -0.0369 -1.2173  2.4801
 6378TIP3    H240626   0.285   0.292  15.107  0.9330  1.7879  0.0328
 6379TIP3   OH240627   3.852   2.019  16.105  0.3010  0.2586  0.3928
 6379TIP3    H140628   3.903   2.099  16.098 -0.3947  0.7315  0.6894
 6379TIP3    H240629   3.766   2.048  16.137 -0.6491 -0.3403 -1.5339
 6380TIP3   OH240630   0.714   5.686  13.886 -0.7241 -0.0455 -0.1270
 6380TIP3    H140631   0.697   5.780  13.900  0.2200  0.2098 -0.6223
 6380TIP3    H240632   0.693   5.646  13.970 -2.8139  0.3605 -0.4346
 6381TIP3   OH240633   3.009   1.880   4.141 -0.0784 -0.1468 -0.1124
 6381TIP3    H140634   3.039   1.894   4.051  0.9011  1.0722  0.3971
 6381TIP3    H240635   2.921   1.918   4.144  0.7349  1.7802  0.0103
 6382TIP3   OH240636   3.215   4.876   2.763  0.1725 -0.2074  0.0100
 6382TIP3    H140637   3.183   4.924   2.686  0.2290 -0.8993 -0.4489
 6382TIP3    H240638   3.204   4.937   2.835  2.7739  1.5204 -0.9966
 6383TIP3   OH240639   6.041   2.539  15.447 -0.3924 -0.2986 -0.3508
 6383TIP3    H140640   5.957   2.534  15.491 -0.2347 -1.6084 -0.1717
 6383TIP3    H240641   6.023   2.581  15.364 -0.9239  0.9897  0.4061
 6384TIP3   OH240642   6.617   5.018   3.964 -0.5682 -0.1346 -0.2718
 6384TIP3    H140643   6.677   5.085   3.931 -0.3793  0.1931  0.7302
 6384TIP3    H240644   6.536   5.033   3.916  0.0274 -0.3370 -1.3599
 6385TIP3   OH240645   2.854   0.828  14.419 -0.2912  0.2097  0.2338
 6385TIP3    H140646   2.868   0.791  14.506  0.6479 -1.2942 -0.5414
 6385TIP3    H240647   2.761   0.852  14.418 -1.0122 -2.4257  0.6664
 6386TIP3   OH240648   2.739   3.589  11.531  0.5805  0.0409 -0.4390
 6386TIP3    H140649   2.815   3.636  11.497  1.7123 -1.3219  0.1729
 6386TIP3    H240650   2.700   3.548  11.454  1.1703 -0.2575 -0.5797
 6387TIP3   OH240651   4.267   2.873   3.674  0.5819  0.6081  0.0179
 6387TIP3    H140652   4.313   2.868   3.591 -0.0596  1.0638 -0.3728
 6387TIP3    H240653   4.290   2.959   3.710  0.3992  0.6504  0.0366
 6388TIP3   OH240654   2.240   3.225  13.607  0.8538  0.0532 -0.6461
 6388TIP3    H140655   2.192   3.306  13.627  0.7539 -0.2189  0.2222
 6388TIP3    H240656   2.279   3.199  13.691 -0.2352 -1.5401 -0.6160
 6389TIP3   OH240657   3.283   1.952   2.972  0.1709 -0.6571 -0.5105
 6389TIP3    H140658   3.247   2.034   2.937 -0.6341  0.4152  2.6571
 6389TIP3    H240659   3.361   1.979   3.021  1.0266 -2.0530 -1.0849
 6390TIP3   OH240660   2.551   4.504   5.282  0.2789 -0.0908 -0.4420
 6390TIP3    H140661   2.526   4.416   5.252 -1.5184 -0.0531  0.9153
 6390TIP3    H240662   2.479   4.560   5.255  0.0596  0.4607  1.2514
 6391TIP3   OH240663   3.222   1.295  13.702 -0.2962  0.3872  0.3772
 6391TIP3    H140664   3.202   1.202  13.711  0.9331 -0.1833 -2.3155
 6391TIP3    H240665   3.152   1.339  13.750  0.1776 -1.9409  3.3568
 6392TIP3   OH240666   0.360   2.522   6.184 -0.7133 -0.4515 -0.0534
 6392TIP3    H140667   0.343   2.432   6.213 -1.1859 -0.3414  0.0195
 6392TIP3    H240668   0.283   2.544   6.131  1.0349 -1.3841 -3.1122
 6393TIP3   OH240669   3.177   0.241  12.436 -0.3705 -0.1285  0.5123
 6393TIP3    H140670   3.239   0.279  12.373  0.5026 -1.3993  0.5686
 6393TIP3    H240671   3.146   0.315  12.487  0.0098  0.7301 -0.4819
 6394TIP3   OH240672   0.242   4.863  11.700  0.6086  0.1865  0.7872
 6394TIP3    H140673   0.152   4.830  11.708  0.6611  0.2880  1.8515
 6394TIP3    H240674   0.273   4.870  11.790  1.6076  0.3777  0.4300
 6395TIP3   OH240675   6.212   2.395  16.843 -0.2915  0.4510  0.2944
 6395TIP3    H140676   6.307   2.389  16.851  0.0102  3.1187 -0.5407
 6395TIP3    H240677   6.197   2.478  16.797 -2.9136 -1.2281 -2.0885
 6396TIP3   OH240678   0.534   5.334   2.326  0.6764  0.4791 -0.2044
 6396TIP3    H140679   0.537   5.287   2.410  1.5836  1.7092  0.4676
 6396TIP3    H240680   0.581   5.277   2.265 -1.6254 -1.3435 -0.3784
 6397TIP3   OH240681   4.258   4.882   3.346 -0.3988 -0.4448 -0.1672
 6397TIP3    H140682   4.332   4.863   3.404  1.2922  0.5470 -1.9342
 6397TIP3    H240683   4.187   4.826   3.379  1.5736 -2.5809  0.6490
 6398TIP3   OH240684   3.320   6.485  16.250 -0.7786 -0.2792  0.1432
 6398TIP3    H140685   3.242   6.524  16.211 -1.0431  0.2202  1.1687
 6398TIP3    H240686   3.300   6.392  16.257 -1.7236  0.0220  1.4649
 6399TIP3   OH240687   3.778   2.312   2.242  0.6165 -0.3753 -0.0530
 6399TIP3    H140688   3.747   2.379   2.181  1.4197  0.9796  0.9990
 6399TIP3    H240689   3.836   2.360   2.302  1.7386 -2.1409  0.2894
 6400TIP3   OH240690   6.466   3.504   1.175  0.0165  0.4237  0.1677
 6400TIP3    H140691   6.561   3.503   1.174  0.0294  0.5294  1.4730
 6400TIP3    H240692   6.442   3.512   1.267 -1.2386  1.7147 -0.2428
 6401TIP3   OH240693   4.449   6.704   0.631 -0.2381  0.2237  0.2790
 6401TIP3    H140694   4.450   6.630   0.571 -1.4896 -0.6445  1.3002
 6401TIP3    H240695   4.360   6.706   0.665  0.1590  1.3572  1.2887
 6402TIP3   OH240696   3.156   4.055  14.812 -0.7261 -0.3334  0.0721
 6402TIP3    H140697   3.089   4.123  14.806 -0.4103 -0.0578 -0.3650
 6402TIP3    H240698   3.120   3.990  14.872 -0.6375  0.6803  1.2431
 6403TIP3   OH240699   4.793   6.326   5.823 -0.0869  0.0484  0.3681
 6403TIP3    H140700   4.860   6.394   5.834 -0.1244 -0.0889  1.5549
 6403TIP3    H240701   4.710   6.373   5.823 -0.1836 -0.0700  2.3020
 6404TIP3   OH240702   2.675   1.427  15.819  0.5112 -0.4391 -0.3710
 6404TIP3    H140703   2.726   1.351  15.850  0.8455 -0.3168 -0.6104
 6404TIP3    H240704   2.658   1.478  15.898 -0.2313 -1.0701 -0.1180
 6405TIP3   OH240705   2.815   5.775   5.812  0.2168  0.0415  0.2662
 6405TIP3    H140706   2.793   5.812   5.897 -0.5052 -0.2340  0.1994
 6405TIP3    H240707   2.896   5.820   5.787 -0.0734  0.7951  0.6711
 6406TIP3   OH240708   4.125   3.467   3.707 -0.4619 -0.1896  0.4428
 6406TIP3    H140709   4.065   3.533   3.741  0.4346  0.2979  1.0925
 6406TIP3    H240710   4.124   3.480   3.612 -0.5453  0.5390  0.5415
 6407TIP3   OH240711   6.360   4.371   1.438 -0.4173 -0.4555  0.3748
 6407TIP3    H140712   6.359   4.463   1.464  1.0357 -1.0576  2.7741
 6407TIP3    H240713   6.382   4.372   1.345 -1.8094  1.6732  0.0392
 6408TIP3   OH240714   0.469   5.672   4.738 -0.0461 -0.2345  0.1926
 6408TIP3    H140715   0.384   5.663   4.693  1.6019 -0.4585 -2.9973
 6408TIP3    H240716   0.463   5.611   4.812 -2.3465 -0.8785 -0.4688
 6409TIP3   OH240717   5.129   3.609   3.578 -0.9077 -0.3529 -0.5252
 6409TIP3    H140718   5.155   3.602   3.669 -1.5548 -1.8506 -0.4390
 6409TIP3    H240719   5.210   3.600   3.528 -0.5189  0.7230 -0.1037
 6410TIP3   OH240720   1.254   4.245  11.961  0.1199 -0.4810 -0.1551
 6410TIP3    H140721   1.262   4.300  11.884 -0.2674 -1.7958 -1.1442
 6410TIP3    H240722   1.167   4.266  11.996  1.0000  1.4409  0.9945
 6411TIP3   OH240723   3.653   4.365  15.055  0.0459  0.1023 -0.5435
 6411TIP3    H140724   3.673   4.375  14.962 -3.7141 -1.5535 -1.6362
 6411TIP3    H240725   3.639   4.454  15.086 -0.8659  0.5412 -2.1339
 6412TIP3   OH240726   5.338   4.316  14.758 -0.4785  0.2699 -0.2308
 6412TIP3    H140727   5.364   4.401  14.721 -2.3284  0.9499 -0.0358
 6412TIP3    H240728   5.256   4.295  14.712 -0.4004 -1.0683  0.2350
 6413TIP3   OH240729   4.276   4.701  16.684  0.2531  0.6897 -0.2199
 6413TIP3    H140730   4.349   4.763  16.679 -1.1911  2.4688  0.4119
 6413TIP3    H240731   4.278   4.669  16.774  1.2163 -0.4814 -0.6431
 6414TIP3   OH240732   4.753   6.068   5.746 -0.3964  0.6439  0.2770
 6414TIP3    H140733   4.787   6.010   5.814 -0.4129  1.5761  1.0797
 6414TIP3    H240734   4.778   6.156   5.773  1.0537  0.9130 -1.7715
 6415TIP3   OH240735   4.496   1.068  13.468  0.4719  0.0240 -0.5777
 6415TIP3    H140736   4.439   0.998  13.437  1.7549 -1.7488  0.9744
 6415TIP3    H240737   4.447   1.110  13.538  0.3337 -0.3407 -0.4542
 6416TIP3   OH240738   2.674   3.363   5.306  0.1058  0.9072 -0.3263
 6416TIP3    H140739   2.647   3.380   5.216  0.8855  2.2252 -0.3214
 6416TIP3    H240740   2.593   3.370   5.357 -0.2009  0.9761 -0.8167
 6417TIP3   OH240741   1.112   5.271  11.569 -0.1533 -0.1885  0.1328
 6417TIP3    H140742   1.031   5.268  11.619 -0.0584 -0.6268  0.2610
 6417TIP3    H240743   1.126   5.181  11.539  0.3541 -0.1456  0.2293
 6418TIP3   OH240744   1.632   1.610   3.581 -0.6299 -0.1744  0.5131
 6418TIP3    H140745   1.709   1.624   3.635  0.3059 -0.3556 -0.7401
 6418TIP3    H240746   1.589   1.534   3.620  1.0317 -1.4522 -0.0614
 6419TIP3   OH240747   0.127   0.878  16.188 -0.5632  0.3901  0.3318
 6419TIP3    H140748   0.062   0.853  16.122  0.2684  2.8175 -1.4605
 6419TIP3    H240749   0.076   0.926  16.254 -0.8266  1.1607 -0.4190
 6420TIP3   OH240750   3.702   0.854   5.860 -0.0174 -0.2439 -0.3146
 6420TIP3    H140751   3.718   0.762   5.841 -0.0245 -0.7208  1.9495
 6420TIP3    H240752   3.620   0.855   5.908 -0.5035  1.0485 -1.1327
 6421TIP3   OH240753   1.325   3.197  14.862  0.2548 -0.3982  0.2554
 6421TIP3    H140754   1.343   3.283  14.824  2.3272 -0.3276  1.3245
 6421TIP3    H240755   1.292   3.145  14.790 -2.6951  1.7685 -0.0485
 6422TIP3   OH240756   5.642   4.758  15.426  0.1802 -0.2101  0.0085
 6422TIP3    H140757   5.641   4.825  15.494 -0.2738 -0.1490 -0.0602
 6422TIP3    H240758   5.612   4.678  15.470 -2.6957  0.4102 -0.7235
 6423TIP3   OH240759   2.474   4.881  14.050 -0.3309 -0.5813 -0.0575
 6423TIP3    H140760   2.395   4.883  13.996 -1.0186 -0.7815  0.9131
 6423TIP3    H240761   2.542   4.921  13.996 -1.1270 -0.3132 -0.8664
 6424TIP3   OH240762   0.514   3.919   3.447  0.0997  0.6137  0.6180
 6424TIP3    H140763   0.583   3.953   3.390  1.5677 -2.1934  0.6426
 6424TIP3    H240764   0.550   3.928   3.535  1.0934 -2.2423  0.5270
 6425TIP3   OH240765   5.373   2.847  16.684 -1.3946  0.0048 -0.5512
 6425TIP3    H140766   5.423   2.770  16.656 -0.9566  0.2822 -0.5424
 6425TIP3    H240767   5.426   2.921  16.655 -0.6901  0.3047  1.4417
 6426TIP3   OH240768   5.517   0.800  15.983 -0.2574 -0.0433  0.2593
 6426TIP3    H140769   5.577   0.857  16.030 -1.1125 -0.4171  1.8491
 6426TIP3    H240770   5.440   0.854  15.966  0.0085  0.0609 -0.6422
 6427TIP3   OH240771   4.085   6.643  11.654 -0.9046  0.3027 -0.8341
 6427TIP3    H140772   4.072   6.558  11.698  0.8267  0.1807 -0.5291
 6427TIP3    H240773   4.019   6.644  11.585  0.3860 -2.2416 -2.2051
 6428TIP3   OH240774   2.789   2.655   5.134  0.3083  0.4398  0.2607
 6428TIP3    H140775   2.763   2.702   5.055  0.2399 -0.2838 -0.1457
 6428TIP3    H240776   2.707   2.624   5.172  0.5541 -2.2423 -1.2648
 6429TIP3   OH240777   3.710   1.338   1.845  0.2908  0.0038 -0.1352
 6429TIP3    H140778   3.670   1.287   1.915  0.6273 -0.9770 -0.6574
 6429TIP3    H240779   3.717   1.277   1.771  1.2402  0.6311 -0.5737
 6430TIP3   OH240780   0.307   1.764   0.753  0.4020  0.1792 -0.0613
 6430TIP3    H140781   0.299   1.701   0.681 -1.1719  1.3149 -0.9289
 6430TIP3    H240782   0.359   1.719   0.819  3.0961 -0.3751 -2.4892
 6431TIP3   OH240783   6.714   4.163   2.142 -0.1820  0.0812  0.2985
 6431TIP3    H140784   6.658   4.206   2.207 -1.8408 -1.9029  0.2334
 6431TIP3    H240785   6.687   4.201   2.059  0.9638  1.5897  0.5813
 6432TIP3   OH240786   2.038   0.904   4.798 -0.1354  0.0420  0.5233
 6432TIP3    H140787   2.025   0.818   4.839  0.2446 -0.1282  0.2854
 6432TIP3    H240788   2.103   0.947   4.854  0.3122 -0.1539  0.1572
 6433TIP3   OH240789   3.443   3.146  14.822 -0.2986 -0.3959  0.0046
 6433TIP3    H140790   3.482   3.071  14.867  0.3440 -0.4365 -0.6138
 6433TIP3    H240791   3.413   3.110  14.739  0.5718  0.1589 -0.5576
 6434TIP3   OH240792   1.014   6.564  14.602 -0.1068  0.0522 -0.3597
 6434TIP3    H140793   1.058   6.605  14.527 -0.1573  0.9469  0.1008
 6434TIP3    H240794   1.086   6.528  14.655 -0.0373 -0.0481 -0.5208
 6435TIP3   OH240795   4.305   0.655   4.446 -0.4325  0.6787 -0.5094
 6435TIP3    H140796   4.334   0.736   4.488 -1.0516  1.1887 -1.0683
 6435TIP3    H240797   4.220   0.676   4.408 -1.0621 -0.5274  0.2243
 6436TIP3   OH240798   1.542   1.131   1.780 -0.0795 -0.2781  0.3386
 6436TIP3    H140799   1.503   1.092   1.703  0.9957  0.9528 -0.8602
 6436TIP3    H240800   1.558   1.222   1.755  0.5699  0.0525  1.8973
 6437TIP3   OH240801   0.860   5.537   4.346  0.0227 -0.3038  0.3181
 6437TIP3    H140802   0.842   5.448   4.316 -1.5551  0.5160 -1.3011
 6437TIP3    H240803   0.775   5.569   4.376 -0.0466  1.6335 -1.8281
 6438TIP3   OH240804   3.225   3.458   3.151 -0.0880 -0.5063 -0.2993
 6438TIP3    H140805   3.163   3.472   3.079 -1.0971 -0.2841  0.5901
 6438TIP3    H240806   3.204   3.527   3.214 -0.8026 -2.0924  1.2576
 6439TIP3   OH240807   4.702   6.721  11.529  0.4165  1.1510  0.0595
 6439TIP3    H140808   4.734   6.781  11.463  0.6763  1.3732  0.3860
 6439TIP3    H240809   4.608   6.737  11.534 -0.0654 -0.7321 -2.1519
 6440TIP3   OH240810   6.576   4.771   4.044 -0.0902  0.1321  0.3212
 6440TIP3    H140811   6.509   4.753   3.979 -1.0151  1.9395  0.7386
 6440TIP3    H240812   6.610   4.858   4.021  0.4036  0.2849  1.5367
 6441TIP3   OH240813   6.465   1.787   3.255  0.4898  0.0163 -0.2291
 6441TIP3    H140814   6.385   1.747   3.223 -0.0200  0.3269  0.6586
 6441TIP3    H240815   6.437   1.871   3.293  0.9992 -0.6134  1.5718
 6442TIP3   OH240816   3.301   1.139  14.021 -0.1508 -0.4816  0.7010
 6442TIP3    H140817   3.272   1.131  13.930  1.1541  0.2041  0.2209
 6442TIP3    H240818   3.220   1.157  14.070 -0.7517 -0.1139 -0.4128
 6443TIP3   OH240819   4.224   3.600   3.161  0.1037  0.3688 -0.3156
 6443TIP3    H140820   4.206   3.692   3.180  0.5477  0.4458 -0.2626
 6443TIP3    H240821   4.169   3.580   3.086 -1.3672  0.1680  0.8067
 6444TIP3   OH240822   6.353   2.274   1.459 -0.3633  0.4328 -0.2398
 6444TIP3    H140823   6.363   2.227   1.542  1.4208  0.1681 -0.6068
 6444TIP3    H240824   6.318   2.209   1.398  0.1884  0.1180 -0.2173
 6445TIP3   OH240825   4.510   0.012   2.676 -0.4333  0.8165 -0.1181
 6445TIP3    H140826   4.533  -0.081   2.674 -0.9234  0.7084 -1.0494
 6445TIP3    H240827   4.435   0.020   2.616 -0.7032  1.7270  0.3296
 6446TIP3   OH240828   1.855   0.932   0.349 -0.0101 -0.5514  0.7344
 6446TIP3    H140829   1.790   0.880   0.397  0.0351  0.3518  1.7847
 6446TIP3    H240830   1.864   1.012   0.400  0.0884  0.4104 -0.7639
 6447TIP3   OH240831   1.692   5.286   2.229  0.2407  0.0338  0.3859
 6447TIP3    H140832   1.768   5.335   2.199  1.0323 -1.3389  0.1010
 6447TIP3    H240833   1.717   5.194   2.218 -1.3935 -0.4356  0.4391
 6448TIP3   OH240834   0.816   6.788   4.949 -0.7545 -0.0101 -0.1698
 6448TIP3    H140835   0.768   6.721   4.996 -1.7291  0.3719 -0.5863
 6448TIP3    H240836   0.780   6.871   4.982 -0.6717  0.2729 -0.7732
 6449TIP3   OH240837   6.523   0.159   3.725 -0.1342 -0.8640 -0.3779
 6449TIP3    H140838   6.612   0.172   3.695 -0.0681  0.7058  0.4427
 6449TIP3    H240839   6.532   0.116   3.810 -0.1579 -0.6923 -0.2880
 6450TIP3   OH240840   6.678   2.308   4.005  0.2301  0.0944  0.0591
 6450TIP3    H140841   6.602   2.349   3.964  1.8128  1.8475 -1.2374
 6450TIP3    H240842   6.713   2.250   3.937  0.6924  0.1689  0.2273
 6451TIP3   OH240843   3.326   6.551  16.857 -0.4284  0.0488  0.2352
 6451TIP3    H140844   3.270   6.625  16.831 -0.0816  0.3296  0.2783
 6451TIP3    H240845   3.406   6.592  16.889  0.1988 -0.3819 -0.7582
 6452TIP3   OH240846   0.559   1.203  14.837 -0.2286  0.4067  0.3406
 6452TIP3    H140847   0.554   1.279  14.779  0.3896 -0.0242 -0.2799
 6452TIP3    H240848   0.579   1.239  14.923 -0.4664  0.9890  0.1534
 6453TIP3   OH240849   5.012   3.298   1.870 -0.0245  0.1302  0.2583
 6453TIP3    H140850   5.108   3.307   1.873  0.0410  0.1684 -1.4243
 6453TIP3    H240851   4.984   3.368   1.811 -0.9055 -1.1721 -0.8837
 6454TIP3   OH240852   1.383   4.997  11.775 -0.3907 -0.0645  0.6112
 6454TIP3    H140853   1.364   4.991  11.682 -1.3994 -0.8984  0.8603
 6454TIP3    H240854   1.446   5.068  11.782  0.7109 -0.8813 -0.8480
 6455TIP3   OH240855   2.452   5.816  14.202 -0.3155  0.4416  0.3528
 6455TIP3    H140856   2.396   5.744  14.172  1.0117 -0.6593  0.4986
 6455TIP3    H240857   2.523   5.774  14.249  0.9053  1.7993 -0.2255
 6456TIP3   OH240858   0.246   6.819   5.125  0.1961 -0.2406 -0.4276
 6456TIP3    H140859   0.210   6.907   5.136 -0.4225 -0.4386 -0.8766
 6456TIP3    H240860   0.170   6.763   5.109  0.2622 -1.3609  2.8073
 6457TIP3   OH240861   2.267   5.668   1.341  0.4838  0.0366 -0.4581
 6457TIP3    H140862   2.291   5.593   1.287  0.7103  0.5269 -1.0515
 6457TIP3    H240863   2.339   5.730   1.329 -0.2620  0.8372 -0.9267
 6458TIP3   OH240864   6.345   1.652   5.348  0.2473 -0.1831  0.6386
 6458TIP3    H140865   6.439   1.649   5.365  0.4505 -2.2451 -0.7133
 6458TIP3    H240866   6.311   1.712   5.414  2.4772  0.4225  1.2852
 6459TIP3   OH240867   0.526   4.195  16.973 -0.0052  0.0488  0.7175
 6459TIP3    H140868   0.567   4.271  16.931  0.3416 -0.8054 -0.5076
 6459TIP3    H240869   0.506   4.135  16.901  0.4168 -1.3527  1.7438
 6460TIP3   OH240870   1.131   1.486  17.224  0.4742 -0.5241  0.0680
 6460TIP3    H140871   1.180   1.477  17.306 -2.6221 -0.1362  2.0384
 6460TIP3    H240872   1.137   1.580  17.203  0.5129 -0.4673  0.3296
 6461TIP3   OH240873   1.183   5.786  13.999 -0.2818  0.3339  0.5051
 6461TIP3    H140874   1.200   5.754  14.088 -0.1808 -0.3208  0.2522
 6461TIP3    H240875   1.269   5.785  13.956 -0.1928  1.4404  0.6564
 6462TIP3   OH240876   6.327   0.372   1.124 -0.1541  0.1877  0.2543
 6462TIP3    H140877   6.252   0.427   1.102 -2.0830 -1.7307  1.7841
 6462TIP3    H240878   6.334   0.379   1.220 -0.1623 -1.8439  0.4303
 6463TIP3   OH240879   0.334   1.345   5.665 -0.3840  0.1580  0.3571
 6463TIP3    H140880   0.396   1.286   5.624 -1.5041 -0.5132 -0.4084
 6463TIP3    H240881   0.350   1.335   5.759 -0.2822 -1.0705  0.2246
 6464TIP3   OH240882   5.941   3.042   3.593 -0.7404  1.1265 -0.5795
 6464TIP3    H140883   6.003   3.111   3.617 -0.5434  0.2908  1.4280
 6464TIP3    H240884   5.942   3.041   3.498  2.9665  0.6048 -0.6147
 6465TIP3   OH240885   1.194   3.278   1.510 -0.3778 -0.2501 -0.4597
 6465TIP3    H140886   1.172   3.276   1.417  1.0673  0.0697 -0.8130
 6465TIP3    H240887   1.259   3.348   1.518 -0.7544 -0.0268  0.8527
 6466TIP3   OH240888   0.223   0.900   5.670  0.2089  0.5367  0.2080
 6466TIP3    H140889   0.208   0.919   5.762 -0.9276 -0.2607  0.2019
 6466TIP3    H240890   0.306   0.853   5.667 -1.0088 -1.7466  1.1343
 6467TIP3   OH240891   0.367   1.260   4.019  0.1596  0.2077 -0.4289
 6467TIP3    H140892   0.364   1.166   4.001 -0.4536  0.0504  0.5090
 6467TIP3    H240893   0.317   1.300   3.948  1.1059 -0.1012 -1.2869
 6468TIP3   OH240894   3.077   6.286  14.543  0.6431  1.0436 -0.1233
 6468TIP3    H140895   3.147   6.352  14.547  0.6212  1.3111 -2.9950
 6468TIP3    H240896   3.021   6.316  14.472  1.0375 -2.4586 -1.9932
 6469TIP3   OH240897   0.443   4.053   2.386 -0.1312 -0.1939 -0.2116
 6469TIP3    H140898   0.348   4.054   2.369 -0.3017  1.2149  0.7317
 6469TIP3    H240899   0.482   4.062   2.300 -0.9093  1.3757 -0.4308
 6470TIP3   OH240900   5.065   5.844   2.649 -0.4199 -0.6423 -0.3264
 6470TIP3    H140901   5.126   5.866   2.578 -0.2771 -1.1765 -0.3747
 6470TIP3    H240902   4.979   5.844   2.607 -0.1254 -3.1578 -1.0358
 6471TIP3   OH240903   0.995   3.744   2.930  0.3938  0.1766 -0.0263
 6471TIP3    H140904   0.961   3.716   3.015 -0.3942  2.2410  0.3721
 6471TIP3    H240905   1.090   3.751   2.943  0.3831 -0.4260  0.3982
 6472TIP3   OH240906   1.732   1.181  11.629 -0.4694 -0.1004  0.8064
 6472TIP3    H140907   1.768   1.228  11.554  0.3132 -0.0405  1.2113
 6472TIP3    H240908   1.748   1.240  11.703 -0.3452 -0.5898  1.1692
 6473TIP3   OH240909   0.353   4.585  16.517  0.3444  0.1318 -0.3803
 6473TIP3    H140910   0.302   4.622  16.589 -0.1382 -0.4453 -0.4165
 6473TIP3    H240911   0.290   4.579  16.445  0.0726 -1.9231 -0.0057
 6474TIP3   OH240912   1.045   4.968   3.025 -0.3108 -0.5340 -0.5282
 6474TIP3    H140913   1.015   5.054   3.055 -1.9135 -0.8666 -1.1455
 6474TIP3    H240914   1.131   4.958   3.065 -0.2740  1.1932 -0.1317
 6475TIP3   OH240915   2.963   2.966  14.428 -0.7135  0.1817  0.0508
 6475TIP3    H140916   3.042   2.987  14.378 -0.0036  0.6952  1.3503
 6475TIP3    H240917   2.992   2.900  14.492 -1.1881  0.8106  0.9277
 6476TIP3   OH240918   4.449   0.769   1.303 -0.3375 -0.2202 -0.0462
 6476TIP3    H140919   4.460   0.772   1.207  1.8232 -2.0518  0.1072
 6476TIP3    H240920   4.364   0.812   1.318 -0.2435  1.0420 -2.6854
 6477TIP3   OH240921   4.277   0.048   2.303 -0.1610  0.1268 -0.4001
 6477TIP3    H140922   4.283   0.054   2.398 -0.3154  1.1371 -0.4454
 6477TIP3    H240923   4.273   0.139   2.274  1.8060 -0.1145 -1.4930
 6478TIP3   OH240924   1.227   5.540   3.205 -0.1982 -0.0864 -0.7161
 6478TIP3    H140925   1.316   5.520   3.236 -0.5664 -0.7297 -0.0789
 6478TIP3    H240926   1.195   5.457   3.171 -1.6990 -0.6017  1.8546
 6479TIP3   OH240927   2.060   2.398   4.823 -0.1311  0.2445  0.1508
 6479TIP3    H140928   2.076   2.426   4.733 -0.8515 -1.1958 -0.4530
 6479TIP3    H240929   2.130   2.334   4.840 -0.7810 -0.4811  0.1275
 6480TIP3   OH240930   4.233   0.303   0.813 -1.2205  0.3283 -0.1020
 6480TIP3    H140931   4.277   0.340   0.890  1.0429 -3.3274  0.4627
 6480TIP3    H240932   4.252   0.366   0.742  1.0722  1.0986  1.1612
 6481TIP3   OH240933   4.790   2.226   5.678  0.4509 -0.0854 -0.1724
 6481TIP3    H140934   4.854   2.177   5.626  0.6086 -0.0934  0.0287
 6481TIP3    H240935   4.819   2.317   5.672  0.7291 -0.1455  0.2789
 6482TIP3   OH240936   0.851   1.779  14.644 -0.3465  0.1958  0.1642
 6482TIP3    H140937   0.790   1.814  14.580 -0.5158 -1.1283 -0.4180
 6482TIP3    H240938   0.936   1.817  14.621 -0.4988  0.1061 -0.5388
 6483TIP3   OH240939   0.557   0.912   3.586  0.5241 -0.1951 -0.0096
 6483TIP3    H140940   0.644   0.912   3.545  0.4890  1.0486 -0.0967
 6483TIP3    H240941   0.503   0.963   3.526  0.3316  1.1596  1.2799
 6484TIP3   OH240942   0.157   4.870  13.023 -0.0690 -0.1781 -0.2899
 6484TIP3    H140943   0.219   4.887  12.952 -0.5616 -0.9106 -0.9066
 6484TIP3    H240944   0.071   4.882  12.982 -0.3416  0.2733  0.4162
 6485TIP3   OH240945   1.471   0.306  15.716 -0.4940 -0.2332  0.2917
 6485TIP3    H140946   1.543   0.368  15.717 -1.5320  1.0307 -1.4234
 6485TIP3    H240947   1.480   0.259  15.633 -1.4669 -0.2600  0.1860
 6486TIP3   OH240948   2.184   3.521  13.326  0.0371 -1.2505  0.1416
 6486TIP3    H140949   2.093   3.493  13.329 -0.1427 -0.6363  0.3770
 6486TIP3    H240950   2.197   3.553  13.236 -0.3824  0.0141  0.5226
 6487TIP3   OH240951   0.295   2.172   0.295  0.2526  0.5893 -0.0944
 6487TIP3    H140952   0.204   2.202   0.301  0.3082  0.8827 -0.6518
 6487TIP3    H240953   0.296   2.088   0.341 -0.6203 -0.1020 -1.3047
 6488TIP3   OH240954   4.628   1.259  16.401 -0.6168  0.3667  0.4902
 6488TIP3    H140955   4.631   1.209  16.482  1.3645 -1.0091 -0.4040
 6488TIP3    H240956   4.688   1.332  16.415  0.0863 -0.1343  0.0942
 6489TIP3   OH240957   3.988   5.726   5.196  0.0842 -0.4555 -0.3208
 6489TIP3    H140958   4.072   5.770   5.205  0.0398 -0.0940 -1.5381
 6489TIP3    H240959   3.933   5.765   5.263 -0.1183  1.7609 -1.7320
 6490TIP3   OH240960   2.129   1.806  13.857  0.4072  0.1725 -0.3252
 6490TIP3    H140961   2.154   1.847  13.940  2.7203 -0.2329 -0.7861
 6490TIP3    H240962   2.092   1.878  13.805  1.3438  0.9818  0.1039
 6491TIP3   OH240963   3.018   0.665   4.041  0.1342  0.2293  0.0724
 6491TIP3    H140964   2.956   0.715   4.094 -1.9855 -0.0316 -2.0674
 6491TIP3    H240965   3.052   0.727   3.977  1.9057  0.3002  1.0596
 6492TIP3   OH240966   0.846   4.705   3.471  0.3868  0.1791 -0.0612
 6492TIP3    H140967   0.936   4.677   3.458  0.4019 -0.1913  0.7936
 6492TIP3    H240968   0.847   4.799   3.455  1.0426  0.2772  0.5750
 6493TIP3   OH240969   3.904   2.722   4.933  0.3940 -0.7123 -0.5146
 6493TIP3    H140970   3.950   2.659   4.988  0.0703 -1.9327 -1.5879
 6493TIP3    H240971   3.933   2.808   4.963  1.0178 -1.3883  0.8312
 6494TIP3   OH240972   0.590   0.747  11.037  0.4237  0.4617 -0.6245
 6494TIP3    H140973   0.519   0.688  11.011 -0.4912  0.9067  0.8183
 6494TIP3    H240974   0.669   0.702  11.008 -0.2095 -1.7781  0.8727
 6495TIP3   OH240975   1.652   6.644  12.848 -0.3471 -0.0229  0.3571
 6495TIP3    H140976   1.688   6.561  12.816  0.2525  0.2029  0.4299
 6495TIP3    H240977   1.659   6.703  12.772  0.5813  0.3633  0.7320
 6496TIP3   OH240978   6.042   1.801  15.621  0.1332  0.1716  0.3199
 6496TIP3    H140979   6.051   1.883  15.670 -2.1650  1.5886 -1.5592
 6496TIP3    H240980   5.954   1.769  15.643 -0.0575 -0.3306 -1.1438
 6497TIP3   OH240981   3.945   6.139  12.675  0.1063 -0.2715 -0.2697
 6497TIP3    H140982   3.874   6.178  12.726 -0.2013  0.4078 -1.2259
 6497TIP3    H240983   3.981   6.210  12.623  1.9456 -0.4595  0.6986
 6498TIP3   OH240984   4.066   6.647   5.464  0.2633 -0.5651  0.1524
 6498TIP3    H140985   4.040   6.625   5.553 -3.5998 -2.3132 -1.2964
 6498TIP3    H240986   4.045   6.740   5.455  0.0167 -0.5516  0.8670
 6499TIP3   OH240987   2.405   1.180   1.966  0.0722 -0.2469  0.5029
 6499TIP3    H140988   2.359   1.097   1.955 -0.1979  0.0506 -0.7028
 6499TIP3    H240989   2.340   1.247   1.942  0.9786  0.1997 -0.7638
 6500TIP3   OH240990   5.530   4.837   2.456 -0.3890  0.1515  0.6628
 6500TIP3    H140991   5.441   4.862   2.430 -0.1527 -2.1204 -2.6150
 6500TIP3    H240992   5.586   4.889   2.399  0.4105  1.2971  2.4676
 6501TIP3   OH240993   1.715   3.425  13.701  0.3888  0.5210  0.4087
 6501TIP3    H140994   1.799   3.468  13.684 -0.0696  0.8586 -1.0979
 6501TIP3    H240995   1.650   3.494  13.692 -0.2475 -0.2051 -0.7621
 6502TIP3   OH240996   2.902   5.447   3.678  0.4449  0.2036  0.7651
 6502TIP3    H140997   2.852   5.490   3.609  1.5914  0.5212  0.1204
 6502TIP3    H240998   2.938   5.368   3.637 -0.2706 -0.5094  1.4792
 6503TIP3   OH240999   2.113   0.670   6.752  0.1165 -1.3573 -0.1789
 6503TIP3    H141000   2.092   0.587   6.709 -1.3411 -1.6487  1.0647
 6503TIP3    H241001   2.041   0.684   6.814  0.3810  0.7913 -0.3188
 6504TIP3   OH241002   2.067   5.116   1.580 -0.1868 -0.0658  0.5436
 6504TIP3    H141003   2.077   5.209   1.558 -0.4331 -0.8740 -3.2543
 6504TIP3    H241004   2.157   5.082   1.582 -0.1439  0.0764  1.1921
 6505TIP3   OH241005   4.170   3.098  13.814 -0.5779  0.3663 -0.3627
 6505TIP3    H141006   4.114   3.046  13.871  1.0655 -0.0785  0.8717
 6505TIP3    H241007   4.139   3.188  13.826 -0.4141  0.2456  1.0528
 6506TIP3   OH241008   5.535   2.302  13.602  0.0376  0.3854  0.6212
 6506TIP3    H141009   5.449   2.289  13.642 -0.6855  0.0938 -0.9877
 6506TIP3    H241010   5.558   2.216  13.567  1.2112  0.3480  1.4844
 6507TIP3   OH241011   1.393   2.523  13.469  0.2200 -0.9689 -0.1974
 6507TIP3    H141012   1.333   2.545  13.540 -0.7830 -3.1732 -0.3303
 6507TIP3    H241013   1.338   2.522  13.390  1.0866  0.2440 -0.8470
 6508TIP3   OH241014   0.399   3.963  16.289 -0.2097  1.2965  0.1256
 6508TIP3    H141015   0.347   4.044  16.285  0.0895  1.4104 -1.9390
 6508TIP3    H241016   0.477   3.982  16.237  0.0533 -0.1805 -0.0394
 6509TIP3   OH241017   0.551   2.262   4.672  0.2043 -0.3112  0.2127
 6509TIP3    H141018   0.644   2.260   4.692  0.7928  0.9428 -2.1626
 6509TIP3    H241019   0.528   2.172   4.650  1.4379 -0.2204 -1.5471
 6510TIP3   OH241020   3.678   0.414   2.352 -0.2256 -0.0683  0.2590
 6510TIP3    H141021   3.603   0.451   2.398  0.6670 -0.6444  2.1959
 6510TIP3    H241022   3.655   0.321   2.340 -0.4425  0.0729 -0.4532
 6511TIP3   OH241023   2.769   1.996  14.467  0.0277 -0.7029 -0.4573
 6511TIP3    H141024   2.802   1.914  14.503 -0.0358 -0.9431 -0.9395
 6511TIP3    H241025   2.779   1.986  14.372 -2.5783 -1.3132 -0.7303
 6512TIP3   OH241026   2.573   6.416   6.404  0.4928  0.5094 -0.8633
 6512TIP3    H141027   2.582   6.325   6.430  0.6636  0.5431 -0.7987
 6512TIP3    H241028   2.551   6.414   6.311  0.9770  0.4142 -0.9778
 6513TIP3   OH241029   6.060   0.871  16.139 -0.2472  0.1996  0.0166
 6513TIP3    H141030   6.139   0.817  16.144 -0.2521 -0.0775 -2.4046
 6513TIP3    H241031   5.992   0.816  16.178  0.2208 -0.6478 -0.3291
 6514TIP3   OH241032   5.847   3.588  15.922  0.5154  0.2726 -0.0613
 6514TIP3    H141033   5.926   3.599  15.869  1.2795  0.7191  1.1412
 6514TIP3    H241034   5.806   3.508  15.889  2.3461 -0.8719  0.4007
 6515TIP3   OH241035   0.032   2.107   4.471  0.1207 -0.3342 -0.2987
 6515TIP3    H141036   0.042   2.111   4.566 -0.9354 -0.9463 -0.1580
 6515TIP3    H241037  -0.039   2.169   4.452  0.6658  0.1638 -0.7486
 6516TIP3   OH241038   3.645   2.881   2.420 -0.0159 -0.1994 -0.1743
 6516TIP3    H141039   3.647   2.847   2.510 -0.5927 -4.3274 -1.6101
 6516TIP3    H241040   3.735   2.906   2.402  0.9013 -2.9459  0.3433
 6517TIP3   OH241041   3.431   0.122   4.904 -0.1737 -0.7333  0.1418
 6517TIP3    H141042   3.400   0.050   4.849  1.1677 -2.4302  1.5502
 6517TIP3    H241043   3.525   0.107   4.912  0.2382  1.5237 -0.0004
 6518TIP3   OH241044   1.764   3.703   5.229  0.2154  0.1662  0.0476
 6518TIP3    H141045   1.742   3.669   5.143 -1.9293  0.3916  0.4757
 6518TIP3    H241046   1.795   3.627   5.278 -1.1940 -0.5115 -0.0898
 6519TIP3   OH241047   1.845   6.150  12.111  0.3645  0.1642 -0.3000
 6519TIP3    H141048   1.808   6.110  12.032  0.1586  1.3420 -0.8035
 6519TIP3    H241049   1.830   6.243  12.100 -0.4142  0.2762  1.5131
 6520TIP3   OH241050   5.784   4.564  16.431 -0.2307 -0.6553  0.4346
 6520TIP3    H141051   5.841   4.528  16.363 -0.9081 -0.9897  0.0464
 6520TIP3    H241052   5.769   4.655  16.403  0.9227 -0.2660  1.0631
 6521TIP3   OH241053   1.219   6.195   2.404 -0.1574 -0.8059  0.2976
 6521TIP3    H141054   1.315   6.204   2.404 -0.0549 -1.8755  0.3192
 6521TIP3    H241055   1.188   6.277   2.442  0.7336 -0.2799 -0.0819
 6522TIP3   OH241056   5.192   5.656   0.908 -0.2189  0.0521 -0.0365
 6522TIP3    H141057   5.245   5.722   0.953  0.0510 -0.4245  0.3506
 6522TIP3    H241058   5.236   5.574   0.927 -1.1993 -0.3707  0.4168
 6523TIP3   OH241059   0.637   5.735   0.567 -0.1966 -0.0528 -0.4329
 6523TIP3    H141060   0.542   5.747   0.570 -0.0276  1.9797 -1.6822
 6523TIP3    H241061   0.668   5.763   0.653 -0.7453 -0.8555  0.0252
 6524TIP3   OH241062   2.903   0.293   2.424  0.0741  0.0926 -0.3109
 6524TIP3    H141063   2.880   0.386   2.429  0.3963  0.1382  0.4413
 6524TIP3    H241064   2.870   0.256   2.506 -2.1397 -0.9363 -1.6071
 6525TIP3   OH241065   3.564   1.636  15.594 -0.4427 -0.0703  0.4181
 6525TIP3    H141066   3.494   1.643  15.659 -1.6361  2.1036 -1.0454
 6525TIP3    H241067   3.568   1.722  15.553  1.5144 -0.8634 -1.1654
 6526TIP3   OH241068   4.157   4.915  17.107  0.2700 -0.1660 -0.1405
 6526TIP3    H141069   4.072   4.911  17.062 -0.3481 -1.2094  1.0874
 6526TIP3    H241070   4.175   5.009  17.115  0.7850  0.0485 -3.2521
 6527TIP3   OH241071   2.817   6.190   1.849  0.2286 -0.1080 -0.0245
 6527TIP3    H141072   2.744   6.132   1.826  0.8416  0.0338 -2.4433
 6527TIP3    H241073   2.778   6.277   1.852  0.1921 -0.0867 -0.8845
 6528TIP3   OH241074   4.440   4.163  11.769 -0.2185  0.0860  0.0377
 6528TIP3    H141075   4.363   4.122  11.731 -1.4140 -1.0034  3.3837
 6528TIP3    H241076   4.408   4.246  11.805  0.6334  0.6054 -0.3772
 6529TIP3   OH241077   1.700   1.791   3.948 -0.1950  0.7113  0.0754
 6529TIP3    H141078   1.762   1.778   3.876 -0.4307  0.3626 -0.0621
 6529TIP3    H241079   1.644   1.714   3.946 -0.5574  0.9671  0.2775
 6530TIP3   OH241080   2.910   6.670  11.106 -0.4120 -0.1675  0.4399
 6530TIP3    H141081   2.930   6.739  11.042  0.8953 -0.7355  0.2348
 6530TIP3    H241082   2.994   6.649  11.146 -0.9044 -1.2400  0.9252
 6531TIP3   OH241083   5.292   0.079  10.666 -1.1235  0.5030  0.5003
 6531TIP3    H141084   5.329   0.154  10.620 -0.1387 -1.5044 -2.1242
 6531TIP3    H241085   5.201   0.075  10.636 -0.9858  0.2369  0.1238
 6532TIP3   OH241086   6.682   1.720   1.381  0.0724 -0.1743 -0.1505
 6532TIP3    H141087   6.773   1.699   1.356  0.0366 -0.0038 -0.4234
 6532TIP3    H241088   6.636   1.636   1.377  0.3305 -0.3502  0.4760
 6533TIP3   OH241089   2.490   3.423   0.672 -0.2666  0.2712 -0.2287
 6533TIP3    H141090   2.493   3.402   0.765  0.1643  0.0223 -0.3004
 6533TIP3    H241091   2.533   3.508   0.665  0.2674 -0.0052 -0.2886
 6534TIP3   OH241092   2.514   4.264  13.091 -0.2396  0.0288 -0.7582
 6534TIP3    H141093   2.504   4.210  13.169 -1.2639 -0.3994 -1.1717
 6534TIP3    H241094   2.498   4.204  13.018  0.9820  0.3598 -1.3191
 6535TIP3   OH241095   5.598   4.463  15.499  0.2728 -0.2654 -0.2713
 6535TIP3    H141096   5.622   4.384  15.548 -2.0048 -0.7179  0.1668
 6535TIP3    H241097   5.561   4.521  15.565 -2.4560 -0.7131 -1.3668
 6536TIP3   OH241098   2.269   4.414  14.306 -0.2446  0.1161  0.4032
 6536TIP3    H141099   2.338   4.350  14.321  0.9268  1.2092 -0.2503
 6536TIP3    H241100   2.305   4.473  14.241 -2.0991  0.2574 -0.5164
 6537TIP3   OH241101   3.435   5.764  15.804  0.3735  0.7521  0.0445
 6537TIP3    H141102   3.356   5.721  15.770  0.9191 -0.4255  0.2443
 6537TIP3    H241103   3.449   5.838  15.745 -0.4282  0.5131 -0.4631
 6538TIP3   OH241104   4.080   6.007  13.689  0.0272 -0.2793  0.5080
 6538TIP3    H141105   4.020   6.051  13.629 -0.4025 -0.6293  0.6834
 6538TIP3    H241106   4.074   6.058  13.770  0.8552  0.3932  0.1578
 6539TIP3   OH241107   1.163   6.415   2.941 -0.2853 -0.7212 -0.4297
 6539TIP3    H141108   1.105   6.344   2.914 -1.2288 -0.9307  1.9801
 6539TIP3    H241109   1.103   6.489   2.955  0.3152 -0.3149 -0.0231
 6540TIP3   OH241110   0.495   1.193   5.475  0.1518 -0.1157 -0.5868
 6540TIP3    H141111   0.527   1.125   5.416  3.3701  1.5054 -0.8158
 6540TIP3    H241112   0.456   1.259   5.417 -1.2028 -0.8220 -0.5012
 6541TIP3   OH241113   3.270   5.395  15.183 -0.2139 -0.1915 -0.5391
 6541TIP3    H141114   3.175   5.398  15.173 -0.1792 -2.0819 -1.8228
 6541TIP3    H241115   3.289   5.456  15.254 -2.3957  0.1340 -0.2009
 6542TIP3   OH241116   3.616   2.344   0.769  0.2521 -0.1924  0.0670
 6542TIP3    H141117   3.523   2.347   0.747 -0.0181 -1.9269  0.8570
 6542TIP3    H241118   3.636   2.432   0.803 -1.4037 -0.1810  1.0572
 6543TIP3   OH241119   2.307   5.599  14.493  0.0524  0.0107  0.4012
 6543TIP3    H141120   2.391   5.591  14.449 -0.1497  0.3958 -0.0622
 6543TIP3    H241121   2.257   5.660  14.438 -0.3056  0.2664  1.0053
 6544TIP3   OH241122   5.201   5.840  10.074  0.3006  0.1913 -0.8019
 6544TIP3    H141123   5.118   5.887  10.066  0.0970  0.0586  0.4822
 6544TIP3    H241124   5.187   5.778  10.145  1.0316 -0.8504 -1.5474
 6545TIP3   OH241125   1.273   2.042   0.631 -0.2507 -0.5700 -0.2410
 6545TIP3    H141126   1.265   2.131   0.597  0.4107 -1.0803 -1.7750
 6545TIP3    H241127   1.335   2.051   0.704 -1.5062  0.4955  0.7179
 6546TIP3   OH241128   2.855   6.004  13.541  0.2082 -0.4265  0.4012
 6546TIP3    H141129   2.893   6.053  13.613 -0.5559 -1.1894  1.3299
 6546TIP3    H241130   2.766   6.037  13.534  0.4502  0.0420 -0.5649
 6547TIP3   OH241131   4.223   5.933  15.400 -0.2702 -0.2431  0.4831
 6547TIP3    H141132   4.303   5.977  15.428 -0.1690 -1.0832  1.5880
 6547TIP3    H241133   4.154   5.998  15.412  0.1024  0.1451  0.5364
 6548TIP3   OH241134   6.377   1.241   4.547 -0.4789  0.2863  0.4374
 6548TIP3    H141135   6.440   1.248   4.476 -0.3025  1.1765  0.6681
 6548TIP3    H241136   6.368   1.331   4.580 -1.0493 -0.0075  1.1077
 6549TIP3   OH241137   1.577   0.540  15.893  0.2098 -0.3956 -0.8106
 6549TIP3    H141138   1.520   0.469  15.924 -0.5336  0.2909 -0.5673
 6549TIP3    H241139   1.539   0.619  15.932  0.8873  0.1601 -1.2725
 6550TIP3   OH241140   3.115   5.095  16.427 -0.7030 -0.1119  0.8733
 6550TIP3    H141141   3.131   5.013  16.474  0.1318 -0.7334 -0.4705
 6550TIP3    H241142   3.194   5.147  16.443 -0.0611 -0.6449 -0.4810
 6551TIP3   OH241143   4.838   3.895  14.743 -0.0023 -0.6873  0.5180
 6551TIP3    H141144   4.755   3.941  14.742  0.8397  0.9004 -2.8838
 6551TIP3    H241145   4.833   3.834  14.669  1.1154 -2.0231  1.4926
 6552TIP3   OH241146   4.697   5.577   4.718 -0.1116 -0.0926  0.0955
 6552TIP3    H141147   4.616   5.629   4.716  0.6756  1.1267 -2.1083
 6552TIP3    H241148   4.763   5.636   4.752  0.2282 -0.5193  0.1830
 6553TIP3   OH241149   6.141   0.425  13.165  0.1337  0.1262 -0.6751
 6553TIP3    H141150   6.192   0.506  13.161  0.5683 -0.1272 -0.3948
 6553TIP3    H241151   6.117   0.416  13.257  0.7146 -0.4352 -0.5683
 6554TIP3   OH241152   2.948   6.406   2.712  0.2570  0.5043  0.2552
 6554TIP3    H141153   2.857   6.386   2.692  0.0525  1.2173  0.4412
 6554TIP3    H241154   2.999   6.361   2.645 -0.2141 -0.2169  0.3856
 6555TIP3   OH241155   4.425   3.788  15.665 -0.0621 -0.0348 -0.0760
 6555TIP3    H141156   4.345   3.825  15.701 -0.0329  1.6938 -1.7377
 6555TIP3    H241157   4.395   3.714  15.612 -0.6592  0.9896 -1.2118
 6556TIP3   OH241158   6.226   6.762   1.253  0.0193 -0.0929  0.4780
 6556TIP3    H141159   6.201   6.816   1.329  1.5459  0.8519  0.3163
 6556TIP3    H241160   6.293   6.813   1.208 -2.0102  0.1360 -2.4678
 6557TIP3   OH241161   1.716   2.084  16.584  0.1150 -0.3059 -0.3994
 6557TIP3    H141162   1.681   2.168  16.614  0.7497 -0.0824 -0.2968
 6557TIP3    H241163   1.684   2.020  16.648  1.5830  0.1811  0.8450
 6558TIP3   OH241164   5.760   2.795  13.783 -0.0239 -0.2596 -0.4084
 6558TIP3    H141165   5.724   2.773  13.869 -0.5423 -0.1719 -0.5993
 6558TIP3    H241166   5.709   2.742  13.721 -0.1603  0.2323 -0.7219
 6559TIP3   OH241167   2.409   0.082   4.885 -0.2539 -0.4687 -0.3818
 6559TIP3    H141168   2.450  -0.004   4.895  0.1544 -0.2785 -0.3970
 6559TIP3    H241169   2.481   0.140   4.861 -0.2611  0.1631  1.0429
 6560TIP3   OH241170   6.061   0.784  14.997 -0.0803 -0.0817  0.4805
 6560TIP3    H141171   5.979   0.737  14.992 -0.3281  0.5098 -1.1841
 6560TIP3    H241172   6.036   0.876  15.002  0.4570  0.0362  1.1834
 6561TIP3   OH241173   6.470   0.073  16.699  0.1627  0.5311 -0.2938
 6561TIP3    H141174   6.436   0.159  16.673  0.0853  0.7010  0.3534
 6561TIP3    H241175   6.541   0.093  16.759  0.0084  0.1361  0.0208
 6562TIP3   OH241176   5.016   2.658  12.568  0.5159 -0.2135 -0.7013
 6562TIP3    H141177   5.073   2.689  12.499  0.2802 -0.2484 -0.9123
 6562TIP3    H241178   4.938   2.625  12.523  0.8587 -1.3250 -0.5006
 6563TIP3   OH241179   3.192   3.108  12.610 -0.1112  0.1280 -0.3710
 6563TIP3    H141180   3.132   3.168  12.567 -1.9062 -1.2805  0.0987
 6563TIP3    H241181   3.135   3.047  12.657  1.6289 -2.4413 -1.4919
 6564TIP3   OH241182   2.080   2.936   4.192 -0.2434  0.1722  0.1769
 6564TIP3    H141183   2.077   3.032   4.185 -0.0419 -0.0004 -2.8023
 6564TIP3    H241184   2.011   2.915   4.255 -1.1995  2.1969 -0.1441
 6565TIP3   OH241185   5.552   5.299  14.057  0.1362  1.0550  0.5200
 6565TIP3    H141186   5.516   5.343  14.135  0.6230  0.3774  1.1385
 6565TIP3    H241187   5.618   5.239  14.092 -0.5703 -0.2206 -0.2966
 6566TIP3   OH241188   6.003   2.073  12.312  0.9618 -0.5607  0.0055
 6566TIP3    H141189   5.944   2.011  12.268 -0.6616  1.0976 -0.2002
 6566TIP3    H241190   6.082   2.072  12.259 -0.3707  0.1799 -2.0381
 6567TIP3   OH241191   0.148   6.206   6.170 -0.1568 -0.1426 -0.2389
 6567TIP3    H141192   0.090   6.276   6.141 -1.4707 -1.7531 -1.5442
 6567TIP3    H241193   0.221   6.209   6.109 -0.2306  0.0328 -0.3193
 6568TIP3   OH241194   1.144   0.082  17.167 -0.6563  0.1017 -0.2950
 6568TIP3    H141195   1.215   0.106  17.108 -0.6512  1.5695  0.2821
 6568TIP3    H241196   1.122   0.164  17.212 -1.0342 -0.8623  1.3147
 6569TIP3   OH241197   4.477   4.468  16.997  0.3024  0.4918 -0.0700
 6569TIP3    H141198   4.408   4.508  17.049  0.1501  0.7949 -0.5040
 6569TIP3    H241199   4.493   4.529  16.925  0.8355  0.2983 -0.1249
 6570TIP3   OH241200   0.986   0.480   2.271 -0.1942  0.3105 -1.0140
 6570TIP3    H141201   1.071   0.520   2.255 -0.1829 -0.3964 -2.8814
 6570TIP3    H241202   0.927   0.554   2.288  0.4727  0.9100 -1.2966
 6571TIP3   OH241203   4.953   1.556   0.488  0.1620  0.4824 -0.4601
 6571TIP3    H141204   4.860   1.543   0.506 -0.0031  2.0278 -0.0932
 6571TIP3    H241205   4.993   1.562   0.575  0.4988  0.5031 -0.6165
 6572TIP3   OH241206   3.468   6.431   2.793 -0.4906 -0.4096 -0.4170
 6572TIP3    H141207   3.494   6.340   2.807  0.8969 -0.3334 -2.2453
 6572TIP3    H241208   3.482   6.445   2.699 -0.4488  1.7545 -0.1102
 6573TIP3   OH241209   5.701   5.304   6.491 -0.3263 -0.1319  0.2482
 6573TIP3    H141210   5.697   5.372   6.424  0.4986 -0.8690 -0.5586
 6573TIP3    H241211   5.794   5.294   6.510 -0.4601 -0.8819  0.5238
 6574TIP3   OH241212   6.497   1.431   2.795 -0.5708  0.0540  0.2699
 6574TIP3    H141213   6.500   1.526   2.811  1.0658  0.0911 -0.2009
 6574TIP3    H241214   6.415   1.418   2.747 -2.2443  0.8172  2.8003
 6575TIP3   OH241215   1.379   2.195  15.542  0.3559  0.2063  0.6111
 6575TIP3    H141216   1.292   2.171  15.573  0.5725 -0.8654  0.4172
 6575TIP3    H241217   1.439   2.162  15.609  0.7057 -0.4537 -0.0167
 6576TIP3   OH241218   3.249   1.949   3.242  0.2864  0.1847 -0.6781
 6576TIP3    H141219   3.159   1.921   3.257  0.4419 -0.8266 -1.5515
 6576TIP3    H241220   3.253   1.968   3.148  0.7569  1.0667 -0.4821
 6577TIP3   OH241221   0.716   4.246   0.226  0.0051 -0.3245 -0.2507
 6577TIP3    H141222   0.726   4.269   0.134  0.0496  0.4418 -0.0612
 6577TIP3    H241223   0.795   4.195   0.247 -0.0455 -0.5679 -0.6563
 6578TIP3   OH241224   2.275   0.950   3.248  0.0506  0.1085  0.1285
 6578TIP3    H141225   2.198   0.952   3.306  0.4599  1.4176  0.6508
 6578TIP3    H241226   2.266   0.868   3.199  0.1655 -1.4801  2.6804
 6579TIP3   OH241227   5.557   3.917   0.941 -0.4324 -0.3468 -0.0832
 6579TIP3    H141228   5.557   4.006   0.906 -1.3064  0.2168  1.3210
 6579TIP3    H241229   5.616   3.869   0.883 -0.8981  0.8505 -1.5953
 6580TIP3   OH241230   4.796   0.323   5.574 -0.1412 -0.6700  0.6459
 6580TIP3    H141231   4.842   0.378   5.637  1.9224  0.3860 -1.7291
 6580TIP3    H241232   4.864   0.287   5.518 -1.9232 -1.5498 -1.0476
 6581TIP3   OH241233   3.736   5.174  12.763 -0.0316  0.3007  0.0370
 6581TIP3    H141234   3.831   5.176  12.756  0.0454 -1.3381  0.3474
 6581TIP3    H241235   3.705   5.182  12.673  0.4382 -0.1224 -0.1698
 6582TIP3   OH241236   1.375   1.553  13.837  0.0639  0.3260  0.2410
 6582TIP3    H141237   1.411   1.496  13.770 -0.6784 -0.3494  0.3928
 6582TIP3    H241238   1.436   1.546  13.910 -0.7789 -1.4733  0.8099
 6583TIP3   OH241239   3.567   4.385  14.265 -0.1512 -0.0795 -0.3267
 6583TIP3    H141240   3.516   4.459  14.234  0.1777 -0.1669 -1.0763
 6583TIP3    H241241   3.503   4.314  14.275 -0.8055  0.8267  2.2253
 6584TIP3   OH241242   1.447   2.153   3.989  0.0390  0.1383 -0.0637
 6584TIP3    H141243   1.360   2.188   3.970  0.5539  0.5613 -1.7244
 6584TIP3    H241244   1.482   2.212   4.056 -0.5288  0.6262 -0.1918
 6585TIP3   OH241245   5.401   0.160  14.134  0.0895 -0.3964  0.2364
 6585TIP3    H141246   5.407   0.067  14.156 -0.3342 -0.9593 -1.8625
 6585TIP3    H241247   5.471   0.201  14.185  0.8339 -1.9980  0.5578
 6586TIP3   OH241248   1.558   2.219   1.465  0.3632  0.0391  0.5472
 6586TIP3    H141249   1.503   2.291   1.495  0.9975  0.3625  0.9364
 6586TIP3    H241250   1.518   2.141   1.505  0.2452  0.2817  0.9094
 6587TIP3   OH241251   3.162   6.030  15.626  0.0584 -0.6105  0.1624
 6587TIP3    H141252   3.222   5.956  15.632  1.4500  0.5152  0.4301
 6587TIP3    H241253   3.203   6.098  15.680 -1.6736  0.0457  0.6896
 6588TIP3   OH241254   4.752   6.376   0.766  0.2454 -0.0257 -0.4526
 6588TIP3    H141255   4.842   6.409   0.753  0.4606 -0.3168  0.2726
 6588TIP3    H241256   4.696   6.448   0.737  0.7158  0.2305 -0.7311
 6589TIP3   OH241257   4.475   4.533  16.175  0.1456 -0.0618  0.5396
 6589TIP3    H141258   4.432   4.583  16.244 -1.8039 -0.2774 -0.5010
 6589TIP3    H241259   4.415   4.536  16.101  1.0961 -1.8763 -0.3515
 6590TIP3   OH241260   3.209   2.226  14.378 -0.2159 -0.2267  0.1915
 6590TIP3    H141261   3.119   2.246  14.403  0.0999 -0.3390  1.4274
 6590TIP3    H241262   3.213   2.131  14.373 -1.1246 -0.1420 -3.4993
 6591TIP3   OH241263   1.460   4.700  14.369 -0.5861 -0.4317 -0.2773
 6591TIP3    H141264   1.491   4.628  14.424 -0.8517  0.2419  0.7823
 6591TIP3    H241265   1.392   4.742  14.422 -0.1832  0.8113 -0.7359
 6592TIP3   OH241266   0.651   2.368  14.794 -0.6334  0.2830  0.0694
 6592TIP3    H141267   0.604   2.433  14.845 -0.5895 -0.0869  0.5908
 6592TIP3    H241268   0.714   2.331  14.855  1.2212  1.6608 -0.9642
 6593TIP3   OH241269   6.077   6.469  16.180  0.4504 -0.8644 -0.0588
 6593TIP3    H141270   6.105   6.555  16.149  1.1234 -1.0644 -0.0139
 6593TIP3    H241271   6.030   6.430  16.106  1.2753 -0.9799 -0.5217
 6594TIP3   OH241272   0.590   1.095   0.418  0.6243  0.5508  0.1685
 6594TIP3    H141273   0.533   1.070   0.491  1.8054  0.3470  1.0394
 6594TIP3    H241274   0.597   1.016   0.364  1.5003  0.0275  1.0226
 6595TIP3   OH241275   4.230   1.734   1.307 -0.3832  0.0551  0.2341
 6595TIP3    H141276   4.262   1.699   1.224 -0.7695  0.4908 -0.1014
 6595TIP3    H241277   4.304   1.782   1.344  0.3737 -1.7052  1.0347
 6596TIP3   OH241278   5.882   5.748  14.788  0.2075 -0.2143  0.5335
 6596TIP3    H141279   5.831   5.807  14.732 -0.3193 -0.9833  0.1949
 6596TIP3    H241280   5.862   5.777  14.877  1.5770  1.4410  0.3228
 6597TIP3   OH241281   5.502   3.127   3.230  0.0631  0.0342  0.8076
 6597TIP3    H141282   5.498   3.073   3.309 -0.9471 -0.9018  0.1215
 6597TIP3    H241283   5.593   3.159   3.228  0.2563 -0.4130  2.0215
 6598TIP3   OH241284   3.323   6.124   4.981 -0.1765  0.9724  0.3212
 6598TIP3    H141285   3.238   6.122   4.936 -0.0755 -0.6249  0.1718
 6598TIP3    H241286   3.336   6.216   5.004 -0.3982  1.7669 -2.5909
 6599TIP3   OH241287   1.764   2.593   4.827  0.4570  0.0440 -0.1495
 6599TIP3    H141288   1.828   2.577   4.758  0.2258 -2.0018  0.0729
 6599TIP3    H241289   1.680   2.595   4.782  0.3882 -0.4468 -0.0485
 6600TIP3   OH241290   1.557   5.646   1.462 -0.5084  1.0892 -0.1626
 6600TIP3    H141291   1.610   5.610   1.532  0.5871  0.3951 -1.3185
 6600TIP3    H241292   1.615   5.646   1.386 -2.0946  0.4795 -1.4069
 6601TIP3   OH241293   6.818   0.547   1.080  0.8728 -0.7987  0.1356
 6601TIP3    H141294   6.825   0.478   1.014 -0.9340  2.6565 -3.8442
 6601TIP3    H241295   6.907   0.583   1.086  1.5868 -2.6933  1.4715
 6602TIP3   OH241296   1.751   3.563   4.181 -0.4740 -0.0208  0.4359
 6602TIP3    H141297   1.736   3.585   4.089 -0.1749 -0.5369  0.2625
 6602TIP3    H241298   1.667   3.579   4.224 -0.4504  0.7867  0.1824
 6603TIP3   OH241299   2.524   2.014   2.906 -0.1160 -0.0599  0.2997
 6603TIP3    H141300   2.537   1.942   2.969  1.1302  0.4721  0.6628
 6603TIP3    H241301   2.539   1.973   2.821  0.2778 -0.2975  0.4815
 6604TIP3   OH241302   2.276   1.194  17.156 -0.2964  0.5157  0.1591
 6604TIP3    H141303   2.321   1.217  17.075  0.5838  0.4876  0.6368
 6604TIP3    H241304   2.340   1.213  17.225  0.1924 -2.6375  0.6364
 6605TIP3   OH241305   5.785   5.878   1.591 -0.0840  0.3829 -0.3682
 6605TIP3    H141306   5.829   5.886   1.506  0.1522 -0.3326 -0.3215
 6605TIP3    H241307   5.836   5.811   1.637 -2.0573 -1.5053 -0.8543
 6606TIP3   OH241308   5.588   6.715   3.290 -0.0171  0.2744 -0.0385
 6606TIP3    H141309   5.661   6.703   3.229 -0.8938  0.2638 -1.1072
 6606TIP3    H241310   5.583   6.810   3.303 -1.1985  0.4857 -1.7413
 6607TIP3   OH241311   6.628   3.621  14.924  0.1286 -0.3838  0.9720
 6607TIP3    H141312   6.538   3.618  14.956  0.3571  0.8160  1.7140
 6607TIP3    H241313   6.623   3.674  14.844  0.1446 -0.5112  0.8847
 6608TIP3   OH241314   3.829   5.076   6.011 -0.2548  0.1129  0.0020
 6608TIP3    H141315   3.761   5.014   6.037 -1.2768  1.5458  0.7949
 6608TIP3    H241316   3.822   5.148   6.074  1.0706  0.9321 -0.7571
 6609TIP3   OH241317   3.720   0.584   6.775  0.1118  0.0524  0.0299
 6609TIP3    H141318   3.736   0.540   6.692  1.3456  0.3239  0.1219
 6609TIP3    H241319   3.633   0.553   6.802 -0.3003 -0.0182 -1.3553
 6610TIP3   OH241320   4.316   1.379  14.338 -0.0394  0.2524  0.7237
 6610TIP3    H141321   4.323   1.474  14.348 -3.4640  0.4260  2.2080
 6610TIP3    H241322   4.235   1.357  14.384 -0.5653 -3.0950 -1.6981
 6611TIP3   OH241323   5.449   2.338  15.442 -0.3113 -0.3873  0.8867
 6611TIP3    H141324   5.358   2.365  15.449 -0.2750 -0.2704  0.9178
 6611TIP3    H241325   5.466   2.289  15.523 -0.4067 -0.5911  0.7832
 6612TIP3   OH241326   3.881   1.834  12.303 -0.0260  0.6281 -0.5312
 6612TIP3    H141327   3.813   1.777  12.268 -0.3787  0.3116  0.6466
 6612TIP3    H241328   3.857   1.922  12.275 -0.6634  0.4615 -0.4994
 6613TIP3   OH241329   3.241   2.364   4.594 -0.3924 -1.0539  0.9418
 6613TIP3    H141330   3.292   2.431   4.639  2.0530 -1.4632 -1.0721
 6613TIP3    H241331   3.264   2.375   4.501 -0.6738 -4.0316  0.4613
 6614TIP3   OH241332   3.805   0.095   5.493 -0.0136  0.2354 -0.1612
 6614TIP3    H141333   3.762   0.181   5.485 -1.0577 -0.2099  0.5704
 6614TIP3    H241334   3.899   0.116   5.495 -0.1482  1.1706 -2.3933
 6615TIP3   OH241335   1.596   5.556   6.494 -0.5499 -0.2874  0.4417
 6615TIP3    H141336   1.651   5.547   6.416  0.3183 -0.3401  1.0521
 6615TIP3    H241337   1.511   5.520   6.468 -0.0960 -0.8442 -0.2913
 6616TIP3   OH241338   1.848   4.143   5.220 -0.0263 -0.1155  0.2817
 6616TIP3    H141339   1.859   4.096   5.137 -0.6977 -1.0003  0.6799
 6616TIP3    H241340   1.759   4.120   5.248 -0.1654  0.9750  0.7534
 6617TIP3   OH241341   3.048   3.431  12.265  0.1887  0.2406  0.2958
 6617TIP3    H141342   2.995   3.423  12.186  0.6912 -0.1050 -0.0076
 6617TIP3    H241343   3.055   3.526  12.279  1.2524  0.3466 -0.8661
 6618TIP3   OH241344   0.101   2.670   4.086  0.6402 -0.2160  0.9314
 6618TIP3    H141345   0.128   2.579   4.095  0.1245 -0.2884  1.7779
 6618TIP3    H241346   0.013   2.673   4.124  0.3877  0.4961  0.3024
 6619TIP3   OH241347   4.605   6.792   3.853  0.1345  0.1027 -0.6308
 6619TIP3    H141348   4.674   6.803   3.919 -1.1669 -0.9691  0.9492
 6619TIP3    H241349   4.640   6.835   3.775  2.1417  0.5128  0.4469
 6620TIP3   OH241350   4.644   4.293   3.273  0.4207  0.0525 -0.4006
 6620TIP3    H141351   4.685   4.207   3.285  2.3057  0.8870 -0.7235
 6620TIP3    H241352   4.592   4.306   3.353 -0.6893 -1.8004 -0.7883
 6621TIP3   OH241353   0.938   4.484   2.106  0.3322  0.5455  0.6074
 6621TIP3    H141354   0.849   4.517   2.120  0.3857 -0.0576  2.5693
 6621TIP3    H241355   0.989   4.562   2.086 -0.5065  0.9935  0.1748
 6622TIP3   OH241356   3.895   1.091   2.323  0.2403  0.2356  0.0597
 6622TIP3    H141357   3.843   1.100   2.403  1.5049 -0.5429  0.9640
 6622TIP3    H241358   3.980   1.129   2.344  1.5029 -2.4806 -0.0252
 6623TIP3   OH241359   6.091   5.759   0.842  0.3560  0.0571 -1.0667
 6623TIP3    H141360   6.135   5.683   0.879 -1.2481 -0.4609 -0.1650
 6623TIP3    H241361   6.081   5.740   0.749  1.7918  0.0785 -1.2322
 6624TIP3   OH241362   3.484   5.188  10.292  0.3988 -0.6677 -0.2492
 6624TIP3    H141363   3.473   5.097  10.322  0.6968 -0.6508 -0.0920
 6624TIP3    H241364   3.421   5.238  10.344  1.1821 -0.5782  0.6426
 6625TIP3   OH241365   0.691   0.680   3.417  0.2586 -0.0331  0.2374
 6625TIP3    H141366   0.648   0.645   3.495 -1.8543  1.4511 -0.2011
 6625TIP3    H241367   0.620   0.692   3.354  1.4142  1.8919 -0.7568
 6626TIP3   OH241368   5.900   5.150   5.222 -0.4936  1.0602 -0.1633
 6626TIP3    H141369   5.840   5.209   5.176 -1.6300 -0.0216 -0.1064
 6626TIP3    H241370   5.886   5.170   5.315 -3.2595 -1.4823  0.0320
 6627TIP3   OH241371   6.217   1.642  12.407  0.1809  0.0301  0.6349
 6627TIP3    H141372   6.271   1.582  12.355  1.0968  1.7372 -0.4274
 6627TIP3    H241373   6.146   1.667  12.348  0.8562  1.4599  0.4079
 6628TIP3   OH241374   0.865   2.396  10.953 -0.3794  0.1999 -0.2879
 6628TIP3    H141375   0.878   2.487  10.980 -1.1339  0.1107  0.4010
 6628TIP3    H241376   0.782   2.371  10.993  0.6395 -1.3108  0.9247
 6629TIP3   OH241377   2.465   6.065  16.220  0.4894 -0.1753  0.2114
 6629TIP3    H141378   2.527   5.993  16.210  0.7734  0.3173 -1.6634
 6629TIP3    H241379   2.515   6.144  16.196  0.0055  0.5859  1.6327
 6630TIP3   OH241380   1.709   3.144   4.932  0.4044 -0.5255  0.2888
 6630TIP3    H141381   1.668   3.192   4.860  3.3553  1.1191 -0.3804
 6630TIP3    H241382   1.659   3.170   5.010  0.7352  2.1865 -0.3580
 6631TIP3   OH241383   2.292   3.342   3.950  0.0280 -0.3104  0.7701
 6631TIP3    H141384   2.223   3.383   4.002  0.5360  0.3019  0.9699
 6631TIP3    H241385   2.253   3.261   3.917 -1.2125  0.6583 -0.1726
 6632TIP3   OH241386   2.382   2.822  13.170  0.0471 -0.0475  0.0532
 6632TIP3    H141387   2.464   2.795  13.212  2.0342  1.5491 -2.5848
 6632TIP3    H241388   2.349   2.893  13.225  1.2655  0.3068  0.3505
 6633TIP3   OH241389   2.339   1.795   1.154  0.1429  0.3585  0.3901
 6633TIP3    H141390   2.308   1.726   1.095 -1.4060  1.2223  0.1683
 6633TIP3    H241391   2.327   1.757   1.242  0.0744  0.0205  0.2379
 6634TIP3   OH241392   1.811   4.825  14.976  0.0095  0.4100 -0.2269
 6634TIP3    H141393   1.831   4.860  14.890  0.2149  2.0054  0.4531
 6634TIP3    H241394   1.746   4.885  15.012 -1.5351 -1.3273 -0.0217
 6635TIP3   OH241395   4.073   0.390  15.158  0.1671  0.1642 -0.3274
 6635TIP3    H141396   4.112   0.412  15.243  1.5320 -0.7795 -0.6980
 6635TIP3    H241397   4.147   0.383  15.098 -0.5544 -1.6116 -1.0530
 6636TIP3   OH241398   5.896   2.196  14.395 -0.7675  0.9163 -0.3086
 6636TIP3    H141399   5.831   2.181  14.464  1.5892 -0.7505  1.6538
 6636TIP3    H241400   5.859   2.154  14.317 -0.7402 -2.7686  1.5423
 6637TIP3   OH241401   1.864   5.214   3.050  0.0282  0.0812  0.3097
 6637TIP3    H141402   1.850   5.227   2.956 -0.0618 -3.3099 -0.1900
 6637TIP3    H241403   1.825   5.129   3.069  1.7943 -0.1830  3.0383
 6638TIP3   OH241404   3.932   0.460   5.587 -0.7306 -0.0866  0.1928
 6638TIP3    H141405   3.917   0.391   5.651 -0.3747 -2.3904 -2.1380
 6638TIP3    H241406   3.848   0.472   5.543 -0.6123  0.4937  0.1120
 6639TIP3   OH241407   3.228   1.538  15.083  0.2414 -0.0068 -0.0495
 6639TIP3    H141408   3.232   1.443  15.069 -0.0437  0.0270 -0.3810
 6639TIP3    H241409   3.257   1.576  15.000 -0.2129  0.1963 -0.1184
 6640TIP3   OH241410   4.965   1.416  16.204  0.5765  0.0378  0.6405
 6640TIP3    H141411   4.909   1.362  16.147 -1.2624  1.8871  0.6245
 6640TIP3    H241412   5.001   1.482  16.145 -1.2360  1.8874  1.5482
 6641TIP3   OH241413   5.831   0.685  10.600 -0.5733 -0.1230 -0.1063
 6641TIP3    H141414   5.772   0.702  10.527 -0.0290  1.3715 -0.2216
 6641TIP3    H241415   5.842   0.590  10.601 -1.1544 -0.2092 -1.5160
 6642TIP3   OH241416   2.429   4.150   2.773  0.0257  0.8202 -0.7043
 6642TIP3    H141417   2.348   4.105   2.793 -1.3706  2.8325 -1.6490
 6642TIP3    H241418   2.453   4.119   2.686 -0.0130  0.6243 -0.6450
 6643TIP3   OH241419   2.289   4.015  16.466  0.2769  0.4602 -0.1582
 6643TIP3    H141420   2.208   4.036  16.419  0.7814  0.7448 -0.9200
 6643TIP3    H241421   2.271   4.038  16.557 -1.5725 -2.4043  0.2748
 6644TIP3   OH241422   1.458   3.965  14.385  0.2213 -0.4677  0.2258
 6644TIP3    H141423   1.451   3.997  14.295  0.3859  0.1825  0.4369
 6644TIP3    H241424   1.530   3.902  14.383 -1.2421 -2.1347 -0.5475
 6645TIP3   OH241425   4.683   2.644  17.248 -0.1729  0.2378  0.6104
 6645TIP3    H141426   4.760   2.674  17.296 -0.5186 -0.2643  1.4962
 6645TIP3    H241427   4.645   2.576  17.305 -0.1486 -0.9176 -0.7292
 6646TIP3   OH241428   2.030   5.729  15.770 -0.0997  0.0470 -0.6585
 6646TIP3    H141429   2.033   5.646  15.817 -0.5567 -0.1626 -1.0028
 6646TIP3    H241430   2.115   5.735  15.727  0.7196  0.7214  1.0129
 6647TIP3   OH241431   1.474   6.637   0.591  0.1268  0.3002  0.5629
 6647TIP3    H141432   1.556   6.662   0.548 -0.6008  1.6900 -0.0258
 6647TIP3    H241433   1.474   6.541   0.588  0.9719  0.3271 -0.8501
 6648TIP3   OH241434   2.594   6.448  12.270 -0.0225  0.0324  0.4044
 6648TIP3    H141435   2.530   6.380  12.249  0.3671  0.3928 -2.0162
 6648TIP3    H241436   2.664   6.402  12.317  0.9849 -1.5744 -2.5521
 6649TIP3   OH241437   5.511   6.337  15.239  0.4983 -0.1836 -0.6427
 6649TIP3    H141438   5.462   6.415  15.265  2.4275 -0.0857  2.8881
 6649TIP3    H241439   5.564   6.366  15.165  1.4802  2.0002  0.8680
 6650TIP3   OH241440   3.980   0.295  15.559  0.0166 -0.1138 -0.3190
 6650TIP3    H141441   4.016   0.315  15.645  1.5864  0.1008 -1.0134
 6650TIP3    H241442   3.885   0.288  15.574  0.1652  0.8880  1.2297
 6651TIP3   OH241443   5.702   0.141   5.535  0.3235 -0.2296  0.1921
 6651TIP3    H141444   5.739   0.053   5.529 -0.3362 -0.3893 -1.8906
 6651TIP3    H241445   5.711   0.165   5.627  1.6137 -1.9901  0.5454
 6652TIP3   OH241446   6.147   5.004  13.437  0.2676 -0.3448 -0.2887
 6652TIP3    H141447   6.122   5.091  13.469 -2.9439 -1.7242  1.0779
 6652TIP3    H241448   6.150   5.014  13.342 -0.9248  1.0248 -0.2022
 6653TIP3   OH241449   1.701   5.071  14.373 -0.5508  0.0869 -0.3187
 6653TIP3    H141450   1.720   5.003  14.438 -1.7749 -1.2081 -1.2753
 6653TIP3    H241451   1.615   5.105  14.399 -0.3185  0.6805 -0.3313
 6654TIP3   OH241452   0.768   6.372  15.130  0.3562  0.2234  0.1549
 6654TIP3    H141453   0.786   6.446  15.071 -0.3336 -0.2265 -0.6243
 6654TIP3    H241454   0.841   6.312  15.115  0.1039  0.0400 -0.3586
 6655TIP3   OH241455   1.685   5.489   6.244 -0.2713 -0.0496  0.7907
 6655TIP3    H141456   1.657   5.531   6.162  1.6929  1.7285  0.9789
 6655TIP3    H241457   1.625   5.415   6.255 -0.1495 -0.7299 -2.6073
 6656TIP3   OH241458   0.563   3.440  15.230 -0.9345 -0.2392 -0.4098
 6656TIP3    H141459   0.471   3.466  15.244 -0.7182  0.1167  0.3890
 6656TIP3    H241460   0.614   3.514  15.265 -0.3477 -0.3677 -0.9942
 6657TIP3   OH241461   0.760   2.250  16.900  0.7527 -0.0991 -0.2785
 6657TIP3    H141462   0.734   2.307  16.973  0.3693 -0.1992 -0.3411
 6657TIP3    H241463   0.683   2.197  16.882  0.9288 -0.2466 -0.5992
 6658TIP3   OH241464   3.270   5.574  16.357  0.1852 -0.5527  0.3069
 6658TIP3    H141465   3.208   5.586  16.285  0.4778 -1.1926 -0.0593
 6658TIP3    H241466   3.355   5.563  16.314  0.6895  1.1717  0.8361
 6659TIP3   OH241467   3.467   5.970  15.610  0.5075 -1.1310  0.0169
 6659TIP3    H141468   3.540   6.001  15.558 -0.8862  0.2327 -1.1755
 6659TIP3    H241469   3.417   5.914  15.550 -2.5055  2.4691 -1.0028
 6660TIP3   OH241470   2.678   2.863   5.602  0.1786 -0.4583  0.0038
 6660TIP3    H141471   2.719   2.889   5.520  1.0061 -0.1466  0.5127
 6660TIP3    H241472   2.588   2.895   5.596  1.4429  3.5475  1.0777
 6661TIP3   OH241473   4.542   0.558  16.145 -0.4474  0.5150 -0.1560
 6661TIP3    H141474   4.553   0.600  16.060  1.6999  0.5496  0.1062
 6661TIP3    H241475   4.625   0.573  16.191 -1.6125  0.6145  2.0091
 6662TIP3   OH241476   0.328   1.076   3.690 -0.1140  0.8301  0.8582
 6662TIP3    H141477   0.359   1.011   3.753 -2.2066 -0.9745  0.0613
 6662TIP3    H241478   0.259   1.123   3.736  0.1182  1.2495  0.7810
 6663TIP3   OH241479   0.127   4.232  11.969  0.1686 -0.0047 -0.2888
 6663TIP3    H141480   0.065   4.168  12.005 -0.8214  1.2759  0.3322
 6663TIP3    H241481   0.203   4.179  11.943 -0.5873 -1.4204  0.2827
 6664TIP3   OH241482   0.492   4.083  15.698 -0.7239 -1.0762 -0.5584
 6664TIP3    H141483   0.568   4.098  15.642 -1.0357  0.3091 -0.6209
 6664TIP3    H241484   0.519   4.011  15.756  0.4945 -0.8590 -0.8358
 6665TIP3   OH241485   1.741   6.229  14.250 -0.5696  0.3454  0.1581
 6665TIP3    H141486   1.749   6.315  14.208 -0.0221  1.0512  1.6572
 6665TIP3    H241487   1.832   6.199  14.259 -0.7772 -0.5521 -0.6571
 6666TIP3   OH241488   2.323   5.106   5.151  0.2837  0.1192 -0.5323
 6666TIP3    H141489   2.374   5.186   5.162  0.8484 -0.2933 -0.0961
 6666TIP3    H241490   2.386   5.043   5.113  0.4086 -0.7293  1.0497
 6667TIP3   OH241491   6.604   4.961  10.307  0.3505 -0.0173  0.1596
 6667TIP3    H141492   6.599   5.056  10.293  0.1024 -0.2582 -1.4953
 6667TIP3    H241493   6.629   4.926  10.221  2.5258 -1.2753  1.2677
 6668TIP3   OH241494   6.678   3.752  15.268  0.1185  0.3749  0.1947
 6668TIP3    H141495   6.647   3.795  15.188 -2.8343 -0.2998  0.9107
 6668TIP3    H241496   6.701   3.664  15.240 -0.5074  0.2706 -0.0041
 6669TIP3   OH241497   0.271   4.181   1.266 -0.1354 -0.3143  0.8747
 6669TIP3    H141498   0.305   4.133   1.342  1.4310 -0.9326 -0.1764
 6669TIP3    H241499   0.214   4.119   1.222 -1.5129  0.2414  1.8524
 6670TIP3   OH241500   6.189   0.257   0.057  0.4081  0.0191  0.5960
 6670TIP3    H141501   6.284   0.249   0.047  0.4659  0.0898  1.0953
 6670TIP3    H241502   6.175   0.350   0.074  0.3035 -0.0983  1.1419
 6671TIP3   OH241503   2.631   5.803  13.430 -0.6281  0.0225 -0.1151
 6671TIP3    H141504   2.704   5.839  13.480 -1.5723 -0.2159  1.4582
 6671TIP3    H241505   2.557   5.860  13.451 -1.5646 -1.4057  0.5063
 6672TIP3   OH241506   2.626   4.400   3.133 -0.5472  0.2165  0.2666
 6672TIP3    H141507   2.658   4.402   3.043 -0.9942 -0.1069  0.1005
 6672TIP3    H241508   2.607   4.308   3.150 -2.6604  0.5637 -0.0781
 6673TIP3   OH241509   2.256   4.119  16.715 -0.0508  0.1758 -0.1039
 6673TIP3    H141510   2.330   4.110  16.774  1.5254  0.0133 -2.0480
 6673TIP3    H241511   2.225   4.209  16.729  1.0390  0.5195  0.1299
 6674TIP3   OH241512   1.036   0.034   3.605  0.2679 -0.3229  0.4395
 6674TIP3    H141513   1.121  -0.011   3.602  0.3339 -0.1435 -0.3264
 6674TIP3    H241514   1.025   0.057   3.698  1.7896  1.0554  0.3010
 6675TIP3   OH241515   4.582   4.482   0.936 -0.4260 -0.6122 -0.2503
 6675TIP3    H141516   4.514   4.544   0.963  1.3694  1.5769 -0.6363
 6675TIP3    H241517   4.592   4.424   1.011 -2.0858 -0.4186  0.1528
 6676TIP3   OH241518   6.057   0.844   0.133 -0.6212 -0.3241  0.1516
 6676TIP3    H141519   6.060   0.766   0.188  3.4092  0.4954  1.3026
 6676TIP3    H241520   6.090   0.814   0.048 -0.5183 -0.2334  0.1583
 6677TIP3   OH241521   0.477   4.374  16.376 -0.3677  0.1140 -0.5303
 6677TIP3    H141522   0.453   4.292  16.419  0.2229 -0.0797 -0.5729
 6677TIP3    H241523   0.454   4.442  16.439  0.6958 -0.1826  0.1873
 6678TIP3   OH241524   0.099   5.181  16.745 -0.0080 -0.5946 -0.5525
 6678TIP3    H141525   0.023   5.124  16.750 -1.2887  1.1732  0.6306
 6678TIP3    H241526   0.063   5.269  16.734  1.6680  0.6825  3.2383
 6679TIP3   OH241527   1.405   2.023   4.561 -0.7045  0.5123  0.5586
 6679TIP3    H141528   1.477   1.967   4.592 -1.1669  0.1269  0.9378
 6679TIP3    H241529   1.398   2.091   4.629  0.0819  1.2333 -0.0699
 6680TIP3   OH241530   2.771   4.030  11.814 -0.0481  0.0335 -0.3598
 6680TIP3    H141531   2.733   3.942  11.810 -0.9745  0.4690 -1.2044
 6680TIP3    H241532   2.766   4.063  11.724  0.3790  0.9148 -0.0642
 6681TIP3   OH241533   3.907   3.288   2.385 -0.3589  0.1941  0.1233
 6681TIP3    H141534   3.818   3.321   2.373 -0.0456  0.9547 -0.1503
 6681TIP3    H241535   3.945   3.290   2.297  0.3036  0.9752  0.4187
 6682TIP3   OH241536   3.274   5.484  14.427 -0.3431 -0.2883  0.2249
 6682TIP3    H141537   3.322   5.403  14.445 -0.1402 -0.1166  0.4566
 6682TIP3    H241538   3.341   5.549  14.407 -0.3175  0.5442  2.8354
 6683TIP3   OH241539   2.200   1.482   4.703  0.2211  0.2149 -0.0606
 6683TIP3    H141540   2.177   1.433   4.782 -2.2661  0.2924 -0.7081
 6683TIP3    H241541   2.216   1.571   4.733  1.8741 -0.3160  0.7044
 6684TIP3   OH241542   2.539   2.970  16.536 -0.6480  0.2802  0.2171
 6684TIP3    H141543   2.621   2.934  16.503 -0.8950  1.3857 -1.6921
 6684TIP3    H241544   2.492   2.895  16.571 -0.2550 -0.9251 -1.7381
 6685TIP3   OH241545   3.609   5.792  16.001 -0.5196  0.4885 -0.3135
 6685TIP3    H141546   3.603   5.885  16.021 -2.2351  0.3073  0.1290
 6685TIP3    H241547   3.534   5.774  15.944 -0.2512 -0.6383 -0.3339
 6686TIP3   OH241548   5.894   0.327   1.117 -0.3954 -0.0648  0.0799
 6686TIP3    H141549   5.863   0.365   1.035 -0.0115 -0.2646 -0.1610
 6686TIP3    H241550   5.970   0.381   1.141  0.6732 -1.1992 -0.7104
 6687TIP3   OH241551   0.130   0.345  10.350  0.0326  0.6109 -0.1349
 6687TIP3    H141552   0.164   0.356  10.439  0.8391  0.7453 -0.4548
 6687TIP3    H241553   0.057   0.284  10.360  0.6603 -0.0516  0.4948
 6688TIP3   OH241554   4.922   0.305  14.222 -0.3134  0.1560  0.3748
 6688TIP3    H141555   5.010   0.329  14.193 -0.1462 -0.1868  0.5984
 6688TIP3    H241556   4.907   0.361  14.298 -1.2472  1.9648 -1.1023
 6689TIP3   OH241557   2.484   0.871  14.991  0.0692  0.0694  0.4828
 6689TIP3    H141558   2.572   0.847  14.964 -0.6120  0.4077 -2.1750
 6689TIP3    H241559   2.444   0.789  15.018  0.6140 -0.3942 -0.1040
 6690TIP3   OH241560   5.371   4.076   5.104  0.1016  0.3828 -0.9057
 6690TIP3    H141561   5.446   4.031   5.143  0.2371  1.4570  0.1063
 6690TIP3    H241562   5.304   4.009   5.095  0.6914 -0.2700 -0.4854
 6691TIP3   OH241563   1.244   1.378   3.469  0.3163 -0.7784  0.3157
 6691TIP3    H141564   1.270   1.463   3.434 -0.1891 -0.1896  1.3682
 6691TIP3    H241565   1.160   1.360   3.425  2.0870 -2.3729 -2.5667
 6692TIP3   OH241566   0.271   6.125  14.285 -0.1046  0.4768  0.1422
 6692TIP3    H141567   0.204   6.146  14.220 -0.8049  0.4613  0.8528
 6692TIP3    H241568   0.270   6.199  14.346  1.1001  0.8659 -0.3047
 6693TIP3   OH241569   1.639   3.598  13.067 -0.3055 -0.2503 -0.3155
 6693TIP3    H141570   1.562   3.648  13.094  0.8953  1.0719  0.7598
 6693TIP3    H241571   1.711   3.661  13.070  0.9879 -1.6869 -0.4000
 6694TIP3   OH241572   4.677   4.067   6.336  0.0598  0.6462  0.0253
 6694TIP3    H141573   4.680   4.050   6.242 -5.1180  0.5158 -0.3022
 6694TIP3    H241574   4.660   4.161   6.342 -0.4275  0.5103  0.7881
 6695TIP3   OH241575   4.758   0.639  16.307 -0.1205  0.1923 -0.2140
 6695TIP3    H141576   4.750   0.547  16.334 -2.2958 -0.0011 -1.4626
 6695TIP3    H241577   4.851   0.649  16.286  0.2254 -1.6117  0.3180
 6696TIP3   OH241578   5.699   4.752   3.580  0.6454  0.0754 -0.1794
 6696TIP3    H141579   5.723   4.680   3.521 -0.2137 -1.0527  0.8181
 6696TIP3    H241580   5.773   4.758   3.641  0.1312 -0.8786  0.5618
 6697TIP3   OH241581   4.072   0.788  11.451  0.4649 -0.3831 -0.2252
 6697TIP3    H141582   4.111   0.867  11.489 -0.1383 -0.2484  0.1198
 6697TIP3    H241583   3.982   0.789  11.482  0.5041 -1.3100 -0.0781
 6698TIP3   OH241584   6.089   5.264   5.622 -0.0774 -0.0150 -0.0234
 6698TIP3    H141585   6.154   5.333   5.631 -0.4983  0.0330  3.1076
 6698TIP3    H241586   6.081   5.227   5.710 -3.6575 -0.5936 -0.5241
 6699TIP3   OH241587   4.106   5.184  16.179 -0.0484  0.0240  0.2721
 6699TIP3    H141588   4.166   5.214  16.110  1.8098  0.2449  1.9659
 6699TIP3    H241589   4.020   5.180  16.135  1.3579 -1.3889 -2.4689
 6700TIP3   OH241590   2.037   5.305   5.521 -0.5922 -0.3075  0.0377
 6700TIP3    H141591   2.055   5.317   5.427  0.8059 -3.3950 -0.1574
 6700TIP3    H241592   1.962   5.362   5.538  1.8372  3.7737 -1.9258
 6701TIP3   OH241593   1.656   2.064  14.061  0.0381 -0.4062 -0.2748
 6701TIP3    H141594   1.612   2.135  14.015 -1.8497 -0.7388  0.9478
 6701TIP3    H241595   1.733   2.105  14.101  0.4045  0.3737 -1.7492
 6702TIP3   OH241596   3.818   0.156   4.337 -0.4865 -0.1051 -0.0475
 6702TIP3    H141597   3.779   0.106   4.266 -0.6491  0.5157 -0.3966
 6702TIP3    H241598   3.751   0.158   4.405 -0.6522  0.0311 -0.2147
 6703TIP3   OH241599   2.850   3.696   4.525  0.0670 -0.1670 -0.0216
 6703TIP3    H141600   2.762   3.715   4.557  0.2635 -0.7004  0.8438
 6703TIP3    H241601   2.887   3.782   4.503  0.2715  0.3156  2.1039
 6704TIP3   OH241602   3.819   2.575  16.489  0.6333  0.4227 -0.1410
 6704TIP3    H141603   3.879   2.645  16.464 -0.4791  1.4760  0.0944
 6704TIP3    H241604   3.827   2.571  16.584  0.4644  0.4444 -0.1272
 6705TIP3   OH241605   5.285   1.261   0.987 -0.1534  0.2890 -0.0882
 6705TIP3    H141606   5.301   1.355   0.980  0.0938  0.3688  1.3071
 6705TIP3    H241607   5.196   1.249   0.955  1.3793  0.3122 -4.6733
 6706TIP3   OH241608   5.144   2.944   5.375  0.5318 -0.4267 -0.3356
 6706TIP3    H141609   5.131   2.885   5.450  1.9878 -0.8613 -0.3982
 6706TIP3    H241610   5.091   3.021   5.396 -1.3596 -1.7306 -0.2403
 6707TIP3   OH241611   6.269   4.414  11.969 -0.0865 -0.3795 -0.0715
 6707TIP3    H141612   6.216   4.337  11.953 -0.2450 -0.2717 -0.0652
 6707TIP3    H241613   6.283   4.415  12.064 -1.9698  0.8360  0.2156
 6708TIP3   OH241614   1.625   1.568   5.786  0.1013 -0.0707  0.0014
 6708TIP3    H141615   1.641   1.648   5.835  0.5683  0.5135 -1.0785
 6708TIP3    H241616   1.632   1.595   5.694 -0.9212 -1.0929 -0.3926
 6709TIP3   OH241617   4.779   0.825  11.211 -0.1156 -0.3474  0.1107
 6709TIP3    H141618   4.790   0.867  11.297  0.9120  0.4609 -0.4210
 6709TIP3    H241619   4.790   0.896  11.148 -0.6434 -0.9895 -0.7058
 6710TIP3   OH241620   1.749   2.854  14.162 -0.0166 -0.4888 -0.1500
 6710TIP3    H141621   1.767   2.909  14.086  1.1849  0.2480  0.6580
 6710TIP3    H241622   1.656   2.868  14.181 -0.1477 -0.1353 -1.0481
 6711TIP3   OH241623   2.587   5.143   2.881  0.0272 -0.8762  0.5868
 6711TIP3    H141624   2.496   5.141   2.912 -0.8182  0.8791 -1.6200
 6711TIP3    H241625   2.581   5.116   2.789  1.4649  1.0280 -0.0969
 6712TIP3   OH241626   5.721   0.518   4.195 -0.3900 -1.1617  0.2331
 6712TIP3    H141627   5.770   0.567   4.129  0.3195 -1.8117  0.2737
 6712TIP3    H241628   5.769   0.531   4.277 -0.9405 -0.8398  0.5122
 6713TIP3   OH241629   0.239   3.979   3.161 -0.0084 -0.0027 -0.7435
 6713TIP3    H141630   0.323   3.935   3.150  0.3983  0.8049 -0.9293
 6713TIP3    H241631   0.257   4.051   3.222 -0.3820  0.6843 -1.4439
 6714TIP3   OH241632   5.500   0.200  14.978 -0.0372  0.2142  0.3424
 6714TIP3    H141633   5.547   0.262  15.032  2.2169 -2.2459  1.2928
 6714TIP3    H241634   5.421   0.179  15.028  0.6915  0.0374  1.4356
 6715TIP3   OH241635   0.162   3.368   1.569  0.0589 -0.4228  0.3414
 6715TIP3    H141636   0.118   3.345   1.651 -3.0019 -0.4364 -1.2424
 6715TIP3    H241637   0.194   3.457   1.583 -2.1810  0.3284  0.9099
 6716TIP3   OH241638   2.554   4.341  16.314 -0.2008  0.5300 -0.5152
 6716TIP3    H141639   2.613   4.335  16.239  0.2258 -3.4332  0.0083
 6716TIP3    H241640   2.480   4.285  16.291  0.2117 -1.2582  2.1828
 6717TIP3   OH241641   0.716   1.612  11.467 -0.1902 -0.6608  0.3393
 6717TIP3    H141642   0.786   1.632  11.528 -0.4666 -0.0746  0.4638
 6717TIP3    H241643   0.760   1.565  11.395  0.1265 -1.3553  0.9849
 6718TIP3   OH241644   3.580   1.210  12.635 -0.3197 -0.0025 -0.6024
 6718TIP3    H141645   3.644   1.277  12.610  0.2973 -0.1366  0.6035
 6718TIP3    H241646   3.499   1.259  12.649  0.7995  0.9272  3.0438
 6719TIP3   OH241647   2.075   2.914   6.094  0.5217 -0.0258  0.3803
 6719TIP3    H141648   2.152   2.913   6.037  0.0619  2.1036 -0.3318
 6719TIP3    H241649   2.110   2.892   6.181  2.0893  1.6573  0.2074
 6720TIP3   OH241650   3.536   0.151  11.767 -0.1939  0.3701  0.4175
 6720TIP3    H141651   3.516   0.107  11.850  0.0741  0.0294  0.3033
 6720TIP3    H241652   3.596   0.222  11.792  0.5927 -0.2768  0.4046
 6721TIP3   OH241653   5.383   5.413   0.878  0.2429  0.2836  0.2049
 6721TIP3    H141654   5.454   5.417   0.942  1.0740 -1.3173 -0.5677
 6721TIP3    H241655   5.342   5.328   0.893  0.5699 -0.1917 -1.5005
 6722TIP3   OH241656   1.430   3.470   4.008 -0.4456  0.1296  0.0859
 6722TIP3    H141657   1.454   3.490   4.099  2.7817 -0.6881 -0.5097
 6722TIP3    H241658   1.464   3.543   3.957  1.1548 -1.2162 -0.8358
 6723TIP3   OH241659   4.876   2.194   1.297 -0.0412  0.2792  0.3699
 6723TIP3    H141660   4.903   2.111   1.336 -1.7439 -0.0670  0.8458
 6723TIP3    H241661   4.781   2.186   1.286 -0.1550  1.9756 -0.0216
 6724TIP3   OH241662   6.450   3.063  11.392 -0.1012 -0.3599  0.0219
 6724TIP3    H141663   6.519   3.019  11.343 -1.1437 -0.9092 -0.9570
 6724TIP3    H241664   6.385   2.995  11.409 -1.2220  0.5452 -0.5771
 6725TIP3   OH241665   5.264   3.250  14.963  0.0059  0.9134  0.0919
 6725TIP3    H141666   5.266   3.247  14.867 -1.8431  0.6239  0.0558
 6725TIP3    H241667   5.315   3.173  14.989  0.9192  1.2518 -0.6422
 6726TIP3   OH241668   3.079   1.700   5.736 -0.0543  0.1930  0.1093
 6726TIP3    H141669   3.122   1.617   5.718 -0.0959 -0.0675  1.2182
 6726TIP3    H241670   3.067   1.739   5.649 -0.7493 -1.3011 -0.4874
 6727TIP3   OH241671   4.592   4.268  12.317 -0.0152  0.6542 -0.3231
 6727TIP3    H141672   4.556   4.326  12.250  1.3722  1.2988 -0.5219
 6727TIP3    H241673   4.672   4.232  12.278 -0.0818 -0.2478  0.3556
 6728TIP3   OH241674   4.410   3.547   0.624 -0.0558  0.2080 -0.6385
 6728TIP3    H141675   4.340   3.584   0.570  0.3713  0.4401 -1.0318
 6728TIP3    H241676   4.479   3.525   0.562 -0.0653 -0.6848 -0.3326
 6729TIP3   OH241677   3.340   1.406   4.872  0.1802  0.0541 -0.0619
 6729TIP3    H141678   3.245   1.408   4.863  0.1478 -1.3076 -0.0789
 6729TIP3    H241679   3.354   1.393   4.966  0.3192 -1.0662 -0.2259
 6730TIP3   OH241680   6.194   5.987   3.046  0.2688 -0.3154 -0.0529
 6730TIP3    H141681   6.152   6.054   2.993  0.1568  0.3607  0.8731
 6730TIP3    H241682   6.146   5.907   3.027  0.2998 -0.1037 -1.0494
 6731TIP3   OH241683   1.263   4.615   1.789 -0.1170 -0.3003 -0.2301
 6731TIP3    H141684   1.244   4.624   1.695 -0.5164  0.3790 -0.0933
 6731TIP3    H241685   1.266   4.705   1.820  2.1562 -0.4489 -0.0027
 6732TIP3   OH241686   2.544   0.015   2.991  0.0897 -0.0098 -0.1688
 6732TIP3    H141687   2.553  -0.033   3.074 -1.1716  0.0321  0.0068
 6732TIP3    H241688   2.450   0.026   2.980  0.2901  0.8349 -1.1343
 6733TIP3   OH241689   4.128   5.049   4.476 -0.2894  0.1695 -0.2277
 6733TIP3    H141690   4.087   4.976   4.429 -0.5522  0.3989 -0.3538
 6733TIP3    H241691   4.059   5.083   4.532 -0.4504  0.9616 -0.9057
 6734TIP3   OH241692   1.278   6.053   0.619  0.7743 -0.2177 -0.1032
 6734TIP3    H141693   1.270   5.986   0.687  1.0489  1.0379  1.1672
 6734TIP3    H241694   1.283   6.003   0.537 -0.3204 -1.7128  0.7168
 6735TIP3   OH241695   6.302   1.400   2.598  0.0581 -0.4101 -0.7307
 6735TIP3    H141696   6.357   1.376   2.524 -0.6623 -2.7103 -0.5500
 6735TIP3    H241697   6.214   1.372   2.573 -0.0340 -2.1240  1.3846
 6736TIP3   OH241698   2.627   3.699   1.688 -0.3299 -0.2687 -0.2039
 6736TIP3    H141699   2.580   3.631   1.735  2.6149 -2.2266  0.0674
 6736TIP3    H241700   2.685   3.738   1.754  1.5349 -0.8685 -1.4371
 6737TIP3   OH241701   4.058   5.174   3.414 -1.1353 -0.7924 -0.4922
 6737TIP3    H141702   4.122   5.210   3.476 -0.8430 -1.6896 -0.2506
 6737TIP3    H241703   4.007   5.112   3.467  0.1090 -2.7139 -1.4605
 6738TIP3   OH241704   0.618   4.050  13.497  0.6344  0.2458  0.3300
 6738TIP3    H141705   0.688   3.991  13.468 -0.9858 -2.1702  1.1317
 6738TIP3    H241706   0.642   4.075  13.586 -0.0927 -1.6158  1.0872
 6739TIP3   OH241707   6.159   2.124   5.765 -0.0135  0.1503 -0.4330
 6739TIP3    H141708   6.242   2.077   5.778  0.3758  0.7079 -0.8918
 6739TIP3    H241709   6.093   2.055   5.767  0.4419 -0.2755  0.1561
 6740TIP3   OH241710   2.525   4.701  13.520  0.1398 -0.6382 -0.4514
 6740TIP3    H141711   2.596   4.668  13.575  2.0514  0.7500 -2.0423
 6740TIP3    H241712   2.533   4.652  13.438 -0.8993 -0.6418 -0.5580
 6741TIP3   OH241713   5.542   2.499   2.664  0.4968  0.2571  0.4730
 6741TIP3    H141714   5.477   2.521   2.731 -0.1247  0.5612 -0.2303
 6741TIP3    H241715   5.521   2.410   2.638  1.2338 -0.1440  1.2581
 6742TIP3   OH241716   5.000   5.161   5.719 -0.4278  0.3458  0.2417
 6742TIP3    H141717   5.042   5.075   5.710 -2.2504 -0.5824  0.3425
 6742TIP3    H241718   4.953   5.173   5.636  0.5508  1.6709 -0.1347
 6743TIP3   OH241719   3.551   6.699   2.978 -0.0406 -0.0756 -0.1278
 6743TIP3    H141720   3.585   6.767   2.919 -0.0690 -1.9871 -2.4703
 6743TIP3    H241721   3.626   6.676   3.033  1.0703 -0.7748 -1.8920
 6744TIP3   OH241722   5.041   5.111  12.900  0.5569  0.7085 -0.4734
 6744TIP3    H141723   5.057   5.099  12.993 -0.0804  2.1922 -0.1613
 6744TIP3    H241724   5.123   5.147  12.865  1.5392 -1.8673 -0.9096
 6745TIP3   OH241725   2.220   0.183  16.850 -0.4857  0.6960 -0.4590
 6745TIP3    H141726   2.314   0.200  16.853 -0.1507 -0.7559 -1.6119
 6745TIP3    H241727   2.180   0.268  16.837  0.7922  1.1692 -1.4534
 6746TIP3   OH241728   0.723   3.510   2.819 -0.3585 -0.0432  0.7136
 6746TIP3    H141729   0.759   3.595   2.795  1.9374 -1.3599 -0.5908
 6746TIP3    H241730   0.653   3.494   2.755 -2.1299  1.6945  2.1548
 6747TIP3   OH241731   6.223   4.984   0.398  0.3046 -0.4655  0.1260
 6747TIP3    H141732   6.154   4.924   0.424  0.8956 -1.0524  0.3762
 6747TIP3    H241733   6.255   5.022   0.479 -1.0924  1.3687 -0.1492
 6748TIP3   OH241734   6.169   3.838   4.059  0.1315  0.2925 -0.0283
 6748TIP3    H141735   6.102   3.889   4.103  1.3124 -0.0316  2.2413
 6748TIP3    H241736   6.228   3.902   4.019  0.7482  0.6932  1.4978
 6749TIP3   OH241737   1.055   3.430  10.891  0.1948  0.2476 -0.2665
 6749TIP3    H141738   1.016   3.346  10.915 -0.3727  1.0292  1.6832
 6749TIP3    H241739   1.139   3.407  10.852  0.9006 -1.1831  1.9543
 6750TIP3   OH241740   6.426   5.175   2.127 -0.0376 -0.6585  0.0387
 6750TIP3    H141741   6.509   5.144   2.091 -1.1518 -0.9296 -2.4221
 6750TIP3    H241742   6.360   5.138   2.068 -1.7788  1.1042  0.8497
 6751TIP3   OH241743   0.424   6.687  14.975 -0.0693 -0.6097 -0.4730
 6751TIP3    H141744   0.443   6.621  14.909  1.1411 -0.8055  0.0541
 6751TIP3    H241745   0.508   6.728  14.994 -0.9957  1.9695 -1.7064
 6752TIP3   OH241746   6.722   1.224  17.206 -0.2697 -0.4278  0.5248
 6752TIP3    H141747   6.725   1.282  17.130 -0.0102 -1.4424 -0.2367
 6752TIP3    H241748   6.768   1.273  17.275  2.8036 -1.0456 -1.0080
 6753TIP3   OH241749   5.560   4.248   6.653  0.0206  0.3021  0.5544
 6753TIP3    H141750   5.489   4.290   6.702  0.6885  0.7060  1.1862
 6753TIP3    H241751   5.600   4.318   6.602  1.3164  0.5272  1.8240
 6754TIP3   OH241752   5.505   5.296  16.324  0.1647 -0.5506  0.5115
 6754TIP3    H141753   5.466   5.350  16.255  0.4984 -1.2882 -0.2664
 6754TIP3    H241754   5.590   5.337  16.341 -0.1554 -0.0373  0.8872
 6755TIP3   OH241755   4.810   3.105   3.146 -0.2247  0.2423  0.5187
 6755TIP3    H141756   4.829   3.154   3.066  0.9669 -0.9249  0.0559
 6755TIP3    H241757   4.838   3.015   3.126 -1.9848 -0.5468  1.4847
 6756TIP3   OH241758   0.603   4.935  13.045 -0.2805 -0.8177  0.1645
 6756TIP3    H141759   0.514   4.924  13.080 -0.8078  1.8638 -0.2622
 6756TIP3    H241760   0.594   5.000  12.976  1.8276 -1.4700 -0.7721
 6757TIP3   OH241761   0.166   4.579  16.308  0.3043 -0.6572 -0.4872
 6757TIP3    H141762   0.161   4.652  16.247 -0.9965  0.1745  0.5820
 6757TIP3    H241763   0.090   4.524  16.287  0.9041 -1.3534 -0.8497
 6758TIP3   OH241764   0.645   0.710  15.354  0.5733  0.0594  0.0784
 6758TIP3    H141765   0.569   0.653  15.343 -1.0749  2.4210 -1.1635
 6758TIP3    H241766   0.660   0.747  15.267  2.2377  0.7591  0.6437
 6759TIP3   OH241767   2.190   0.741  14.929 -0.4010  0.3821 -0.5357
 6759TIP3    H141768   2.176   0.703  14.842 -0.5938 -2.1807  0.5686
 6759TIP3    H241769   2.102   0.748  14.966 -0.2529  0.7171 -0.2418
 6760TIP3   OH241770   1.669   3.457  13.371  0.3115  0.3662 -0.2331
 6760TIP3    H141771   1.600   3.507  13.327 -0.1749  0.5725  0.7491
 6760TIP3    H241772   1.623   3.387  13.417  0.8347  0.0508 -0.1757
 6761TIP3   OH241773   3.477   1.495   3.540  0.1246 -0.4512 -0.5738
 6761TIP3    H141774   3.477   1.496   3.635  0.7346 -0.4560 -0.5767
 6761TIP3    H241775   3.519   1.413   3.516 -1.0307 -0.9770 -0.8429
 6762TIP3   OH241776   4.265   4.443   5.318  0.0087  0.6999 -0.2930
 6762TIP3    H141777   4.251   4.522   5.265  0.6950  0.5325 -0.7277
 6762TIP3    H241778   4.312   4.383   5.260 -3.1445 -1.2212 -1.0168
 6763TIP3   OH241779   5.307   3.496   2.026 -0.1920 -0.0901  0.1997
 6763TIP3    H141780   5.368   3.543   2.083  0.6545 -2.8706  1.6675
 6763TIP3    H241781   5.250   3.448   2.086 -3.2937  1.7088 -1.1769
 6764TIP3   OH241782   4.577   4.377  14.268  0.6275 -0.1829 -0.6695
 6764TIP3    H141783   4.576   4.282  14.282 -0.0408 -0.1029 -0.1976
 6764TIP3    H241784   4.639   4.389  14.196  2.0529 -0.8247  0.4145
 6765TIP3   OH241785   3.774   2.187  11.924 -0.0841  0.3261 -0.0701
 6765TIP3    H141786   3.793   2.234  11.843 -0.4387 -1.0703 -0.9818
 6765TIP3    H241787   3.800   2.097  11.906 -2.1394 -0.4332  0.6313
 6766TIP3   OH241788   3.769   4.361   1.153 -0.4389 -1.0679  0.0538
 6766TIP3    H141789   3.683   4.398   1.171 -0.3194 -0.4718 -0.5776
 6766TIP3    H241790   3.771   4.350   1.057 -0.2595 -2.1712  0.1688
 6767TIP3   OH241791   1.349   2.489   4.835 -0.2187  0.2532 -0.0442
 6767TIP3    H141792   1.358   2.539   4.916 -0.2562 -0.6401  0.5184
 6767TIP3    H241793   1.279   2.427   4.852 -0.7386  0.5551 -1.0264
 6768TIP3   OH241794   4.593   4.775   4.736  0.1139 -0.1873  0.0268
 6768TIP3    H141795   4.536   4.851   4.746  0.6166 -0.0279  2.0129
 6768TIP3    H241796   4.663   4.790   4.800  0.6114 -1.9465 -0.0950
 6769TIP3   OH241797   2.700   2.260  14.061  0.3579 -0.4386  0.7347
 6769TIP3    H141798   2.776   2.316  14.047 -0.8148  0.6019 -1.8188
 6769TIP3    H241799   2.720   2.179  14.014 -0.6833  0.3945 -1.1902
 6770TIP3   OH241800   2.813   5.394  15.015 -0.0779  0.2112 -0.8183
 6770TIP3    H141801   2.740   5.454  15.000  1.2503  2.2704  0.7781
 6770TIP3    H241802   2.780   5.333  15.081 -1.0389 -0.1505 -1.6108
 6771TIP3   OH241803   4.291   4.731   5.928 -0.6832 -0.5698 -0.3532
 6771TIP3    H141804   4.264   4.708   6.017  0.4631 -0.3748  0.0503
 6771TIP3    H241805   4.214   4.714   5.874 -1.2613 -1.0456  0.6231
 6772TIP3   OH241806   0.584   0.020   2.994  0.0492  0.5924 -0.0144
 6772TIP3    H141807   0.669   0.033   3.036  1.6299 -0.0231 -2.8480
 6772TIP3    H241808   0.549  -0.058   3.035  1.9109 -0.4603 -0.3505
 6773TIP3   OH241809   5.693   1.385  13.087 -0.1013  1.1636 -0.0739
 6773TIP3    H141810   5.705   1.401  12.993 -1.6280  0.6481 -0.3739
 6773TIP3    H241811   5.635   1.309  13.091 -2.9977  3.3549  1.2298
 6774TIP3   OH241812   0.082   4.894   2.794  0.2297 -0.4536 -0.1211
 6774TIP3    H141813   0.116   4.866   2.879  1.7959 -0.5521 -0.7548
 6774TIP3    H241814  -0.013   4.897   2.806  0.4054 -0.7829  1.5288
 6775TIP3   OH241815   0.086   0.204  13.133 -0.2296 -0.0791 -0.2142
 6775TIP3    H141816   0.097   0.141  13.061 -0.8658 -1.0898  0.5568
 6775TIP3    H241817   0.031   0.273  13.097  3.4239  1.9659 -2.2335
 6776TIP3   OH241818   2.151   6.430  16.464 -0.0981  0.3176 -0.7873
 6776TIP3    H141819   2.148   6.346  16.419 -0.4549  0.5534 -1.2055
 6776TIP3    H241820   2.231   6.472  16.431  0.8796 -0.4648  0.5232
 6777TIP3   OH241821   1.256   5.454   0.335 -0.0182  0.1096 -0.0952
 6777TIP3    H141822   1.216   5.531   0.296 -0.2665  0.4615  0.8287
 6777TIP3    H241823   1.246   5.385   0.269 -1.8949  0.2643 -0.0018
 6778TIP3   OH241824   3.894   3.160   5.253 -0.3080 -0.0111  0.8215
 6778TIP3    H141825   3.865   3.072   5.274 -0.6496 -0.2105 -0.4839
 6778TIP3    H241826   3.826   3.217   5.289 -0.4803 -0.3157  0.9728
 6779TIP3   OH241827   4.616   2.813   5.814  0.0985  0.4865  0.0067
 6779TIP3    H141828   4.588   2.840   5.727 -1.1423  1.8245  0.7761
 6779TIP3    H241829   4.692   2.758   5.800  0.1695  1.0445 -1.8950
 6780TIP3   OH241830   3.067   1.769  11.455  0.1711  0.0514 -0.1702
 6780TIP3    H141831   3.104   1.781  11.367 -0.4121 -0.9451 -0.5581
 6780TIP3    H241832   3.143   1.753  11.511  0.3637 -1.7005 -0.9099
 6781TIP3   OH241833   4.253   6.506   1.867  0.4910  0.5043 -0.2888
 6781TIP3    H141834   4.172   6.502   1.816 -0.3685 -0.7551  1.1345
 6781TIP3    H241835   4.241   6.581   1.926  0.0082 -0.1693  0.4809
 6782TIP3   OH241836   1.764   4.207   0.294 -0.1765  0.1712  0.4040
 6782TIP3    H141837   1.742   4.243   0.380  0.4796  0.2355  0.5465
 6782TIP3    H241838   1.833   4.142   0.312 -0.5418 -0.3292  0.0119
 6783TIP3   OH241839   2.455   0.359  14.126 -0.0788  0.1278 -0.0148
 6783TIP3    H141840   2.434   0.355  14.219  1.6218 -1.3113  0.3432
 6783TIP3    H241841   2.375   0.330  14.082 -0.2128 -1.2626  1.0972
 6784TIP3   OH241842   5.737   0.474  12.519  0.5663  0.0585 -0.1343
 6784TIP3    H141843   5.766   0.505  12.605 -0.6542 -0.1275  0.3569
 6784TIP3    H241844   5.667   0.533  12.495  0.5645 -0.2053 -0.7780
 6785TIP3   OH241845   0.356   2.500   5.123  0.1967  0.0639 -0.1955
 6785TIP3    H141846   0.379   2.430   5.184  1.3413 -1.1053 -1.9106
 6785TIP3    H241847   0.385   2.467   5.038 -0.8559  1.8948 -1.2844
 6786TIP3   OH241848   3.765   0.364  12.708 -0.3413 -0.4528 -0.0542
 6786TIP3    H141849   3.753   0.456  12.687 -0.9338 -0.4416  0.3386
 6786TIP3    H241850   3.856   0.358  12.736 -0.8326  0.3675  1.7817
 6787TIP3   OH241851   4.592   6.234  12.476 -0.0159 -0.3835  0.6611
 6787TIP3    H141852   4.643   6.313  12.456 -1.6055  0.6988  0.8391
 6787TIP3    H241853   4.644   6.162  12.440 -1.2323  1.1900 -4.5409
 6788TIP3   OH241854   3.174   4.886   5.153 -0.5050  0.1594 -0.3779
 6788TIP3    H141855   3.265   4.913   5.161 -0.6633  0.7800 -0.7217
 6788TIP3    H241856   3.147   4.867   5.243  0.1443 -0.6198 -0.3414
 6789TIP3   OH241857   5.022   2.428   0.480 -0.2580  0.4494 -0.0332
 6789TIP3    H141858   5.010   2.482   0.402 -1.5012 -0.4919 -0.5046
 6789TIP3    H241859   5.102   2.378   0.463  0.9708  2.1822  0.4534
 6790TIP3   OH241860   0.910   6.165  12.775  0.3968 -0.3706 -0.8145
 6790TIP3    H141861   0.869   6.251  12.790 -0.2237 -0.6658 -0.8127
 6790TIP3    H241862   0.934   6.135  12.863  3.2015  1.0548 -1.0289
 6791TIP3   OH241863   6.385   4.690  10.643  0.0608 -0.3405  0.3267
 6791TIP3    H141864   6.365   4.749  10.571 -1.4590 -0.7464  0.4051
 6791TIP3    H241865   6.302   4.646  10.662  0.7087 -1.0417  1.5870
 6792TIP3   OH241866   2.228   2.778   6.755 -0.1461  0.3191 -0.3137
 6792TIP3    H141867   2.228   2.842   6.683  0.4555  1.4697  0.6834
 6792TIP3    H241868   2.307   2.799   6.806 -0.5269 -0.5280  0.6410
 6793TIP3   OH241869   5.258   4.163  12.215  0.2566 -0.7081  0.9344
 6793TIP3    H141870   5.329   4.186  12.275  1.5809  0.3266 -0.9729
 6793TIP3    H241871   5.182   4.213  12.247  1.4149  1.2512  0.7137
 6794TIP3   OH241872   3.754   4.204   4.673  0.4428  0.1130  0.4993
 6794TIP3    H141873   3.784   4.165   4.591 -1.9558 -2.0758  0.6139
 6794TIP3    H241874   3.833   4.207   4.728  1.8406  0.6202 -1.4755
 6795TIP3   OH241875   5.670   4.118   0.076 -0.4616  0.2512  0.0779
 6795TIP3    H141876   5.637   4.058   0.143 -1.7298  0.8205 -0.0198
 6795TIP3    H241877   5.617   4.197   0.085  1.1073  1.3283  0.1108
 6796TIP3   OH241878   3.445   1.839   1.562 -0.2668 -0.4160  0.2686
 6796TIP3    H141879   3.506   1.908   1.588  0.2859  1.2108 -4.7947
 6796TIP3    H241880   3.361   1.866   1.598  0.7067  0.7496  1.7459
 6797TIP3   OH241881   0.742   5.764   3.650  0.2864  0.3326 -0.1803
 6797TIP3    H141882   0.716   5.723   3.568  0.4516 -1.5755  0.6815
 6797TIP3    H241883   0.688   5.843   3.656 -0.7644 -0.2722 -1.4140
 6798TIP3   OH241884   0.228   5.234  14.268 -0.5714  0.4107  0.0971
 6798TIP3    H141885   0.150   5.179  14.263 -0.0880 -0.2198 -0.8470
 6798TIP3    H241886   0.254   5.231  14.360 -0.4749 -1.0902  0.0405
 6799TIP3   OH241887   1.599   5.371  15.033  0.3117  0.0060  0.8762
 6799TIP3    H141888   1.627   5.315  14.960  1.3922 -2.3434  3.0251
 6799TIP3    H241889   1.642   5.455  15.016  0.4846 -0.4714 -1.2127
 6800TIP3   OH241890   2.603   4.057   6.159 -0.7072 -0.0008  0.3365
 6800TIP3    H141891   2.577   3.979   6.110  0.0079  0.5965 -1.0148
 6800TIP3    H241892   2.531   4.072   6.221 -1.5849 -0.7990 -0.4801
 6801TIP3   OH241893   3.311   5.660  14.036  0.2613  0.8341 -0.7031
 6801TIP3    H141894   3.294   5.646  13.943  1.8618  2.3998 -1.2595
 6801TIP3    H241895   3.279   5.749  14.052 -1.2749  0.0762  0.5887
 6802TIP3   OH241896   4.351   5.681   0.545  0.5179 -0.3045 -0.1602
 6802TIP3    H141897   4.368   5.587   0.547 -0.8558 -0.5367  0.8077
 6802TIP3    H241898   4.273   5.690   0.491 -0.4544  0.0923  1.2821
 6803TIP3   OH241899   4.404   6.803   4.923 -0.1989  0.1446  0.5136
 6803TIP3    H141900   4.474   6.739   4.931 -0.7958 -0.5418  0.3701
 6803TIP3    H241901   4.346   6.766   4.856  0.6672  1.9655 -1.3157
 6804TIP3   OH241902   5.501   3.226   4.899  0.1965 -0.0494  0.1042
 6804TIP3    H141903   5.491   3.262   4.811 -0.7307 -0.3632  0.0721
 6804TIP3    H241904   5.447   3.282   4.954 -0.9075 -1.1111  0.1255
 6805TIP3   OH241905   1.386   1.135  14.674  0.3486 -0.4312  0.6399
 6805TIP3    H141906   1.366   1.208  14.734  2.1328  0.5533  0.0965
 6805TIP3    H241907   1.406   1.178  14.591 -0.4312 -1.6889 -0.2056
 6806TIP3   OH241908   6.188   5.279   6.142 -0.6648  0.3931 -0.1757
 6806TIP3    H141909   6.241   5.340   6.091 -0.8533  1.6286  1.0776
 6806TIP3    H241910   6.187   5.316   6.230  0.9544 -2.5115  1.1293
 6807TIP3   OH241911   1.547   5.492  10.794 -0.5547 -0.1808 -0.1509
 6807TIP3    H141912   1.567   5.499  10.887 -0.9852  3.0835 -0.2460
 6807TIP3    H241913   1.632   5.488  10.750 -0.2823  1.5313  0.2006
 6808TIP3   OH241914   2.186   3.594   0.639  0.4901  0.0682  0.6524
 6808TIP3    H141915   2.116   3.529   0.649 -0.1008  0.3794 -1.2543
 6808TIP3    H241916   2.257   3.546   0.596 -0.4103  0.9514 -1.8962
 6809TIP3   OH241917   4.145   1.262   5.890 -0.3717  0.0580 -0.5304
 6809TIP3    H141918   4.109   1.205   5.958 -0.0560 -0.4498 -0.7853
 6809TIP3    H241919   4.090   1.245   5.814  1.3098 -1.8607 -1.3764
 6810TIP3   OH241920   5.031   6.511   1.327 -0.3649  0.1664  0.2606
 6810TIP3    H141921   5.122   6.521   1.298 -0.3055 -0.8977  0.0835
 6810TIP3    H241922   5.021   6.577   1.396  0.2160  1.0335 -0.4677
 6811TIP3   OH241923   4.594   1.888   5.521  0.2057  0.2520 -0.2052
 6811TIP3    H141924   4.584   1.966   5.575 -0.0935 -0.4776  0.7985
 6811TIP3    H241925   4.584   1.920   5.431  1.9946  1.6733  0.0799
 6812TIP3   OH241926   1.277   2.390   4.108  0.1287  0.2707 -0.4904
 6812TIP3    H141927   1.336   2.324   4.144 -1.2215 -0.1270  1.0914
 6812TIP3    H241928   1.226   2.344   4.042  0.7517  0.3202 -1.0137
 6813TIP3   OH241929   1.758   1.371   0.294 -0.6087  0.2492 -0.0401
 6813TIP3    H141930   1.802   1.296   0.335  0.0849  0.6412 -0.0665
 6813TIP3    H241931   1.702   1.331   0.227  1.9207 -0.0750 -2.0380
 6814TIP3   OH241932   5.299   0.157   2.226  0.3498  0.3531 -0.5265
 6814TIP3    H141933   5.313   0.087   2.289  0.1138  1.6545  1.0315
 6814TIP3    H241934   5.376   0.213   2.234 -0.8177  1.8757  0.4586
 6815TIP3   OH241935   6.675   2.776   0.777  0.4611  0.9249 -0.0631
 6815TIP3    H141936   6.696   2.749   0.688  2.1577  1.7002  0.0948
 6815TIP3    H241937   6.599   2.723   0.801  1.5783 -1.1592 -1.0239
 6816TIP3   OH241938   6.183   5.348  11.721  0.2497  0.0388  0.0249
 6816TIP3    H141939   6.201   5.283  11.653  1.3804  0.6780 -0.3037
 6816TIP3    H241940   6.252   5.335  11.786 -0.6039 -0.3085  0.8635
 6817TIP3   OH241941   4.879   4.898  14.354 -0.4058 -0.1904  0.4133
 6817TIP3    H141942   4.919   4.854  14.429 -2.4818 -1.3956  0.8744
 6817TIP3    H241943   4.943   4.889  14.283  0.7858 -0.6797  1.5357
 6818TIP3   OH241944   6.255   4.772   1.534 -0.0336 -0.0925 -0.1896
 6818TIP3    H141945   6.288   4.696   1.581 -1.6834 -0.1076  0.9645
 6818TIP3    H241946   6.202   4.736   1.463 -0.0719 -0.0322 -0.1923
 6819TIP3   OH241947   2.158   0.471  15.015  0.3881 -1.0507 -0.4401
 6819TIP3    H141948   2.207   0.553  15.010 -2.1027  0.7205  2.5800
 6819TIP3    H241949   2.223   0.403  14.998  2.6235  1.4752 -2.4829
 6820TIP3   OH241950   2.490   3.568   1.232  0.0177 -0.7788 -0.0169
 6820TIP3    H141951   2.524   3.647   1.191  1.1953 -1.7531 -0.9584
 6820TIP3    H241952   2.552   3.547   1.302 -0.5902 -0.5749  0.5964
 6821TIP3   OH241953   3.545   4.629   4.928  0.2763  0.0286 -0.1251
 6821TIP3    H141954   3.631   4.586   4.919  1.4580  2.3267 -0.1610
 6821TIP3    H241955   3.531   4.634   5.023  0.6658  0.5854 -0.0962
 6822TIP3   OH241956   5.406   2.490  12.244  0.6774 -0.1090 -0.2770
 6822TIP3    H141957   5.451   2.512  12.325 -1.5220 -0.7499  1.1824
 6822TIP3    H241958   5.406   2.571  12.193  3.6563 -0.1731 -0.4498
 6823TIP3   OH241959   4.722   2.969  15.449  0.0022  0.0595 -0.4581
 6823TIP3    H141960   4.740   2.918  15.527  0.0801  0.5344 -0.1637
 6823TIP3    H241961   4.803   3.017  15.432 -0.1122  0.1853 -0.6531
 6824TIP3   OH241962   2.762   5.668  14.754  0.2312  0.1477  0.2827
 6824TIP3    H141963   2.726   5.735  14.696 -1.8621 -0.9917  0.1876
 6824TIP3    H241964   2.789   5.597  14.694  0.7935  0.1727  0.5031
 6825TIP3   OH241965   2.116   4.015  15.676 -0.7598 -0.4843 -1.0108
 6825TIP3    H141966   2.137   4.020  15.769 -0.9116 -1.1860 -0.9346
 6825TIP3    H241967   2.197   4.042  15.632 -0.5339 -0.6277 -0.6844
 6826TIP3   OH241968   0.382   4.883   0.520 -0.1647 -0.2209  0.6165
 6826TIP3    H141969   0.431   4.855   0.442 -1.3591  0.7474 -0.4898
 6826TIP3    H241970   0.338   4.803   0.550  1.0258 -0.8061  0.8441
 6827TIP3   OH241971   5.004   6.703  15.771 -0.3121  0.3163 -0.1456
 6827TIP3    H141972   4.910   6.698  15.754 -0.0755  1.0154 -1.6935
 6827TIP3    H241973   5.041   6.628  15.724 -0.0418  0.2536  0.1612
 6828TIP3   OH241974   1.277   4.452   0.258 -0.0398  0.4981 -0.2806
 6828TIP3    H141975   1.290   4.416   0.170  0.5701  1.2557 -0.5055
 6828TIP3    H241976   1.365   4.473   0.289 -0.4390  2.4466 -0.4343
 6829TIP3   OH241977   1.259   6.819  11.234  0.7432  0.1780  0.7129
 6829TIP3    H141978   1.226   6.737  11.272  2.1148 -1.3571 -1.2317
 6829TIP3    H241979   1.192   6.844  11.170  0.7490  0.0540  0.6574
 6830TIP3   OH241980   3.362   2.664   4.952  0.3031  0.1648 -0.3573
 6830TIP3    H141981   3.423   2.737   4.956 -0.1951  0.5755 -0.1764
 6830TIP3    H241982   3.317   2.665   5.036 -0.8470  0.6550 -0.9708
 6831TIP3   OH241983   6.207   3.707  16.831  0.2569  0.3925  0.0755
 6831TIP3    H141984   6.267   3.696  16.757 -0.8088  0.9381 -0.8854
 6831TIP3    H241985   6.259   3.753  16.897  0.9440  0.6935 -0.6658
 6832TIP3   OH241986   5.926   0.424   2.042  0.0787 -0.1024  0.0394
 6832TIP3    H141987   5.944   0.445   1.950 -2.1372  1.3365 -0.0926
 6832TIP3    H241988   5.878   0.341   2.038  1.2451 -0.8006  0.0283
 6833TIP3   OH241989   3.733   5.262  11.818 -0.1689 -0.2373  0.1945
 6833TIP3    H141990   3.694   5.322  11.881  0.5596 -1.5591  1.9241
 6833TIP3    H241991   3.699   5.292  11.733 -3.2205  0.0001  1.4261
 6834TIP3   OH241992   1.589   1.763   4.224 -0.3380  0.2928 -0.0557
 6834TIP3    H141993   1.632   1.827   4.281  0.6499  0.5740 -1.0965
 6834TIP3    H241994   1.604   1.796   4.135 -2.8304  0.4483 -0.4370
 6835TIP3   OH241995   2.706   5.359  11.800 -0.1737  0.1849 -0.5246
 6835TIP3    H141996   2.717   5.454  11.806 -2.1014  0.4131 -0.2471
 6835TIP3    H241997   2.686   5.331  11.889  1.1946 -0.6005 -0.4551
 6836TIP3   OH241998   1.580   4.957   4.059 -0.2697 -0.2150 -0.8992
 6836TIP3    H141999   1.494   4.998   4.069 -1.1492 -1.9988 -0.9181
 6836TIP3    H242000   1.589   4.941   3.965  1.3935  2.6460 -1.2815
 6837TIP3   OH242001   3.219   3.312   1.670  0.3180 -0.0564 -0.3283
 6837TIP3    H142002   3.186   3.252   1.603 -1.8196 -0.1322  0.7463
 6837TIP3    H242003   3.187   3.398   1.643 -0.5612 -0.0893  0.5553
 6838TIP3   OH242004   4.115   1.912   1.101 -0.4237 -0.3689 -0.9217
 6838TIP3    H142005   4.168   1.894   1.179 -3.6600 -0.7662  1.3121
 6838TIP3    H242006   4.129   1.836   1.044 -0.6933 -1.7960  0.8520
 6839TIP3   OH242007   1.691   0.804   0.509  0.1663 -0.2087 -0.5219
 6839TIP3    H142008   1.649   0.803   0.595  0.0357 -1.7751 -0.5946
 6839TIP3    H242009   1.632   0.752   0.453  0.9776 -0.3928 -1.2162
 6840TIP3   OH242010   1.836   3.236   0.847  0.2135  0.2396  0.4686
 6840TIP3    H142011   1.857   3.304   0.784  0.4878 -1.1397 -0.9571
 6840TIP3    H242012   1.740   3.239   0.854  0.2681  1.1635  0.8778
 6841TIP3   OH242013   2.210   5.173   4.657 -0.5733 -0.6333  0.1800
 6841TIP3    H142014   2.157   5.251   4.678  0.3191  0.1042 -0.2908
 6841TIP3    H242015   2.232   5.183   4.565  2.0644  0.1053  0.8385
 6842TIP3   OH242016   1.295   5.256  16.482  0.7289 -0.1357 -0.3274
 6842TIP3    H142017   1.379   5.255  16.527  0.8349 -0.9595 -0.5408
 6842TIP3    H242018   1.257   5.341  16.504  0.6269 -0.6513  1.5841
 6843TIP3   OH242019   5.531   4.659   4.713  0.3723  0.0762  0.1873
 6843TIP3    H142020   5.451   4.676   4.663  0.7338  0.9281 -0.1210
 6843TIP3    H242021   5.601   4.662   4.647  0.8886  1.5342  0.7716
 6844TIP3   OH242022   1.232   3.147   2.435  0.1665 -0.2630 -0.0321
 6844TIP3    H142023   1.302   3.104   2.385  0.4043  0.9128 -0.7255
 6844TIP3    H242024   1.207   3.082   2.502  0.7656 -1.3325 -0.8260
 6845TIP3   OH242025   5.498   2.681   1.716 -0.2913 -0.1297  0.2026
 6845TIP3    H142026   5.444   2.751   1.679 -0.4979  0.0443  0.8284
 6845TIP3    H242027   5.506   2.618   1.645 -2.1424 -0.6234  0.4061
 6846TIP3   OH242028   2.584   1.517  13.845 -0.7306  0.0992 -0.5958
 6846TIP3    H142029   2.489   1.524  13.847 -0.7542  0.1300 -1.3769
 6846TIP3    H242030   2.614   1.604  13.817 -0.4209  0.3662  0.5388
 6847TIP3   OH242031   6.393   4.963   1.379  0.4096  0.3577  0.6437
 6847TIP3    H142032   6.395   4.923   1.292 -0.6623  2.5543 -0.4185
 6847TIP3    H242033   6.324   4.915   1.425  1.2656 -1.1020  0.4621
 6848TIP3   OH242034   2.943   5.820   0.863  0.0802 -0.5769  0.1962
 6848TIP3    H142035   2.929   5.784   0.776 -2.0561 -0.6323  0.5303
 6848TIP3    H242036   2.960   5.913   0.848 -0.6278 -0.5182 -0.2658
 6849TIP3   OH242037   4.776   4.816  16.280  0.2609 -0.1998 -0.2274
 6849TIP3    H142038   4.761   4.828  16.373 -0.5074 -1.0991 -0.2304
 6849TIP3    H242039   4.714   4.877  16.238 -0.4610 -0.8859 -0.1679
 6850TIP3   OH242040   3.908   4.264   3.146 -0.1347  0.3715 -0.1989
 6850TIP3    H142041   3.908   4.260   3.050 -2.0788 -1.4383 -0.1581
 6850TIP3    H242042   3.818   4.286   3.169 -0.0658 -0.8013  1.2500
 6851TIP3   OH242043   5.472   1.989   4.764 -0.3730  0.5450  0.0257
 6851TIP3    H142044   5.434   2.053   4.703 -0.7710 -1.3323 -1.7672
 6851TIP3    H242045   5.402   1.925   4.778  0.5742 -0.4205  0.4133
 6852TIP3   OH242046   3.189   5.292  15.955 -0.3263  0.2983  0.4990
 6852TIP3    H142047   3.265   5.313  16.009 -1.4086  1.7344  1.4888
 6852TIP3    H242048   3.147   5.376  15.939  0.6350  0.0979 -3.6675
 6853TIP3   OH242049   0.573   0.155   4.641  0.3560  0.2382 -0.5654
 6853TIP3    H142050   0.510   0.137   4.711 -0.1841  1.3845 -0.7420
 6853TIP3    H242051   0.658   0.140   4.681 -0.0248 -1.7819 -0.4546
 6854TIP3   OH242052   2.508   6.784   3.541 -0.2834 -0.0370 -0.4165
 6854TIP3    H142053   2.584   6.797   3.597  0.2586 -2.7525 -0.4094
 6854TIP3    H242054   2.464   6.869   3.539  5.4597  3.1861 -4.5416
 6855TIP3   OH242055   5.810   3.519  12.519 -0.5002  0.0090 -0.2879
 6855TIP3    H142056   5.731   3.570  12.538  0.7261  2.0912 -0.6810
 6855TIP3    H242057   5.779   3.428  12.517 -2.2930  0.4912  2.7392
 6856TIP3   OH242058   6.338   4.257   3.854  0.0185 -0.3601 -0.0990
 6856TIP3    H142059   6.382   4.334   3.818  2.0704 -1.3909  0.1367
 6856TIP3    H242060   6.320   4.202   3.778 -1.7510  0.4639 -0.3096
 6857TIP3   OH242061   1.870   4.903   3.274 -0.4869 -0.3189 -0.2197
 6857TIP3    H142062   1.824   4.826   3.241  0.4626 -1.1389  0.3614
 6857TIP3    H242063   1.960   4.874   3.286 -0.1096  0.8992 -0.0423
 6858TIP3   OH242064   4.343   2.323   1.657 -0.1310  0.0820 -0.5435
 6858TIP3    H142065   4.368   2.389   1.722  0.2977 -0.2035 -0.4160
 6858TIP3    H242066   4.353   2.367   1.573  0.4007  0.1007 -0.4707
 6859TIP3   OH242067   2.015   0.146   0.431 -0.0243  0.4561  0.6750
 6859TIP3    H142068   2.087   0.207   0.445  0.0578  0.1792  1.5038
 6859TIP3    H242069   1.980   0.130   0.518 -0.2562 -0.4167  0.4285
 6860TIP3   OH242070   3.290   2.265   3.168 -0.4571 -0.7153 -0.1083
 6860TIP3    H142071   3.356   2.333   3.181 -0.4250 -1.1604  2.4744
 6860TIP3    H242072   3.339   2.192   3.128  0.0612 -0.1544 -0.5045
 6861TIP3   OH242073   4.825   3.320  15.375  0.5041 -0.0096 -0.4088
 6861TIP3    H142074   4.742   3.292  15.414  0.3966  0.1710 -0.5095
 6861TIP3    H242075   4.804   3.337  15.284  0.5037  0.7080 -0.2755
 6862TIP3   OH242076   0.870   3.703  12.357  0.6927  0.3811 -0.2037
 6862TIP3    H142077   0.919   3.743  12.285  1.3734  0.2209  0.1677
 6862TIP3    H242078   0.850   3.775  12.417 -1.4252  0.8480 -1.3978
 6863TIP3   OH242079   2.736   2.603   6.821  0.6136 -0.0920 -0.0387
 6863TIP3    H142080   2.823   2.598   6.860 -0.3615 -2.9660  1.8684
 6863TIP3    H242081   2.678   2.624   6.894 -0.6247 -0.7775 -0.8069
 6864TIP3   OH242082   1.129   4.194   5.068 -0.4745  0.0054 -0.0210
 6864TIP3    H142083   1.099   4.267   5.014  0.9288 -0.5339 -1.5545
 6864TIP3    H242084   1.196   4.232   5.125  0.9992 -0.2866 -1.5381
 6865TIP3   OH242085   1.255   3.189  13.881  0.3024  0.0192  0.8308
 6865TIP3    H142086   1.215   3.153  13.960  0.8817 -1.9883  0.2348
 6865TIP3    H242087   1.198   3.162  13.810  0.9201 -0.0044  0.3354
 6866TIP3   OH242088   5.092   1.916  13.968  0.4486 -0.4668  0.2155
 6866TIP3    H142089   5.156   1.846  13.965  0.8935 -0.0743  0.4736
 6866TIP3    H242090   5.023   1.889  13.907  0.0157 -1.7195  1.2273
 6867TIP3   OH242091   0.123   1.703  12.482  0.3569  0.7047  0.5531
 6867TIP3    H142092   0.062   1.758  12.531 -1.0700  2.3466 -2.9019
 6867TIP3    H242093   0.204   1.755  12.479 -0.1940  1.5137 -0.5480
 6868TIP3   OH242094   1.990   2.399   0.402 -0.0155  0.2343 -0.2654
 6868TIP3    H142095   2.077   2.364   0.383 -0.3424 -0.4779 -0.4701
 6868TIP3    H242096   1.972   2.368   0.491  0.2444  1.0106  0.0672
 6869TIP3   OH242097   5.448   1.113  15.165  0.0623  0.4715 -0.4206
 6869TIP3    H142098   5.501   1.128  15.087 -0.1152  0.8343 -0.4751
 6869TIP3    H242099   5.394   1.192  15.173 -1.4927 -0.4870 -1.1620
 6870TIP3   OH242100   3.852   1.137  13.547  0.3914  0.5350 -0.3156
 6870TIP3    H142101   3.926   1.126  13.606 -0.1965 -1.0869  0.1422
 6870TIP3    H242102   3.851   1.057  13.494 -0.2838  1.0853 -1.1605
 6871TIP3   OH242103   6.739   4.719  13.339 -0.2326 -0.1208 -0.6190
 6871TIP3    H142104   6.808   4.778  13.369 -0.3924  0.8809 -2.1636
 6871TIP3    H242105   6.730   4.738  13.246 -0.2221 -2.6316 -1.1934
 6872TIP3   OH242106   5.142   4.540  14.750 -0.0868 -0.2248  0.2906
 6872TIP3    H142107   5.120   4.492  14.670 -2.2630 -0.4648  1.0038
 6872TIP3    H242108   5.230   4.574  14.734 -0.1263 -1.0395 -1.8327
 6873TIP3   OH242109   2.297   3.831   5.139 -0.0342  0.3814 -0.5308
 6873TIP3    H142110   2.214   3.826   5.187 -1.1149  2.2079 -2.1433
 6873TIP3    H242111   2.281   3.779   5.060  1.2538 -1.4210  0.3617
 6874TIP3   OH242112   0.550   6.337   2.138  0.0832  0.3717 -0.0525
 6874TIP3    H142113   0.527   6.376   2.222  0.6711  1.4482 -0.3774
 6874TIP3    H242114   0.611   6.399   2.099  2.2891 -1.6596  0.0928
 6875TIP3   OH242115   6.221   3.783   3.406  0.0172 -0.2669  0.3580
 6875TIP3    H142116   6.305   3.829   3.419 -0.4321  0.4027  0.9371
 6875TIP3    H242117   6.155   3.845   3.436 -0.5784 -1.4871  1.6687
 6876TIP3   OH242118   1.583   0.937   3.151 -0.1799  0.1585 -0.5165
 6876TIP3    H142119   1.622   0.997   3.215 -2.6830  3.7281 -2.2021
 6876TIP3    H242120   1.633   0.952   3.071 -0.5325 -0.3773 -0.8379
 6877TIP3   OH242121   5.279   2.300  14.755 -0.2872  0.3530  0.2581
 6877TIP3    H142122   5.211   2.361  14.784  1.0672  1.6405  0.8021
 6877TIP3    H242123   5.347   2.356  14.719  0.7054 -0.8893  0.1739
 6878TIP3   OH242124   5.486   5.971  15.284 -0.0188  0.2662 -0.4117
 6878TIP3    H142125   5.485   5.899  15.348  0.6054 -1.1728 -1.9861
 6878TIP3    H242126   5.431   5.940  15.212  0.0586  1.4772 -1.0021
 6879TIP3   OH242127   4.591   4.801  10.566 -0.2383  0.6029  0.5970
 6879TIP3    H142128   4.687   4.797  10.560 -0.3417  0.1004 -0.7946
 6879TIP3    H242129   4.569   4.891  10.543 -0.1766  0.4171 -0.1985
 6880TIP3   OH242130   2.966   2.923  14.853  0.8925 -0.4182  0.0887
 6880TIP3    H142131   2.887   2.973  14.832  0.4313 -1.2398 -0.1348
 6880TIP3    H242132   2.960   2.844  14.800  2.0177 -0.3585 -0.1523
 6881TIP3   OH242133   5.101   6.771  12.024  0.8041  0.0330 -0.7438
 6881TIP3    H142134   5.046   6.827  11.968 -1.3575 -0.6483  0.6149
 6881TIP3    H242135   5.080   6.682  11.996  0.2382 -0.2820  0.6608
 6882TIP3   OH242136   0.333   5.002   0.840 -0.4941  0.4875  0.5450
 6882TIP3    H142137   0.422   5.035   0.840 -0.3374  0.1572 -2.4548
 6882TIP3    H242138   0.342   4.908   0.826 -1.3565  0.7768 -2.3414
 6883TIP3   OH242139   2.177   1.077   3.016  0.1458 -0.4168  0.2068
 6883TIP3    H142140   2.179   1.170   2.994 -1.5008 -0.6413 -0.9527
 6883TIP3    H242141   2.225   1.071   3.099  0.0344  1.4932  0.4223
 6884TIP3   OH242142   4.692   2.877  15.154 -0.5349  0.5028 -0.1399
 6884TIP3    H142143   4.646   2.793  15.147  1.7383 -0.8840  1.0430
 6884TIP3    H242144   4.666   2.912  15.239 -0.8723  0.6371 -0.2964
 6885TIP3   OH242145   3.333   4.604  10.710  0.1783  0.5636  0.4523
 6885TIP3    H142146   3.427   4.584  10.706  0.2880  1.2129 -0.2983
 6885TIP3    H242147   3.328   4.698  10.699 -0.3873  0.9330  3.4159
 6886TIP3   OH242148   0.858   0.654  12.700 -0.4554 -0.0054  0.0384
 6886TIP3    H142149   0.858   0.650  12.796  1.3935 -0.3324  0.0516
 6886TIP3    H242150   0.795   0.723  12.679 -1.1746 -0.2013  1.4701
 6887TIP3   OH242151   6.775   5.066  11.213  0.8507 -0.0950  0.0260
 6887TIP3    H142152   6.852   5.023  11.177 -0.5077 -1.8737 -0.8645
 6887TIP3    H242153   6.759   5.140  11.154  0.6198 -0.9993 -1.0580
 6888TIP3   OH242154   4.689   2.514   1.731  0.0126  0.4268  0.3325
 6888TIP3    H142155   4.665   2.532   1.641  0.4282  3.2543  0.7403
 6888TIP3    H242156   4.676   2.598   1.777  1.1787 -0.5717  2.5749
 6889TIP3   OH242157   1.006   4.236  14.964  0.2547  0.3364  0.0635
 6889TIP3    H142158   1.064   4.161  14.979 -0.5726 -0.3649 -0.2067
 6889TIP3    H242159   0.924   4.212  15.006  0.0782  1.2300  0.2380
 6890TIP3   OH242160   1.165   4.690  14.769  0.1808 -0.0168 -0.3017
 6890TIP3    H142161   1.228   4.722  14.834 -0.9289  0.8739  0.3691
 6890TIP3    H242162   1.131   4.608  14.807 -0.5569  0.5650  0.3294
 6891TIP3   OH242163   4.987   6.707   4.412 -0.2495 -0.1439  0.0561
 6891TIP3    H142164   5.076   6.694   4.443 -0.1982 -2.2705 -0.8991
 6891TIP3    H242165   4.960   6.789   4.452  2.1914  0.6218  0.2095
 6892TIP3   OH242166   2.554   3.411   3.939 -0.1695  0.3439 -0.5762
 6892TIP3    H142167   2.467   3.372   3.927  1.0628 -3.1228  1.1214
 6892TIP3    H242168   2.614   3.349   3.899  1.7451  1.2983  0.7560
 6893TIP3   OH242169   0.799   6.282  16.304 -0.3737 -0.0527  0.8830
 6893TIP3    H142170   0.728   6.336  16.338  0.1833 -0.5181  2.8437
 6893TIP3    H242171   0.760   6.196  16.292 -0.5905  0.1315  0.2445
 6894TIP3   OH242172   1.366   1.641  12.998  0.3439 -0.0761 -0.7030
 6894TIP3    H142173   1.307   1.634  13.073 -0.7830 -0.5688 -1.6344
 6894TIP3    H242174   1.444   1.592  13.024  1.4396  2.7305  1.5658
 6895TIP3   OH242175   3.718   0.982   3.774  0.3499 -0.0147  0.2423
 6895TIP3    H142176   3.676   1.060   3.812  0.0235 -0.5338  0.9433
 6895TIP3    H242177   3.655   0.912   3.786  0.3980 -0.2677 -0.9393
 6896TIP3   OH242178   4.862   5.291  15.672 -0.1628 -0.0465  0.0256
 6896TIP3    H142179   4.896   5.377  15.697  0.5542  0.3610 -2.2857
 6896TIP3    H242180   4.937   5.232  15.681 -0.3134 -0.1932  0.3389
 6897TIP3   OH242181   5.033   0.457  16.649 -0.3321 -0.6408 -0.5820
 6897TIP3    H142182   4.939   0.450  16.663 -0.7214  0.8183 -2.3258
 6897TIP3    H242183   5.043   0.528  16.585  2.0481  0.4138  0.8725
 6898TIP3   OH242184   2.148   0.924  11.304 -0.3442  0.8515  0.5163
 6898TIP3    H142185   2.143   0.949  11.396  1.1433 -0.8038  1.0827
 6898TIP3    H242186   2.088   0.850  11.296  0.1687  0.4430  0.3734
 6899TIP3   OH242187   2.092   0.161   5.637  0.4508 -0.0651  0.8448
 6899TIP3    H142188   2.026   0.226   5.659  0.0293 -0.0904 -0.2917
 6899TIP3    H242189   2.064   0.127   5.552  1.1735 -1.0669  1.0036
 6900TIP3   OH242190   1.533   1.814  12.582 -0.5122  0.3619 -0.6145
 6900TIP3    H142191   1.501   1.904  12.575  0.0976  0.5755 -0.6981
 6900TIP3    H242192   1.481   1.775  12.653  0.4652  1.3142  0.6300
 6901TIP3   OH242193   2.733   1.775  10.608  0.0919  0.0552  0.0676
 6901TIP3    H142194   2.715   1.681  10.614 -0.8100  0.1750 -0.6124
 6901TIP3    H242195   2.804   1.790  10.670  1.0168 -1.2847 -0.6364
 6902TIP3   OH242196   5.853   0.275  14.586  0.2247  0.0654  0.6891
 6902TIP3    H142197   5.884   0.344  14.645  0.5134  0.5640 -0.0351
 6902TIP3    H242198   5.840   0.320  14.502 -0.8192 -0.5032  0.5476
 6903TIP3   OH242199   6.040   3.608  15.756  1.0750 -0.3500  0.3095
 6903TIP3    H142200   6.069   3.529  15.710  0.6639 -0.1140 -0.3538
 6903TIP3    H242201   5.989   3.656  15.691  1.9629  0.8346  0.4822
 6904TIP3   OH242202   1.681   3.045   1.206  0.0959  0.0980 -0.1886
 6904TIP3    H142203   1.750   3.101   1.172 -0.0135 -0.0979 -0.7305
 6904TIP3    H242204   1.605   3.062   1.151  0.9135 -2.8066 -2.3416
 6905TIP3   OH242205   3.324   1.221   4.482  0.3685  0.3277  0.1844
 6905TIP3    H142206   3.236   1.227   4.517 -0.2881  0.0626 -1.3991
 6905TIP3    H242207   3.365   1.304   4.506 -0.8253  1.1121 -0.4777
 6906TIP3   OH242208   0.690   3.209   0.034  0.5209 -0.3432 -0.0625
 6906TIP3    H142209   0.716   3.283  -0.021  2.2422 -0.6549  0.3301
 6906TIP3    H242210   0.746   3.214   0.111 -0.9363 -0.7174  1.0572
 6907TIP3   OH242211   0.795   2.301   4.122 -0.6307 -0.8754 -0.0638
 6907TIP3    H142212   0.868   2.299   4.059 -0.5511  1.1384 -0.0559
 6907TIP3    H242213   0.717   2.303   4.067 -0.5690  0.5887 -0.1109
 6908TIP3   OH242214   0.338   0.140  16.987 -0.3470 -0.0639 -0.1553
 6908TIP3    H142215   0.377   0.078  17.049  0.1857 -1.7775 -2.1580
 6908TIP3    H242216   0.259   0.097  16.956 -1.3299  1.3671  0.3024
 6909TIP3   OH242217   1.867   0.715  11.587  0.4579  0.4214  0.4786
 6909TIP3    H142218   1.921   0.649  11.544  0.9697  1.0304  0.1906
 6909TIP3    H242219   1.781   0.705  11.546  0.3176 -0.6173  1.0141
 6910TIP3   OH242220   3.489   0.678  17.137 -0.2159  0.0609  0.3779
 6910TIP3    H142221   3.479   0.773  17.134 -0.1954  0.0039 -3.0501
 6910TIP3    H242222   3.579   0.662  17.108 -0.1101 -1.0188  1.2407
 6911TIP3   OH242223   6.563   2.367   4.717  0.6716  0.2594 -0.0518
 6911TIP3    H142224   6.599   2.343   4.802  0.7424  0.8922  0.0999
 6911TIP3    H242225   6.469   2.375   4.733  0.6137 -0.1844 -0.1665
 6912TIP3   OH242226   5.107   1.783   3.885 -0.1309  0.0646 -0.5538
 6912TIP3    H142227   5.091   1.689   3.887  1.2914 -0.1892 -0.5681
 6912TIP3    H242228   5.109   1.809   3.977  0.9527 -0.1992 -0.4888
 6913TIP3   OH242229   1.994   2.592  11.695  0.5029  0.6648 -0.2024
 6913TIP3    H142230   1.961   2.680  11.715 -0.6174  0.4262 -0.9268
 6913TIP3    H242231   2.086   2.605  11.675  1.5556  0.9966  4.3940
 6914TIP3   OH242232   1.767   2.152   6.188  0.4707 -0.2562  0.3113
 6914TIP3    H142233   1.813   2.097   6.251 -1.0159 -0.8821  0.8931
 6914TIP3    H242234   1.740   2.228   6.240 -0.3961 -0.5781  0.3429
 6915TIP3   OH242235   2.267   2.947   2.433 -0.6984  0.1047  0.0451
 6915TIP3    H142236   2.280   3.005   2.358 -0.1749  0.9179  0.7612
 6915TIP3    H242237   2.352   2.904   2.445 -0.1403  1.5886  1.5141
 6916TIP3   OH242238   4.430   4.739   2.009 -0.2690 -0.0543 -0.1086
 6916TIP3    H142239   4.451   4.827   2.041  1.6749 -0.5397  0.0205
 6916TIP3    H242240   4.335   4.730   2.023 -0.3403  1.6956  0.6453
 6917TIP3   OH242241   2.617   3.790   5.478  0.2583  0.0989 -0.2139
 6917TIP3    H142242   2.659   3.861   5.527  1.1570 -0.8495  0.4111
 6917TIP3    H242243   2.666   3.712   5.503 -2.9360 -1.3153  1.8266
 6918TIP3   OH242244   5.116   6.283  13.102 -0.2734  0.5633  0.2062
 6918TIP3    H142245   5.137   6.347  13.169  0.6241 -2.4174  2.8847
 6918TIP3    H242246   5.040   6.237  13.136 -0.6450 -0.0958 -1.4748
 6919TIP3   OH242247   2.567   6.399   4.480  0.3814 -0.7330 -0.3540
 6919TIP3    H142248   2.530   6.434   4.561  0.8624  0.7288 -0.7419
 6919TIP3    H242249   2.578   6.476   4.424  1.8608 -1.4592 -1.0912
 6920TIP3   OH242250   2.712   2.492  14.566 -0.2918 -0.3237  0.5090
 6920TIP3    H142251   2.707   2.419  14.505  0.0958 -0.1734  0.2903
 6920TIP3    H242252   2.663   2.562  14.523  0.7694  0.0775 -0.0699
 6921TIP3   OH242253   3.164   3.991   5.802  0.3186  0.6954 -0.2244
 6921TIP3    H142254   3.165   3.973   5.896  3.6831  0.5803 -0.2025
 6921TIP3    H242255   3.120   4.076   5.793 -2.4853 -0.5644  1.1347
 6922TIP3   OH242256   3.452   1.038   0.226 -0.9067  0.5136  0.1199
 6922TIP3    H142257   3.480   1.096   0.298  1.3219  1.5475 -1.5228
 6922TIP3    H242258   3.529   0.986   0.206 -2.2450 -1.4930  0.0573
 6923TIP3   OH242259   6.748   3.660   4.960 -0.4224  0.2762 -0.6965
 6923TIP3    H142260   6.822   3.611   4.996 -0.4820 -0.0761 -1.0466
 6923TIP3    H242261   6.681   3.594   4.944 -0.1481  0.3141 -2.1025
 6924TIP3   OH242262   4.386   2.477  16.779  0.6934 -0.3467  0.4090
 6924TIP3    H142263   4.321   2.421  16.737  1.1658 -0.5098 -0.1193
 6924TIP3    H242264   4.396   2.550  16.718 -0.4812  0.7112  1.4495
 6925TIP3   OH242265   2.118   1.260  15.199 -0.1693 -0.0286  0.1793
 6925TIP3    H142266   2.134   1.182  15.147 -0.0025  0.0425  0.1248
 6925TIP3    H242267   2.204   1.285  15.233 -0.1922  0.2419  0.0383
 6926TIP3   OH242268   3.013   3.133   5.633  0.5280  0.2944 -0.6433
 6926TIP3    H142269   3.025   3.039   5.617 -2.1869 -0.0535 -0.8964
 6926TIP3    H242270   2.994   3.139   5.727 -1.3723  0.3491 -1.0243
 6927TIP3   OH242271   4.791   0.336  14.701  0.5284  1.2631 -0.0692
 6927TIP3    H142272   4.795   0.282  14.621  0.8231 -0.9280  1.3739
 6927TIP3    H242273   4.739   0.284  14.762  0.3625  2.8924  1.1917
 6928TIP3   OH242274   2.768   0.563   5.271 -0.0455  0.2647 -0.0113
 6928TIP3    H142275   2.679   0.546   5.302  0.8077 -0.4210  2.1757
 6928TIP3    H242276   2.770   0.656   5.252 -0.5134  0.8428  2.5201
 6929TIP3   OH242277   6.623   3.412   4.649 -0.3797  0.0735 -0.1624
 6929TIP3    H142278   6.663   3.453   4.572 -1.1960 -0.5046 -0.9002
 6929TIP3    H242279   6.697   3.375   4.698  0.1719  0.7143 -0.5019
 6930TIP3   OH242280   5.490   4.942   3.407 -0.0743  0.0645 -0.6688
 6930TIP3    H142281   5.477   4.849   3.392 -1.8447 -0.0364  1.3015
 6930TIP3    H242282   5.506   4.949   3.502  2.0680  1.5501 -1.0991
 6931TIP3   OH242283   6.090   0.495  15.434  0.6622  0.6343  0.1708
 6931TIP3    H142284   6.112   0.565  15.374  0.4020  0.4268 -0.1680
 6931TIP3    H242285   6.156   0.428  15.420  0.4137  0.4482 -0.1151
 6932TIP3   OH242286   4.332   0.492  11.239  0.2068  0.2287 -0.0761
 6932TIP3    H142287   4.312   0.466  11.149 -2.3797  2.5931 -0.2518
 6932TIP3    H242288   4.378   0.575  11.231  0.6018  0.0986  0.7544
 6933TIP3   OH242289   3.101   1.423   4.433 -0.6788  0.1093 -0.6736
 6933TIP3    H142290   3.083   1.490   4.499  1.0804  0.8447 -0.9042
 6933TIP3    H242291   3.118   1.473   4.352 -0.7060 -0.6791 -1.1729
 6934TIP3   OH242292   0.396   6.028   5.426 -0.1776 -0.5459  0.3561
 6934TIP3    H142293   0.395   5.978   5.344  0.2284 -1.1506  0.7141
 6934TIP3    H242294   0.389   6.120   5.398 -0.4397 -0.7710 -0.3330
 6935TIP3   OH242295   4.314   1.760  15.295 -0.1069  0.0327 -0.3333
 6935TIP3    H142296   4.271   1.838  15.260 -0.2700 -0.0418 -0.2995
 6935TIP3    H242297   4.243   1.698  15.310 -0.2567  0.7054  1.8497
 6936TIP3   OH242298   4.043   3.466   2.597  0.6867 -0.1235  0.6575
 6936TIP3    H142299   4.036   3.429   2.509  0.4453  1.1870  0.1117
 6936TIP3    H242300   3.967   3.433   2.644  2.0472 -2.7658  1.1343
 6937TIP3   OH242301   4.638   1.350  12.458  0.0253 -0.2657 -0.2926
 6937TIP3    H142302   4.619   1.320  12.547 -2.3617  1.7741 -0.0724
 6937TIP3    H242303   4.574   1.305  12.403  1.4328 -1.4460 -0.9930
 6938TIP3   OH242304   1.124   2.686   3.743  0.3191 -0.1845  0.6538
 6938TIP3    H142305   1.042   2.697   3.790  0.4053 -0.2873  0.8302
 6938TIP3    H242306   1.116   2.600   3.701 -1.2418  1.4047 -2.4996
 6939TIP3   OH242307   5.544   4.039   6.436  0.7099 -0.7334 -0.1448
 6939TIP3    H142308   5.575   4.116   6.388  0.1997  0.7527  1.8388
 6939TIP3    H242309   5.556   4.062   6.528 -3.3412 -1.3175  0.6173
 6940TIP3   OH242310   2.485   2.007  11.155  0.0933  0.1323  0.4197
 6940TIP3    H142311   2.394   1.989  11.132  0.2437  0.3884 -0.4091
 6940TIP3    H242312   2.481   2.086  11.209 -0.0988  0.7633 -0.4932
 6941TIP3   OH242313   0.117   2.740  12.166 -0.4634  0.3032  0.2636
 6941TIP3    H142314   0.042   2.777  12.121  0.7049  2.4537  0.0036
 6941TIP3    H242315   0.132   2.655  12.124 -2.7794 -0.2004  0.4122
 6942TIP3   OH242316   1.910   6.149  16.680  0.0188 -0.5841  0.2701
 6942TIP3    H142317   1.991   6.154  16.732 -0.6292  1.0486  1.1382
 6942TIP3    H242318   1.872   6.236  16.685 -1.8166 -1.3350 -0.1354
 6943TIP3   OH242319   2.909   5.984   4.195  0.1562 -0.0185 -0.4083
 6943TIP3    H142320   2.839   5.956   4.136  1.2905 -0.5165 -1.5557
 6943TIP3    H242321   2.959   6.047   4.143  0.4144  0.5025  0.4788
 6944TIP3   OH242322   0.109   2.213   1.159 -0.5851  0.2814  0.7140
 6944TIP3    H142323   0.127   2.251   1.074  0.1985 -0.3417  0.5991
 6944TIP3    H242324   0.014   2.209   1.164 -0.6249 -0.0223 -0.2793
 6945TIP3   OH242325   5.599   6.228  17.185  0.8513  0.2845 -0.0820
 6945TIP3    H142326   5.575   6.214  17.094  1.2444  1.5529 -0.3977
 6945TIP3    H242327   5.519   6.264  17.225  1.3181  1.7993 -0.4596
 6946TIP3   OH242328   5.412   5.154  11.368  0.4576  0.2300 -0.3136
 6946TIP3    H142329   5.396   5.060  11.371 -2.5619  0.7448  0.5552
 6946TIP3    H242330   5.440   5.171  11.277  3.1802 -1.7683  0.0947
 6947TIP3   OH242331   3.468   4.489   3.534  0.2182  0.3446  0.0539
 6947TIP3    H142332   3.470   4.584   3.528  0.9043  0.2405 -1.8725
 6947TIP3    H242333   3.375   4.466   3.537 -0.0015  0.9719 -1.6834
 6948TIP3   OH242334   6.138   2.270   5.160  0.6676 -0.3020  0.2916
 6948TIP3    H142335   6.056   2.245   5.203  0.0116  0.0318 -0.7404
 6948TIP3    H242336   6.168   2.190   5.116  1.4485 -0.6984  1.5277
 6949TIP3   OH242337   3.898   4.978  16.276 -0.7496  0.2002  0.2191
 6949TIP3    H142338   3.841   4.974  16.199  0.4360  0.8204 -0.7065
 6949TIP3    H242339   3.980   5.014  16.243  0.3806 -1.2390  1.4305
 6950TIP3   OH242340   1.221   1.448   4.516 -0.3899 -0.2181 -0.3151
 6950TIP3    H142341   1.159   1.383   4.482  0.9751 -2.8055  1.8795
 6950TIP3    H242342   1.298   1.440   4.460 -0.0238 -0.8915  0.2775
 6951TIP3   OH242343   4.663   6.768   1.303  0.0001  0.0787 -0.0909
 6951TIP3    H142344   4.667   6.797   1.394  1.7667  0.3535 -0.2485
 6951TIP3    H242345   4.582   6.716   1.298  0.6112 -1.1059  1.9676
 6952TIP3   OH242346   5.648   5.536   2.582 -0.3053  0.1618 -0.4864
 6952TIP3    H142347   5.587   5.463   2.571  0.3527 -0.5667  0.5988
 6952TIP3    H242348   5.605   5.595   2.644  0.1488 -0.4320  0.4067
 6953TIP3   OH242349   1.773   5.852   4.034 -0.3901  0.1439 -0.5724
 6953TIP3    H142350   1.725   5.819   4.110  0.7251  0.5053  0.2958
 6953TIP3    H242351   1.716   5.832   3.959 -2.4532  1.6485  0.5411
 6954TIP3   OH242352   4.977   0.053  11.791  0.3287 -0.7800  0.2831
 6954TIP3    H142353   5.017   0.140  11.793  0.9760 -1.0418 -0.9431
 6954TIP3    H242354   5.002   0.017  11.707  0.2200 -2.2438  0.8651
 6955TIP3   OH242355   6.132   5.175   3.644 -0.3411  0.2285 -0.1018
 6955TIP3    H142356   6.193   5.104   3.623 -0.0060 -0.2446  2.3414
 6955TIP3    H242357   6.052   5.131   3.671  0.0469  0.7054  1.9580
 6956TIP3   OH242358   4.699   0.149   0.676 -0.1463  0.0366  0.5657
 6956TIP3    H142359   4.647   0.169   0.754  1.8527  1.4751  1.5718
 6956TIP3    H242360   4.789   0.169   0.702  0.6639 -0.4541 -1.7886
 6957TIP3   OH242361   0.684   5.030   1.841  0.4805 -0.3491  0.0307
 6957TIP3    H142362   0.616   5.043   1.908  1.8387 -1.2634  1.6096
 6957TIP3    H242363   0.636   5.031   1.759 -1.6953 -2.5320  1.2031
 6958TIP3   OH242364   3.294   3.528  14.781 -0.0175  0.6130  0.3574
 6958TIP3    H142365   3.206   3.513  14.746 -0.1381 -1.1545  1.3478
 6958TIP3    H242366   3.284   3.514  14.876  0.7194  3.3546  0.8787
 6959TIP3   OH242367   2.680   5.872  16.180  0.1617 -0.2974  0.1852
 6959TIP3    H142368   2.706   5.824  16.101 -1.0764  1.1535 -1.1455
 6959TIP3    H242369   2.742   5.844  16.247  1.5608 -1.1674 -1.4430
 6960TIP3   OH242370   0.935   0.623  11.960  0.4295  0.1902  0.1764
 6960TIP3    H142371   0.911   0.540  11.918  1.9131 -0.0368 -0.2636
 6960TIP3    H242372   0.917   0.690  11.894  1.0717  0.0133 -0.1846
 6961TIP3   OH242373   1.699   2.958   4.325  0.1185  0.3560 -0.2918
 6961TIP3    H142374   1.731   2.936   4.237  0.1933  2.6576 -0.8580
 6961TIP3    H242375   1.607   2.981   4.311 -0.8279 -2.4888  0.7682
 6962TIP3   OH242376   4.037   0.619   3.905  0.3395  0.0105  0.3070
 6962TIP3    H142377   4.014   0.538   3.950  1.2284 -0.8992 -0.8288
 6962TIP3    H242378   4.121   0.599   3.863  0.3257  1.3657 -0.3681
 6963TIP3   OH242379   4.418   4.107   4.287 -0.3224 -0.2091  0.7897
 6963TIP3    H142380   4.513   4.093   4.294  0.5318  2.5337 -3.1291
 6963TIP3    H242381   4.380   4.020   4.298  2.5962 -1.2994  2.9464
 6964TIP3   OH242382   1.718   0.885   5.371  0.5163 -0.0933 -0.0728
 6964TIP3    H142383   1.754   0.973   5.367  1.7286 -0.5218  0.9441
 6964TIP3    H242384   1.740   0.854   5.459 -1.8314 -0.5963  0.3680
 6965TIP3   OH242385   0.845   2.676   0.804 -0.0411  0.3177  0.3867
 6965TIP3    H142386   0.801   2.756   0.833  2.7791  1.3485  1.9230
 6965TIP3    H242387   0.834   2.615   0.877 -0.0893  0.0998  0.1986
 6966TIP3   OH242388   2.018   2.850  16.223 -0.6762  0.0949  0.4817
 6966TIP3    H142389   2.006   2.917  16.290  1.9665  0.5340  0.5778
 6966TIP3    H242390   1.949   2.786  16.240 -0.7340  0.7534  2.9436
 6967TIP3   OH242391   5.688   3.983  11.320  0.6188 -0.1403 -0.1234
 6967TIP3    H142392   5.723   3.932  11.246  0.9855 -0.0447 -0.0173
 6967TIP3    H242393   5.697   3.924  11.395  1.7494  0.3532  0.1398
 6968TIP3   OH242394   2.774   6.226  16.903  0.4981 -0.0935 -0.4396
 6968TIP3    H142395   2.784   6.194  16.993  0.0590 -0.1406 -0.4042
 6968TIP3    H242396   2.762   6.147  16.851  1.1911 -0.0931 -0.6003
 6969TIP3   OH242397   5.854   5.009   5.848 -0.2757  0.7138 -0.0644
 6969TIP3    H142398   5.814   5.000   5.934  1.9166  1.4564  1.0696
 6969TIP3    H242399   5.916   5.081   5.858  0.7097  0.1680 -1.9990
 6970TIP3   OH242400   4.261   0.104  12.193 -0.4472  0.0147  0.7755
 6970TIP3    H142401   4.279   0.013  12.212 -1.2944 -0.4708 -0.5975
 6970TIP3    H242402   4.234   0.142  12.276 -1.5264 -1.3653  1.0737
 6971TIP3   OH242403   2.992   6.479   1.731 -0.2578 -0.5552  0.2857
 6971TIP3    H142404   3.065   6.514   1.781  0.1207 -1.5062  0.4066
 6971TIP3    H242405   3.028   6.464   1.643 -0.5371 -0.2448  0.1134
 6972TIP3   OH242406   3.418   5.013   5.105  0.2751  0.3202 -0.4898
 6972TIP3    H142407   3.512   5.011   5.122  0.0394  1.1313  1.0580
 6972TIP3    H242408   3.388   5.092   5.150 -1.2209 -0.2094 -0.5477
 6973TIP3   OH242409   4.872   1.861   0.011 -0.4224 -0.7913 -0.1018
 6973TIP3    H142410   4.839   1.867   0.100  0.4540  1.2034  0.1151
 6973TIP3    H242411   4.797   1.883  -0.044 -0.6238 -0.7413  0.1919
 6974TIP3   OH242412   1.268   5.724   0.605  0.1894 -0.2179 -0.8019
 6974TIP3    H142413   1.341   5.751   0.661  0.3941 -0.8435 -0.7736
 6974TIP3    H242414   1.308   5.668   0.539 -0.6156 -2.3588  0.5105
 6975TIP3   OH242415   6.306   3.987   4.592  0.2113  0.0359  0.9675
 6975TIP3    H142416   6.249   4.063   4.579 -0.3129 -0.3854  0.7885
 6975TIP3    H242417   6.378   4.020   4.645  0.0617  0.6953  0.7577
 6976TIP3   OH242418   4.660   4.815   2.751 -0.5424  0.1866 -0.2025
 6976TIP3    H142419   4.601   4.739   2.746  0.3289 -0.4186 -1.5102
 6976TIP3    H242420   4.623   4.877   2.688 -1.0847  0.7394  0.6521
 6977TIP3   OH242421   4.552   2.857  13.211  0.0680  0.1001  0.2575
 6977TIP3    H142422   4.642   2.842  13.183  0.2880  1.3459  0.2468
 6977TIP3    H242423   4.502   2.863  13.130  0.1681  0.5412  0.2277
 6978TIP3   OH242424   5.626   1.024   3.044  0.4805 -0.5093  0.2581
 6978TIP3    H142425   5.700   1.006   2.985  1.3032 -1.2113  1.4799
 6978TIP3    H242426   5.643   0.968   3.120 -0.1781  0.9318  1.4777
 6979TIP3   OH242427   4.235   0.388   3.907 -0.5946  0.0032 -0.7492
 6979TIP3    H142428   4.170   0.338   3.956  0.4082 -1.0475 -0.4793
 6979TIP3    H242429   4.278   0.323   3.851  0.8441  0.5038 -0.2609
 6980TIP3   OH242430   5.307   5.923   4.191  0.2338  0.2261 -0.5015
 6980TIP3    H142431   5.318   5.887   4.279  0.2765  1.3001 -0.0651
 6980TIP3    H242432   5.374   5.991   4.184 -0.4794  0.8879 -0.9662
 6981TIP3   OH242433   1.938   1.049   1.638  0.3986  0.4800 -0.4763
 6981TIP3    H142434   1.875   1.020   1.704 -1.4581  0.6419 -2.1288
 6981TIP3    H242435   1.975   1.129   1.674  0.5224 -0.2484  1.0508
 6982TIP3   OH242436   4.733   2.129   1.975  0.1632 -0.7528 -0.2555
 6982TIP3    H142437   4.718   2.207   1.922 -0.0360 -1.1874 -0.8525
 6982TIP3    H242438   4.651   2.117   2.023  1.2434  1.1326  2.1601
 6983TIP3   OH242439   2.255   5.170  17.052  0.2653 -0.4651  0.1604
 6983TIP3    H142440   2.236   5.251  17.099  0.5480  0.2270 -0.8833
 6983TIP3    H242441   2.253   5.196  16.959 -0.3597 -1.8048 -0.2105
 6984TIP3   OH242442   0.426   6.149   0.966  0.3849 -0.3006  0.2649
 6984TIP3    H142443   0.366   6.126   0.896  0.3300  1.1165 -0.1695
 6984TIP3    H242444   0.454   6.238   0.946  0.9774 -0.1597  1.6199
 6985TIP3   OH242445   4.293   0.079  15.636 -0.2619  0.2722 -0.7132
 6985TIP3    H142446   4.268   0.134  15.710  0.3132  1.3871 -1.3346
 6985TIP3    H242447   4.330   0.000  15.676 -0.1802  0.7599  0.1844
 6986TIP3   OH242448   5.595   4.403   3.723 -0.2778 -0.3402  0.7061
 6986TIP3    H142449   5.676   4.369   3.761 -1.1984 -2.1611  1.0786
 6986TIP3    H242450   5.572   4.341   3.654 -0.2565  1.3126 -0.8326
 6987TIP3   OH242451   0.261   1.484   5.959 -0.3636 -0.0141 -0.3860
 6987TIP3    H142452   0.345   1.483   5.914 -0.3296 -1.6836 -0.3162
 6987TIP3    H242453   0.284   1.499   6.051 -0.2080  0.3538 -0.4824
 6988TIP3   OH242454   1.123   5.649  14.451 -0.0152  0.1883  0.0141
 6988TIP3    H142455   1.082   5.615  14.372  1.1427  0.7069 -0.8092
 6988TIP3    H242456   1.217   5.645  14.434  0.2075  1.3979  0.9101
 6989TIP3   OH242457   6.339   5.803   3.253  0.4652 -0.2793 -0.0401
 6989TIP3    H142458   6.382   5.885   3.229  1.2560 -0.4992  0.6093
 6989TIP3    H242459   6.356   5.745   3.179  4.5209 -1.5565  1.7746
 6990TIP3   OH242460   1.304   5.886  13.701 -0.4127 -0.2045 -0.1588
 6990TIP3    H142461   1.273   5.802  13.667  0.4671 -0.5136 -0.1996
 6990TIP3    H242462   1.362   5.863  13.774 -2.4749  0.4468  1.7527
 6991TIP3   OH242463   6.294   1.395  14.728  0.4673 -0.0685 -0.8266
 6991TIP3    H142464   6.276   1.488  14.744 -0.6220  0.0219 -2.4228
 6991TIP3    H242465   6.209   1.359  14.705  0.5732 -1.8502  1.4612
 6992TIP3   OH242466   4.972   0.670  12.482  0.1840  0.1495  0.2569
 6992TIP3    H142467   4.941   0.756  12.509  2.7053  0.6518  1.6550
 6992TIP3    H242468   4.903   0.610  12.510 -0.7457  1.5034  0.9331
 6993TIP3   OH242469   4.042   4.278   1.981 -0.4186  0.0629  0.0066
 6993TIP3    H142470   4.077   4.236   1.903  0.0573 -0.4105  0.4647
 6993TIP3    H242471   4.117   4.283   2.041 -0.8801  0.0065  0.5964
 6994TIP3   OH242472   4.574   4.043  14.690  0.4422  0.2252  0.7627
 6994TIP3    H142473   4.549   4.114  14.749  1.6409  0.9977  0.3729
 6994TIP3    H242474   4.603   4.088  14.610  1.0655 -0.7040  0.4572
 6995TIP3   OH242475   6.553   6.498  11.428 -0.1476 -0.0683 -0.4765
 6995TIP3    H142476   6.522   6.588  11.438  0.7862  0.5287 -2.7640
 6995TIP3    H242477   6.506   6.465  11.352  1.1332 -0.7883 -0.9657
 6996TIP3   OH242478   4.595   1.336   0.394  0.2581 -0.1676 -0.1815
 6996TIP3    H142479   4.651   1.387   0.453  1.5702 -0.0672 -1.4723
 6996TIP3    H242480   4.580   1.254   0.440  0.6010  0.2254  0.6429
 6997TIP3   OH242481   2.874   1.714  16.727  0.1544 -0.1697  0.4301
 6997TIP3    H142482   2.943   1.700  16.792 -1.1959 -1.4737  1.5973
 6997TIP3    H242483   2.814   1.775  16.768 -1.0206 -1.4670  0.6468
 6998TIP3   OH242484   3.208   5.463   3.300  0.1237  0.2461 -0.6898
 6998TIP3    H142485   3.114   5.477   3.307  0.1948  1.1298 -1.4114
 6998TIP3    H242486   3.246   5.518   3.369  0.2722  2.0446 -2.1733
 6999TIP3   OH242487   5.886   0.738   3.826  0.3141  0.4866 -0.6668
 6999TIP3    H142488   5.960   0.774   3.875  0.9619  0.2863 -1.4824
 6999TIP3    H242489   5.809   0.759   3.879  0.5996  3.6951 -1.4287
 7000TIP3   OH242490   4.520   6.198   6.038  0.1205 -0.3007 -0.3266
 7000TIP3    H142491   4.567   6.208   5.955  0.7305  0.4994  0.1162
 7000TIP3    H242492   4.589   6.186   6.104 -0.3422 -0.4567  0.1352
 7001TIP3   OH242493   0.198   3.732   4.019  0.2119  0.1443  0.2288
 7001TIP3    H142494   0.109   3.732   3.985  0.6095  2.1342 -0.8250
 7001TIP3    H242495   0.223   3.824   4.025  3.0168 -0.4079 -1.6533
 7002TIP3   OH242496   5.996   3.218  12.528  0.2487 -0.1942  0.2987
 7002TIP3    H142497   5.999   3.220  12.623 -1.7881  1.4936  0.3659
 7002TIP3    H242498   6.044   3.296  12.500 -2.7995  1.7049  0.1203
 7003TIP3   OH242499   0.940   1.100  15.261 -0.3176  0.3446 -0.9275
 7003TIP3    H142500   1.025   1.063  15.288 -0.6278 -0.3670 -0.9285
 7003TIP3    H242501   0.906   1.038  15.197 -1.1219  0.3227 -0.4834
 7004TIP3   OH242502   5.314   5.692   5.568 -0.2607  0.5032  0.7817
 7004TIP3    H142503   5.350   5.631   5.633 -0.1725 -1.8739 -1.4065
 7004TIP3    H242504   5.220   5.692   5.584 -0.5572 -2.1053 -0.6775
 7005TIP3   OH242505   3.956   6.688   2.524 -0.3312  0.2072 -0.0261
 7005TIP3    H142506   3.900   6.718   2.595  1.6696  1.1309  1.1931
 7005TIP3    H242507   3.963   6.593   2.537 -1.8261  0.0305 -0.3836
 7006TIP3   OH242508   4.705   5.611  12.543 -0.5097 -0.1557 -0.2147
 7006TIP3    H142509   4.757   5.631  12.620  1.4011  1.2304 -1.8092
 7006TIP3    H242510   4.625   5.663  12.554 -0.9661 -1.1935  1.5664
 7007TIP3   OH242511   1.150   6.357   1.293 -0.1347  0.0731 -0.0247
 7007TIP3    H142512   1.149   6.276   1.345  2.0165 -0.3626 -0.5916
 7007TIP3    H242513   1.058   6.378   1.279 -0.7587 -2.6914 -0.4508
 7008TIP3   OH242514   1.306   0.521  14.773  0.2830  0.0722 -0.1915
 7008TIP3    H142515   1.393   0.559  14.764  1.1187 -1.8521 -0.6873
 7008TIP3    H242516   1.296   0.467  14.694 -1.9349  1.3717 -0.8252
 7009TIP3   OH242517   2.145   6.747   0.323 -0.3608  0.8988 -0.0577
 7009TIP3    H142518   2.130   6.817   0.259 -1.0222  1.8325  1.1107
 7009TIP3    H242519   2.228   6.769   0.364 -0.3714  0.7778  0.0292
 7010TIP3   OH242520   2.041   0.808   2.546 -0.3944  0.2031  0.7956
 7010TIP3    H142521   2.128   0.802   2.505 -0.9923  0.0482 -0.4983
 7010TIP3    H242522   2.030   0.902   2.564  0.2660  0.1536  1.4660
 7011TIP3   OH242523   2.443   2.989   1.281 -0.5948 -0.1483 -0.5928
 7011TIP3    H142524   2.352   2.998   1.311 -0.3825  1.0725 -0.2747
 7011TIP3    H242525   2.481   2.923   1.338 -1.1497 -0.3178 -0.4107
 7012TIP3   OH242526   1.968   6.624  13.495  0.6468  0.2413  0.2701
 7012TIP3    H142527   1.971   6.538  13.454 -3.5297 -0.6148  1.5411
 7012TIP3    H242528   1.939   6.683  13.425  0.7055  0.1120  0.1363
 7013TIP3   OH242529   6.025   5.198   1.492 -0.2451  0.3777 -0.2317
 7013TIP3    H142530   6.013   5.191   1.398  1.8430  2.0702 -0.6773
 7013TIP3    H242531   5.986   5.119   1.528  0.1942 -0.9699 -2.6342
 7014TIP3   OH242532   1.389   6.717   5.813  0.5812 -0.3930  0.0188
 7014TIP3    H142533   1.319   6.654   5.831 -0.9760  1.8837  2.3566
 7014TIP3    H242534   1.371   6.749   5.725 -1.8102  0.6997  0.8662
 7015TIP3   OH242535   1.629   6.651  15.015  0.4582 -0.2299  0.0481
 7015TIP3    H142536   1.687   6.679  14.944  1.6064  1.1354  1.4709
 7015TIP3    H242537   1.669   6.688  15.094 -2.3413  0.7058  1.0868
 7016TIP3   OH242538   0.559   5.635   5.474  0.1493 -0.1715  0.3979
 7016TIP3    H142539   0.480   5.655   5.424  1.6157 -1.9003 -2.7809
 7016TIP3    H242540   0.534   5.563   5.531 -0.7579 -0.3064 -0.1639
 7017TIP3   OH242541   0.996   5.313   3.511 -0.6574  0.2732  0.2734
 7017TIP3    H142542   1.057   5.370   3.464  1.2388 -1.7482  0.2152
 7017TIP3    H242543   0.925   5.372   3.539  1.4484  2.7478  0.6080
 7018TIP3   OH242544   1.762   6.685  14.738  0.0641  0.4198 -0.1309
 7018TIP3    H142545   1.737   6.767  14.694  0.4928  1.1426  0.9639
 7018TIP3    H242546   1.777   6.623  14.666 -0.8342  1.1369 -0.9486
 7019TIP3   OH242547   1.730   1.280  11.340 -0.4214 -0.2492  0.6779
 7019TIP3    H142548   1.676   1.211  11.302 -0.5774 -0.0559  0.5422
 7019TIP3    H242549   1.812   1.274  11.292 -0.1145 -0.9162  1.2842
 7020TIP3   OH242550   6.478   6.168   0.505  0.2251  0.2234 -0.0787
 7020TIP3    H142551   6.464   6.083   0.464 -3.6570  1.5137 -1.7089
 7020TIP3    H242552   6.405   6.176   0.567  1.8683  1.4136  1.7429
 7021TIP3   OH242553   2.402   3.103   2.207  0.4825  0.1269  0.1794
 7021TIP3    H142554   2.327   3.154   2.176 -1.4950 -1.8910  1.4863
 7021TIP3    H242555   2.451   3.164   2.263  0.1307  1.6230 -1.0998
 7022TIP3   OH242556   4.035   3.281   0.991  0.4421  0.0277  0.8515
 7022TIP3    H142557   4.076   3.323   0.915  0.8983 -1.7191  0.1033
 7022TIP3    H242558   4.062   3.334   1.065 -0.5484  2.1408 -0.2759
 7023TIP3   OH242559   6.061   2.575   4.215 -0.1767 -0.1859 -0.6099
 7023TIP3    H142560   6.004   2.652   4.217 -0.8232 -0.5802 -2.6042
 7023TIP3    H242561   6.134   2.597   4.273 -1.2231  1.2261  0.1996
 7024TIP3   OH242562   0.764   2.958  14.364 -0.2417  1.3314 -0.0650
 7024TIP3    H142563   0.713   2.877  14.356  0.6076  0.6087  1.5487
 7024TIP3    H242564   0.706   3.019  14.409  0.1936  0.5889  1.5507
 7025TIP3   OH242565   4.938   3.842  13.546 -0.3921 -0.0661  0.7657
 7025TIP3    H142566   4.861   3.787  13.531  0.8897 -1.3520 -1.3170
 7025TIP3    H242567   5.009   3.781  13.561  0.4310  1.1059  1.7129
 7026TIP3   OH242568   6.450   0.145  14.999 -0.2716 -0.0187  0.6071
 7026TIP3    H142569   6.505   0.218  14.971 -1.1917  0.5122  0.1505
 7026TIP3    H242570   6.363   0.184  15.012 -1.0386 -1.2257 -0.7551
 7027TIP3   OH242571   1.071   5.422  13.584  0.3859 -0.1061 -0.1217
 7027TIP3    H142572   1.043   5.351  13.526  1.5721  0.0646 -0.9061
 7027TIP3    H242573   0.989   5.459  13.617 -0.3206  0.1225 -2.0662
 7028TIP3   OH242574   0.105   2.140  17.124 -0.0098 -0.2798 -0.2948
 7028TIP3    H142575   0.039   2.201  17.093  0.9884  0.4974 -0.9368
 7028TIP3    H242576   0.145   2.105  17.045  1.8062  0.8870  0.0609
 7029TIP3   OH242577   6.748   4.983   0.861 -0.4264  0.0674  0.6320
 7029TIP3    H142578   6.800   5.056   0.894 -2.4772  1.4371  0.8939
 7029TIP3    H242579   6.769   4.979   0.768 -1.8587  2.3610  0.1754
 7030TIP3   OH242580   1.871   2.024  14.467  0.1355 -0.6322 -0.0693
 7030TIP3    H142581   1.878   2.093  14.533 -0.3901  1.6729 -2.3432
 7030TIP3    H242582   1.925   1.953  14.501  2.0316  1.5112  1.5853
 7031TIP3   OH242583   4.215   1.157   2.938 -0.1969 -0.6797 -0.1341
 7031TIP3    H142584   4.150   1.201   2.991 -1.3228 -1.7979 -0.5622
 7031TIP3    H242585   4.167   1.125   2.862  1.4929  1.4444 -2.1832
 7032TIP3   OH242586   5.700   2.822  12.313  0.5434 -0.4654  0.9542
 7032TIP3    H142587   5.779   2.823  12.367  1.6057  3.2513 -0.5088
 7032TIP3    H242588   5.730   2.841  12.224 -1.6469 -2.2796 -0.2460
 7033TIP3   OH242589   3.436   3.632  13.442  0.1530  0.1092 -0.1323
 7033TIP3    H142590   3.431   3.546  13.399 -2.9432  0.8544 -1.3756
 7033TIP3    H242591   3.400   3.618  13.530  0.8937 -0.1457  0.1308
 7034TIP3   OH242592   4.898   1.942   3.542 -0.5263 -0.0541  0.1824
 7034TIP3    H142593   4.908   1.849   3.525  0.0752  0.2579 -1.2377
 7034TIP3    H242594   4.983   1.970   3.575 -0.3177  0.2277 -0.5733
 7035TIP3   OH242595   4.734   3.474  14.508  0.4620 -0.9009 -0.5141
 7035TIP3    H142596   4.750   3.387  14.545  0.4783 -0.2486  1.0714
 7035TIP3    H242597   4.784   3.475  14.427  3.0587 -1.2445  1.0291
 7036TIP3   OH242598   5.221   2.753  17.231 -0.2885  0.1560  0.0311
 7036TIP3    H142599   5.315   2.733  17.235 -0.0578  0.9804 -0.9289
 7036TIP3    H242600   5.203   2.803  17.310  0.1458  0.2660  0.0596
 7037TIP3   OH242601   6.291   2.570   5.439  0.1958  0.4789  0.1354
 7037TIP3    H142602   6.251   2.596   5.522 -0.1953  1.3718 -0.3205
 7037TIP3    H242603   6.367   2.629   5.430  0.4406  0.1472  0.0294
 7038TIP3   OH242604   0.084   2.526   2.212 -0.1294 -0.1098  0.1682
 7038TIP3    H142605   0.142   2.477   2.154  1.4329 -0.4311  1.9566
 7038TIP3    H242606   0.015   2.560   2.154  2.3242  1.0775 -2.1880
 7039TIP3   OH242607   1.185   4.555   1.492  0.1052 -0.4525 -0.6845
 7039TIP3    H142608   1.160   4.489   1.428 -1.3219  0.7644 -1.4072
 7039TIP3    H242609   1.191   4.636   1.441 -2.1165  0.7427  0.8648
 7040TIP3   OH242610   2.200   3.848  12.167  0.1103 -0.1071 -0.3565
 7040TIP3    H142611   2.155   3.820  12.246  0.4722 -0.6768 -0.3545
 7040TIP3    H242612   2.275   3.789  12.159 -0.2747 -0.4634 -1.4659
 7041TIP3   OH242613   1.314   2.375   5.972 -0.4558  0.4608 -0.8786
 7041TIP3    H142614   1.408   2.393   5.982 -0.0735 -1.1986 -1.4199
 7041TIP3    H242615   1.279   2.383   6.061  0.3302  0.3124 -0.5502
 7042TIP3   OH242616   4.442   2.443  13.564  0.2211  0.1176 -0.0600
 7042TIP3    H142617   4.415   2.366  13.613 -2.1156 -0.1736 -1.7264
 7042TIP3    H242618   4.367   2.502  13.568  0.2762  0.4094 -2.5665
 7043TIP3   OH242619   2.603   4.632   1.343  0.3711  0.2426 -0.0697
 7043TIP3    H142620   2.624   4.725   1.348  1.0448  0.0475  0.7770
 7043TIP3    H242621   2.686   4.587   1.353 -0.0962 -0.4752  0.6806
 7044TIP3   OH242622   3.536   2.624  16.309 -0.8278 -0.3205  0.0126
 7044TIP3    H142623   3.547   2.713  16.344 -1.5488  0.3312 -1.4032
 7044TIP3    H242624   3.499   2.574  16.383 -0.6693  0.6065  0.7283
 7045TIP3   OH242625   4.142   4.065   2.784 -0.3373  0.0237 -0.0048
 7045TIP3    H142626   4.194   3.990   2.756 -0.6807  0.0267 -0.6802
 7045TIP3    H242627   4.206   4.130   2.814 -0.0151 -0.3628  0.1381
 7046TIP3   OH242628   3.272   0.594   5.076  0.2954  0.9051  0.1373
 7046TIP3    H142629   3.187   0.554   5.062  0.0046  1.3793  0.5321
 7046TIP3    H242630   3.282   0.596   5.171  1.0879  0.1396  0.0783
 7047TIP3   OH242631   2.888   1.580  13.509  0.5643  0.6566  0.6870
 7047TIP3    H142632   2.891   1.674  13.491  0.4751  0.2539 -1.5675
 7047TIP3    H242633   2.977   1.558  13.536  0.9510  1.1369 -0.1865
 7048TIP3   OH242634   0.995   3.834  13.535 -0.1402 -0.2353  0.5590
 7048TIP3    H142635   0.950   3.754  13.509  0.2267 -0.0523 -0.6706
 7048TIP3    H242636   1.084   3.806  13.557  0.0357 -0.1434 -0.0315
 7049TIP3   OH242637   2.537   5.617   2.712  0.1179 -0.4531  0.3526
 7049TIP3    H142638   2.524   5.675   2.786  0.1782  0.0748 -0.0509
 7049TIP3    H242639   2.475   5.545   2.726 -0.5320  0.1221  0.4208
 7050TIP3   OH242640   1.054   5.713  13.164 -0.3938  0.5936  0.9456
 7050TIP3    H142641   1.104   5.745  13.238 -0.6921  1.2631  0.8574
 7050TIP3    H242642   0.963   5.712  13.194 -0.4797  0.5764  0.6924
 7051TIP3   OH242643   2.882   5.768   3.374  1.0634  0.2303 -0.0236
 7051TIP3    H142644   2.872   5.673   3.367 -0.5420  0.4644 -1.1072
 7051TIP3    H242645   2.949   5.790   3.308  0.8658 -0.0589 -0.3228
 7052TIP3   OH242646   6.082   2.619  16.673 -0.4304  0.0120  0.0726
 7052TIP3    H142647   6.076   2.642  16.580 -0.3891  1.3715  0.3906
 7052TIP3    H242648   6.045   2.531  16.678 -0.8439  0.0968 -1.1689
 7053TIP3   OH242649   1.948   4.042  14.816 -0.5766  0.4928  0.3294
 7053TIP3    H142650   2.000   4.116  14.848 -0.5936  1.4385 -1.6815
 7053TIP3    H242651   1.992   4.016  14.735 -1.7263 -0.3978 -0.0173
 7054TIP3   OH242652   2.334   3.871  16.111  0.4912  0.1613  0.4420
 7054TIP3    H142653   2.364   3.791  16.066  1.4066  0.0854  1.1877
 7054TIP3    H242654   2.265   3.905  16.054 -0.6814 -1.7666  0.6767
 7055TIP3   OH242655   5.960   4.907  10.923  0.0711 -0.3491 -0.4595
 7055TIP3    H142656   6.041   4.902  10.974 -0.1362  2.4754  0.2092
 7055TIP3    H242657   5.891   4.883  10.985  0.1542 -0.2613 -0.3317
 7056TIP3   OH242658   3.032   5.964  17.273 -0.3082 -0.1286 -0.0834
 7056TIP3    H142659   3.051   5.872  17.251 -1.0575 -0.6677  1.4240
 7056TIP3    H242660   2.999   5.960  17.363 -0.8364  1.5727 -0.1927
 7057TIP3   OH242661   2.186   5.247  12.681  0.3468  0.5301 -0.0343
 7057TIP3    H142662   2.174   5.263  12.775  1.4597  0.3932  0.1450
 7057TIP3    H242663   2.144   5.322  12.638 -1.8752 -0.3793  0.4826
 7058TIP3   OH242664   1.437   6.032   4.348 -0.3548 -0.0408 -0.4595
 7058TIP3    H142665   1.408   6.014   4.437  0.9286  0.1077 -0.0115
 7058TIP3    H242666   1.431   5.948   4.303 -0.0147 -0.3319  0.0440
 7059TIP3   OH242667   1.286   6.704   2.650  0.4043 -1.0838  0.1791
 7059TIP3    H142668   1.247   6.717   2.736 -0.7107 -0.2821 -0.4259
 7059TIP3    H242669   1.255   6.779   2.598  2.2549 -0.7608 -0.5064
 7060TIP3   OH242670   2.718   2.813  13.805  0.1854 -0.3864  0.5054
 7060TIP3    H142671   2.662   2.826  13.729  0.8903 -1.9132 -0.3019
 7060TIP3    H242672   2.661   2.775  13.871 -0.5893  1.5898  0.9769
 7061TIP3   OH242673   1.099   4.460   4.510  0.0441  0.1470 -0.5025
 7061TIP3    H142674   1.080   4.374   4.470 -0.5577 -1.0672  2.3026
 7061TIP3    H242675   1.179   4.445   4.560  0.6259  1.5843 -0.9805
 7062TIP3   OH242676   5.798   1.183   0.966 -1.0205  0.1446  0.7315
 7062TIP3    H142677   5.844   1.250   1.017 -0.6628  0.8374 -0.4913
 7062TIP3    H242678   5.706   1.200   0.983 -0.9087  0.4729  1.0263
 7063TIP3   OH242679   5.781   0.908  16.914 -0.0056 -0.4450  0.0563
 7063TIP3    H142680   5.777   0.841  16.982  0.1381 -0.7988 -0.2751
 7063TIP3    H242681   5.845   0.873  16.851  0.1023  0.0274 -0.0945
 7064TIP3   OH242682   1.865   0.507  14.124 -0.2647  0.5245  0.1657
 7064TIP3    H142683   1.886   0.430  14.177 -1.2530 -0.5965 -1.0222
 7064TIP3    H242684   1.907   0.490  14.040  0.1082  1.6232  0.1277
 7065TIP3   OH242685   1.611   5.271   3.556 -0.5370  0.0766  0.8764
 7065TIP3    H142686   1.638   5.228   3.476 -0.7112  0.1378  0.7846
 7065TIP3    H242687   1.561   5.347   3.527  0.7278  0.9814  1.0256
 7066TIP3   OH242688   4.498   1.987   5.242 -0.0128  0.2943  0.2214
 7066TIP3    H142689   4.536   2.036   5.169  0.8556  1.0060  1.1307
 7066TIP3    H242690   4.404   1.999   5.233 -0.1131 -1.8235 -2.3216
 7067TIP3   OH242691   4.749   5.654   5.321  0.4241 -0.5764 -0.1151
 7067TIP3    H142692   4.666   5.634   5.278  0.4535  1.8677 -1.4064
 7067TIP3    H242693   4.816   5.639   5.254  0.9741 -1.6511  0.6473
 7068TIP3   OH242694   4.018   6.141   5.234  0.0588  0.3994  0.3476
 7068TIP3    H142695   4.019   6.100   5.321  2.4137  0.6393  0.4779
 7068TIP3    H242696   4.042   6.232   5.250  1.8140  0.1379 -0.6619
 7069TIP3   OH242697   1.030   1.943  11.277 -0.1548  0.5991 -0.4960
 7069TIP3    H142698   0.943   1.977  11.298 -0.6291 -0.9610  0.1794
 7069TIP3    H242699   1.066   1.916  11.361 -0.0137 -0.9996 -1.0424
 7070TIP3   OH242700   4.180   4.878   5.470  0.4814  0.2945  0.0758
 7070TIP3    H142701   4.276   4.880   5.477  0.3854  1.2453  1.2357
 7070TIP3    H242702   4.158   4.958   5.423  0.2188  0.3082  0.2207
 7071TIP3   OH242703   0.710   1.566   0.334 -0.0629 -0.0257 -0.3761
 7071TIP3    H142704   0.774   1.579   0.264 -1.5343 -1.2136 -1.9790
 7071TIP3    H242705   0.660   1.489   0.307 -2.1901  0.8883  0.8399
 7072TIP3   OH242706   3.816   1.433  14.929 -0.3340  0.3566  0.5361
 7072TIP3    H142707   3.810   1.432  15.024 -0.1227 -2.0386  0.5563
 7072TIP3    H242708   3.736   1.389  14.899  0.4554 -0.5295 -0.3120
 7073TIP3   OH242709   0.224   0.329  16.298 -0.2139  0.0475 -0.3716
 7073TIP3    H142710   0.143   0.279  16.289 -0.4613 -0.0454  2.0212
 7073TIP3    H242711   0.278   0.278  16.358 -0.0318  2.0870  1.2691
 7074TIP3   OH242712   0.209   1.703   2.065 -0.0410  0.1578  0.0446
 7074TIP3    H142713   0.262   1.623   2.070 -0.2468  0.0766  0.9009
 7074TIP3    H242714   0.273   1.772   2.048  0.3222  0.0337  0.8783
 7075TIP3   OH242715   5.643   1.901   1.194  0.0829  0.2719 -0.1974
 7075TIP3    H142716   5.720   1.868   1.241  0.1564  1.1025  0.2739
 7075TIP3    H242717   5.632   1.840   1.121  0.9657 -0.0667 -0.0568
 7076TIP3   OH242718   1.292   4.749  13.661  0.2607  0.3910 -0.0379
 7076TIP3    H142719   1.254   4.664  13.685  0.4829  0.7764  1.7751
 7076TIP3    H242720   1.363   4.727  13.600 -0.9474 -0.5587 -1.1355
 7077TIP3   OH242721   5.948   2.787  16.929  0.6451 -0.2139 -0.1881
 7077TIP3    H142722   5.944   2.721  16.998  2.9842  0.2810  0.4686
 7077TIP3    H242723   5.945   2.737  16.848  2.0297 -1.1200  0.2986
 7078TIP3   OH242724   0.792   4.367  17.248  0.4432  0.2828 -0.0484
 7078TIP3    H142725   0.865   4.425  17.227 -0.0025  0.5450 -0.9194
 7078TIP3    H242726   0.731   4.378  17.174 -1.6426  1.9602  1.8696
 7079TIP3   OH242727   2.742   1.689   4.332 -0.5680  0.1735 -0.3111
 7079TIP3    H142728   2.788   1.750   4.389 -0.8783 -0.4996  0.6579
 7079TIP3    H242729   2.708   1.622   4.390  1.1401 -1.8320 -1.5151
 7080TIP3   OH242730   0.610   1.851   1.265 -0.0324 -0.1236 -0.1219
 7080TIP3    H142731   0.534   1.792   1.268  1.3744 -1.9704  0.1567
 7080TIP3    H242732   0.629   1.862   1.172  0.4727 -1.1603 -0.1489
 7081TIP3   OH242733   0.136   4.325   3.897  0.1194  0.3540  0.5877
 7081TIP3    H142734   0.138   4.291   3.808 -0.3387 -1.3500  1.2055
 7081TIP3    H242735   0.056   4.376   3.902 -1.2567 -1.7905  0.8100
 7082TIP3   OH242736   5.425   3.816  13.820 -0.2698 -0.8282 -0.5195
 7082TIP3    H142737   5.335   3.822  13.789 -0.1038 -1.2316 -1.0889
 7082TIP3    H242738   5.418   3.790  13.911 -0.8088  1.3260  0.0899
 7083TIP3   OH242739   3.194   2.047   3.543  0.3264 -0.0822 -0.0112
 7083TIP3    H142740   3.288   2.027   3.545  0.1918 -0.6632  1.8697
 7083TIP3    H242741   3.190   2.143   3.536  1.0917  0.0788  1.5445
 7084TIP3   OH242742   2.032   0.961  12.728 -0.2389  0.0824 -0.0926
 7084TIP3    H142743   2.115   0.925  12.758 -0.0112  0.6978  0.0161
 7084TIP3    H242744   1.968   0.891  12.745  0.3406 -0.6072 -0.6835
 7085TIP3   OH242745   6.110   4.797  14.723 -0.2922 -0.0350 -0.3720
 7085TIP3    H142746   6.187   4.771  14.774 -1.3081  0.6197  1.5787
 7085TIP3    H242747   6.145   4.831  14.641  1.5875  1.2443  0.9165
 7086TIP3   OH242748   5.066   5.373  13.589 -0.8270 -0.0580 -0.3895
 7086TIP3    H142749   5.153   5.386  13.625 -1.5672 -0.3217  1.5277
 7086TIP3    H242750   5.070   5.413  13.502  1.1134  0.1495 -0.2218
 7087TIP3   OH242751   6.147   0.318  16.857 -0.3898 -0.1456  0.5066
 7087TIP3    H142752   6.075   0.257  16.872 -0.3896 -0.1370  0.5426
 7087TIP3    H242753   6.132   0.388  16.922  1.0212 -1.3511  2.1613
 7088TIP3   OH242754   1.165   5.938  15.604 -0.0259 -0.4604 -0.4789
 7088TIP3    H142755   1.083   5.984  15.588 -0.9673 -1.7337  0.5574
 7088TIP3    H242756   1.227   5.977  15.543 -1.1227  1.2718 -0.5191
 7089TIP3   OH242757   5.677   6.091  13.668 -0.3697  0.3438  0.4851
 7089TIP3    H142758   5.590   6.088  13.709 -0.1605  1.6458  1.0733
 7089TIP3    H242759   5.659   6.110  13.576 -0.7351 -0.0332  0.4742
 7090TIP3   OH242760   2.573   1.116  15.169  0.2224  0.3803 -0.7329
 7090TIP3    H142761   2.620   1.173  15.108  1.5342 -0.3900 -0.4719
 7090TIP3    H242762   2.531   1.051  15.113 -0.7253  1.1992 -0.9832
 7091TIP3   OH242763   0.196   5.081   1.340 -0.1108 -0.5315  0.4166
 7091TIP3    H142764   0.228   4.994   1.318  0.0496 -0.3664 -0.0197
 7091TIP3    H242765   0.195   5.128   1.256  0.1734  0.0038  0.7056
 7092TIP3   OH242766   5.951   5.072   1.866  0.0437  0.3239  0.0928
 7092TIP3    H142767   6.020   5.025   1.819  0.5335  0.2042  0.9198
 7092TIP3    H242768   5.869   5.031   1.836  0.4496 -0.8633  0.5952
 7093TIP3   OH242769   5.941   3.773   5.354 -0.2310 -0.1743 -0.1486
 7093TIP3    H142770   6.031   3.775   5.320 -0.0031 -0.5325  0.4133
 7093TIP3    H242771   5.897   3.845   5.311  0.7406  0.9261  0.6635
 7094TIP3   OH242772   6.474   2.888   4.260  0.7990 -0.1162 -0.0261
 7094TIP3    H142773   6.386   2.875   4.295  0.8004  1.9802  0.8151
 7094TIP3    H242774   6.460   2.941   4.181  1.2850  0.0495  0.0009
 7095TIP3   OH242775   6.604   4.463  16.421 -0.0121 -0.1818  0.0609
 7095TIP3    H142776   6.623   4.551  16.388  0.1072 -0.4195 -0.5172
 7095TIP3    H242777   6.650   4.405  16.360  0.1086 -0.6308  0.5828
 7096TIP3   OH242778   1.122   0.199   4.781  0.0133 -0.3131 -0.3210
 7096TIP3    H142779   1.081   0.263   4.840  0.4834 -1.8412  1.7386
 7096TIP3    H242780   1.174   0.251   4.721 -0.3653  1.3074  0.7251
 7097TIP3   OH242781   4.050   6.699   1.323 -0.5951 -0.0926  0.3778
 7097TIP3    H142782   3.962   6.736   1.336 -0.9772 -0.8204 -0.0838
 7097TIP3    H242783   4.093   6.710   1.407 -1.2792 -0.1139  0.7388
 7098TIP3   OH242784   5.414   3.318  17.148 -0.1705  0.2101  0.1229
 7098TIP3    H142785   5.433   3.358  17.063  0.2698 -1.4954 -0.5981
 7098TIP3    H242786   5.400   3.392  17.207 -0.0195  1.4129 -1.3309
 7099TIP3   OH242787   3.886   4.428   5.277  0.1994 -0.0460  0.3459
 7099TIP3    H142788   3.856   4.344   5.312  0.2662  0.1065  0.7690
 7099TIP3    H242789   3.806   4.477   5.260  0.1423 -0.3818 -0.3717
 7100TIP3   OH242790   1.191   6.260  16.819 -0.1157 -0.4045 -0.2069
 7100TIP3    H142791   1.180   6.305  16.735  0.7152  0.3192  0.0608
 7100TIP3    H242792   1.160   6.323  16.884  2.2359  0.3144  0.2772
 7101TIP3   OH242793   1.663   4.289   5.515 -0.3147 -0.3865 -0.0295
 7101TIP3    H142794   1.607   4.290   5.592 -0.2901  0.0437 -0.0123
 7101TIP3    H242795   1.615   4.340   5.450  0.0176 -0.0792 -0.0373
 7102TIP3   OH242796   2.622   1.169   3.167 -0.5770  0.3552 -0.1705
 7102TIP3    H142797   2.700   1.224   3.171  1.0576 -1.9196  0.2257
 7102TIP3    H242798   2.553   1.228   3.138  1.3160  2.3928 -0.7082
 7103TIP3   OH242799   0.848   0.926   0.096  0.3008  0.2914  0.5811
 7103TIP3    H142800   0.847   0.902   0.189  0.5925 -0.5883  0.3547
 7103TIP3    H242801   0.889   0.852   0.052  1.2643  1.2239 -0.1107
 7104TIP3   OH242802   5.701   5.867   5.635 -0.2692 -0.2417  0.6893
 7104TIP3    H142803   5.732   5.940   5.689 -0.0887 -0.8394  1.3984
 7104TIP3    H242804   5.766   5.860   5.565 -1.1019  1.2680 -0.2765
 7105TIP3   OH242805   0.644   4.338  13.183  0.4043  0.4768  0.2523
 7105TIP3    H142806   0.644   4.248  13.151 -0.8930  1.0098 -1.3090
 7105TIP3    H242807   0.728   4.374  13.156  1.5243 -0.6662  2.1048
 7106TIP3   OH242808   6.088   0.263  11.737  0.2586  0.3841  0.0363
 7106TIP3    H142809   6.169   0.233  11.697 -0.0118 -1.8756  1.1080
 7106TIP3    H242810   6.117   0.324  11.806  1.0554 -0.4749  0.4674
 7107TIP3   OH242811   0.464   6.381   4.128 -0.0396 -0.0881  0.3289
 7107TIP3    H142812   0.545   6.355   4.084  0.3549  1.3905  0.1664
 7107TIP3    H242813   0.432   6.455   4.078 -1.8694 -1.0652 -0.0077
 7108TIP3   OH242814   0.162   3.241  16.201  0.1763  0.0406  0.1708
 7108TIP3    H142815   0.195   3.301  16.268 -1.2965 -0.3168  1.2575
 7108TIP3    H242816   0.239   3.216  16.151  1.5315 -0.6873  2.5402
 7109TIP3   OH242817   0.764   2.121   4.769 -0.5115  0.0501 -0.3775
 7109TIP3    H142818   0.797   2.210   4.757  0.3634  0.0312  1.6355
 7109TIP3    H242819   0.813   2.068   4.706  2.2782  0.2737  1.5057
 7110TIP3   OH242820   0.353   1.239   2.304 -0.3818 -0.2852  0.6284
 7110TIP3    H142821   0.313   1.288   2.233  2.6638 -0.8908 -1.6023
 7110TIP3    H242822   0.420   1.298   2.339  1.4541 -1.7818 -0.2880
 7111TIP3   OH242823   1.996   0.061  16.146 -0.2036  0.2544 -0.3723
 7111TIP3    H142824   2.034   0.128  16.202  0.9258 -2.1877  1.8956
 7111TIP3    H242825   1.902   0.070  16.157 -0.0241  0.8086  0.6981
 7112TIP3   OH242826   4.134   1.452   3.877  0.0323 -0.1387 -0.1795
 7112TIP3    H142827   4.171   1.363   3.870 -2.5865 -1.1176 -2.3956
 7112TIP3    H242828   4.055   1.440   3.930  0.4480  1.1748  0.7629
 7113TIP3   OH242829   2.936   5.632   2.695  0.5325 -0.0993  0.0141
 7113TIP3    H142830   2.913   5.641   2.603  1.0071 -1.3839 -0.2392
 7113TIP3    H242831   2.933   5.721   2.730 -0.1590  0.3204 -1.1191
 7114TIP3   OH242832   4.253   1.705   3.273  0.4292 -0.0101  0.0639
 7114TIP3    H142833   4.204   1.626   3.249  0.7781  0.4825 -2.4336
 7114TIP3    H242834   4.199   1.748   3.339 -1.1855 -0.8585 -0.6756
 7115TIP3   OH242835   6.547   5.775  14.362  0.0339 -0.1129  0.8493
 7115TIP3    H142836   6.588   5.824  14.290 -2.7479  0.7901 -0.1641
 7115TIP3    H242837   6.548   5.684  14.333 -0.4648  0.1636 -0.0499
 7116TIP3   OH242838   3.594   4.950  16.127  0.8282 -0.8873 -0.0285
 7116TIP3    H142839   3.503   4.924  16.138 -0.6414  2.0451 -3.9877
 7116TIP3    H242840   3.602   5.030  16.179  0.5165  0.0031 -1.3262
 7117TIP3   OH242841   6.409   5.898   0.447 -0.3557 -0.8632 -0.0000
 7117TIP3    H142842   6.360   5.923   0.526  2.2495 -1.5796  1.8963
 7117TIP3    H242843   6.394   5.803   0.439 -1.3573 -0.6417 -0.9329
 7118TIP3   OH242844   4.845   2.560  15.600  0.6501 -0.0957 -0.1503
 7118TIP3    H142845   4.817   2.523  15.684 -1.1442  3.9991  1.1967
 7118TIP3    H242846   4.936   2.533  15.591  1.2084  0.1633  3.6629
 7119TIP3   OH242847   3.436   4.047  15.106  0.0543  0.1290  0.0758
 7119TIP3    H142848   3.446   4.007  15.192  4.4446  1.4306  0.2653
 7119TIP3    H242849   3.366   4.111  15.118 -1.2520 -1.5672  1.9154
 7120TIP3   OH242850   4.811   5.706  12.790  0.2417 -0.1887  0.7132
 7120TIP3    H142851   4.799   5.683  12.882 -0.1307 -0.4298  0.6058
 7120TIP3    H242852   4.849   5.794  12.791 -1.8507  0.7161  1.0443
 7121TIP3   OH242853   6.279   6.676  15.085 -0.5403  0.0922 -0.2625
 7121TIP3    H142854   6.185   6.663  15.072 -0.3390 -1.5142 -0.2770
 7121TIP3    H242855   6.301   6.753  15.033 -1.4979 -0.6745 -1.8575
 7122TIP3   OH242856   6.162   0.518  14.915  0.8586  0.4654  0.2555
 7122TIP3    H142857   6.157   0.613  14.928  1.3935  0.6254 -0.7280
 7122TIP3    H242858   6.247   0.503  14.875  0.4410 -0.3524 -0.3417
 7123TIP3   OH242859   0.995   2.134  12.618 -0.5077 -0.0528 -0.2916
 7123TIP3    H142860   1.051   2.073  12.665  1.7682  1.1364 -1.3745
 7123TIP3    H242861   0.948   2.182  12.686  2.0522  1.0192  0.7794
 7124TIP3   OH242862   3.187   2.738   0.175  0.0268 -0.1939 -0.1403
 7124TIP3    H142863   3.170   2.644   0.170 -0.6372  0.0054 -2.5525
 7124TIP3    H242864   3.281   2.746   0.157 -0.3429 -0.2836 -2.2984
 7125TIP3   OH242865   1.091   1.259  17.080 -0.2363  0.3694 -0.0565
 7125TIP3    H142866   1.138   1.336  17.112  1.1322 -0.6830  0.4577
 7125TIP3    H242867   1.049   1.223  17.158  0.1481 -0.1226 -0.0763
 7126TIP3   OH242868   6.255   5.585  14.488 -0.1536 -0.2137  0.3878
 7126TIP3    H142869   6.299   5.504  14.464 -1.4832 -0.7865 -0.1432
 7126TIP3    H242870   6.189   5.558  14.552 -1.1437  0.3209 -0.3933
 7127TIP3   OH242871   2.766   6.398  16.310 -0.6971  0.3328 -0.4401
 7127TIP3    H142872   2.698   6.375  16.374  0.3524 -1.2132  0.1549
 7127TIP3    H242873   2.837   6.435  16.362 -0.5074  0.6316 -0.9072
 7128TIP3   OH242874   3.160   2.188   2.871  0.6514 -0.0912 -0.7950
 7128TIP3    H142875   3.086   2.244   2.894  0.1305 -0.1159 -2.3157
 7128TIP3    H242876   3.227   2.248   2.839  1.0027 -0.1338 -0.1418
 7129TIP3   OH242877   6.677   0.269  12.951  0.0541 -0.1093 -0.0234
 7129TIP3    H142878   6.713   0.316  12.875 -3.1747 -0.7137 -2.0231
 7129TIP3    H242879   6.679   0.177  12.924 -2.4406 -0.1891  0.0314
 7130TIP3   OH242880   4.243   5.751  10.917 -0.4319 -0.0079 -0.0606
 7130TIP3    H142881   4.298   5.675  10.896 -1.4352 -0.2749 -1.7949
 7130TIP3    H242882   4.294   5.826  10.888 -0.2395 -0.1493 -0.0884
 7131TIP3   OH242883   1.663   5.370  15.388  0.0869  0.4363 -0.6759
 7131TIP3    H142884   1.608   5.444  15.413 -1.1735 -0.3562 -1.0434
 7131TIP3    H242885   1.693   5.391  15.299 -1.3726 -0.0993 -1.3123
 7132TIP3   OH242886   0.626   4.597  14.423  0.3664 -0.4323  0.6321
 7132TIP3    H142887   0.711   4.638  14.408  0.2024 -0.5790 -0.7338
 7132TIP3    H242888   0.577   4.612  14.342 -1.6721  1.4474  2.1612
 7133TIP3   OH242889   5.223   1.619   5.461  0.0851 -0.0016  0.1278
 7133TIP3    H142890   5.268   1.606   5.377  0.1579 -0.0474  0.1738
 7133TIP3    H242891   5.130   1.613   5.439  0.1084 -0.2456  0.0868
 7134TIP3   OH242892   6.500   5.723   0.704  0.1055 -0.0829  0.0678
 7134TIP3    H142893   6.463   5.811   0.708 -0.6791 -0.4185  0.2821
 7134TIP3    H242894   6.435   5.668   0.747  0.6048 -0.7657 -0.0465
 7135TIP3   OH242895   1.387   3.418  13.026 -1.2900 -0.4102  0.2380
 7135TIP3    H142896   1.478   3.447  13.035 -0.6132 -2.0184 -0.9404
 7135TIP3    H242897   1.365   3.382  13.112 -0.6212 -0.4643  0.3958
 7136TIP3   OH242898   1.135   1.400  15.930 -0.2824 -0.3074 -0.1285
 7136TIP3    H142899   1.152   1.348  16.008  0.6949  0.9286  0.5058
 7136TIP3    H242900   1.137   1.490  15.960  0.5168  0.2127 -1.6367
 7137TIP3   OH242901   3.132   3.683   1.078  0.6222 -0.2815 -0.0704
 7137TIP3    H142902   3.221   3.717   1.083  0.3097  0.4832  0.2175
 7137TIP3    H242903   3.094   3.725   1.000  0.1025  0.3460  0.5240
 7138TIP3   OH242904   1.982   2.216   3.443  0.3678 -0.6094 -0.2493
 7138TIP3    H142905   2.027   2.224   3.527  1.4273 -1.8468 -0.6853
 7138TIP3    H242906   1.951   2.125   3.440 -4.1396  0.7518  1.0003
 7139TIP3   OH242907   5.475   4.513  16.699 -0.4962 -0.2921  0.4574
 7139TIP3    H142908   5.403   4.489  16.639 -0.4453  3.1011 -1.0648
 7139TIP3    H242909   5.552   4.471  16.660 -0.4979  1.7211 -1.8221
 7140TIP3   OH242910   6.145   3.570  15.110  0.2031  0.9711 -0.1656
 7140TIP3    H142911   6.088   3.616  15.048  0.3854  1.9482  0.3701
 7140TIP3    H242912   6.100   3.579  15.194  0.6098  0.7952  0.0696
 7141TIP3   OH242913   4.033   2.223   2.194 -0.2507 -0.3024 -1.0617
 7141TIP3    H142914   4.029   2.235   2.099 -0.4633  0.5902 -0.9442
 7141TIP3    H242915   3.948   2.253   2.226  1.3771  3.6526 -0.1462
 7142TIP3   OH242916   2.031   6.734  14.839 -0.1201  0.6844 -0.1891
 7142TIP3    H142917   2.078   6.727  14.756 -0.8544 -1.8453 -0.4233
 7142TIP3    H242918   1.939   6.725  14.816 -0.3617  0.3741  0.8400
 7143TIP3   OH242919   6.332   4.588   1.983  0.1338  0.5938  0.4372
 7143TIP3    H142920   6.260   4.577   1.922  0.2120 -0.5590  0.5566
 7143TIP3    H242921   6.313   4.671   2.027  0.8680  2.2372 -2.2117
 7144TIP3   OH242922   0.435   6.596  10.823  0.3642 -0.1561  0.3443
 7144TIP3    H142923   0.363   6.558  10.874 -1.1078 -0.1137 -1.6761
 7144TIP3    H242924   0.399   6.612  10.736  2.5414  0.7762 -0.4486
 7145TIP3   OH242925   2.274   0.519   0.195  0.0667 -0.0677 -0.3624
 7145TIP3    H142926   2.285   0.570   0.115  1.3134 -0.4195 -0.4265
 7145TIP3    H242927   2.252   0.431   0.164 -1.4952  0.2824 -0.2660
 7146TIP3   OH242928   2.453   3.246   4.194  0.0344 -0.2587  0.0829
 7146TIP3    H142929   2.450   3.341   4.190  0.4654 -0.2602 -0.4095
 7146TIP3    H242930   2.529   3.222   4.140  1.1086 -0.7940  1.8137
 7147TIP3   OH242931   3.424   2.563   4.698 -0.4267  0.0027  0.1533
 7147TIP3    H142932   3.393   2.612   4.774 -0.3459  1.6035 -0.8003
 7147TIP3    H242933   3.507   2.605   4.675 -0.7596 -0.0378 -1.1827
 7148TIP3   OH242934   5.387   3.701  12.334 -0.0458 -0.7927  0.6447
 7148TIP3    H142935   5.321   3.634  12.350 -0.6004 -0.8165 -1.5003
 7148TIP3    H242936   5.438   3.668  12.260 -1.6512  2.0192 -1.8448
 7149TIP3   OH242937   5.395   1.366  14.718 -0.5540  0.2185  0.0168
 7149TIP3    H142938   5.357   1.419  14.788 -1.8648  1.5750 -1.6695
 7149TIP3    H242939   5.338   1.290  14.713  0.3614 -0.5754  1.3329
 7150TIP3   OH242940   5.144   5.339  15.965 -0.1247  0.5536 -0.4872
 7150TIP3    H142941   5.122   5.396  15.891 -2.6269  1.1155  0.6243
 7150TIP3    H242942   5.081   5.363  16.033  2.0066 -0.1097  1.7611
 7151TIP3   OH242943   6.331   6.117  11.592 -0.1293 -0.1146 -0.5240
 7151TIP3    H142944   6.332   6.069  11.510 -1.5232 -0.6129 -0.2589
 7151TIP3    H242945   6.260   6.180  11.582  2.5137  2.8935 -1.4032
 7152TIP3   OH242946   1.311   4.689   0.027 -0.6930 -0.5736 -0.3135
 7152TIP3    H142947   1.340   4.718   0.113 -2.0158 -2.1568  0.7036
 7152TIP3    H242948   1.326   4.765  -0.030  0.8431  0.2630  1.1418
 7153TIP3   OH242949   6.049   1.737   3.910  0.1055 -0.3330  0.1408
 7153TIP3    H142950   6.039   1.692   3.995  0.6694 -1.4435 -0.3718
 7153TIP3    H242951   5.959   1.748   3.878 -0.0249 -1.4425  0.1017
 7154TIP3   OH242952   4.486   6.679   2.351 -0.7750 -0.6761  0.1461
 7154TIP3    H142953   4.482   6.592   2.312  1.7675 -0.2010 -1.3751
 7154TIP3    H242954   4.413   6.727   2.312 -2.1330 -2.1008  0.9376
 7155TIP3   OH242955   6.132   1.514  10.953  0.3917  0.0082 -0.5476
 7155TIP3    H142956   6.210   1.481  10.909 -0.0476  1.2034 -2.2806
 7155TIP3    H242957   6.089   1.569  10.888 -1.2280  0.4027  0.8066
 7156TIP3   OH242958   3.142   5.135   1.230  0.4289  0.6643  0.2201
 7156TIP3    H142959   3.175   5.182   1.154  0.3779  0.8259  0.2985
 7156TIP3    H242960   3.192   5.169   1.304  0.1179  0.8763  0.3321
 7157TIP3   OH242961   4.775   6.255  11.718  0.2877 -0.6455 -0.6408
 7157TIP3    H142962   4.715   6.329  11.711  0.8266 -0.1289  0.1412
 7157TIP3    H242963   4.758   6.219  11.805  0.6077 -0.9388 -0.7023
 7158TIP3   OH242964   4.923   0.601   3.527 -0.6182 -0.3393  0.7342
 7158TIP3    H142965   4.893   0.671   3.468  3.8733  0.5058 -0.7656
 7158TIP3    H242966   4.977   0.647   3.591 -0.6557 -2.0104  1.9778
 7159TIP3   OH242967   2.896   1.926  12.734  0.3613  0.1740 -0.1217
 7159TIP3    H142968   2.855   1.891  12.655 -0.9633  1.1635  0.1180
 7159TIP3    H242969   2.837   1.995  12.763  2.2531  1.6870  0.1952
 7160TIP3   OH242970   2.761   4.268  16.142  0.6514 -0.3568 -0.3080
 7160TIP3    H142971   2.794   4.334  16.081 -0.5321  0.2574 -0.2986
 7160TIP3    H242972   2.713   4.206  16.087 -2.0300  1.2172  0.1747
 7161TIP3   OH242973   6.121   1.839   1.197  0.4308 -0.0621 -0.3605
 7161TIP3    H142974   6.191   1.904   1.189  0.2849  0.1360 -0.0387
 7161TIP3    H242975   6.140   1.774   1.128  2.4733 -1.4508  1.4487
 7162TIP3   OH242976   1.395   0.301   5.405  0.6024 -0.0888 -0.7953
 7162TIP3    H142977   1.432   0.348   5.331  1.6622  0.3584  0.0127
 7162TIP3    H242978   1.311   0.344   5.421  0.2622 -0.3380 -1.8731
 7163TIP3   OH242979   2.407   2.587   4.214 -0.0257  0.6749  0.5025
 7163TIP3    H142980   2.316   2.566   4.236 -0.6194  0.4813 -2.0141
 7163TIP3    H242981   2.411   2.683   4.218 -0.5982  0.7378 -0.2756
 7164TIP3   OH242982   6.338   3.256   1.751  0.0009 -0.5076 -0.8773
 7164TIP3    H142983   6.290   3.215   1.824  0.3332 -1.7525 -1.3512
 7164TIP3    H242984   6.398   3.317   1.794 -1.8684  0.9388 -0.2659
 7165TIP3   OH242985   2.431   6.423   5.312 -0.1839  0.7639 -0.0121
 7165TIP3    H142986   2.408   6.391   5.400  1.2984 -0.3718 -0.0336
 7165TIP3    H242987   2.486   6.500   5.329  0.5239  0.2431  0.0557
 7166TIP3   OH242988   1.114   6.149  11.598  0.0227 -0.0324 -0.1611
 7166TIP3    H142989   1.132   6.161  11.691  0.3973 -1.2005 -0.0768
 7166TIP3    H242990   1.162   6.220  11.555 -1.3000  1.3824  0.6277
 7167TIP3   OH242991   0.327   3.571  14.186  0.3632 -0.1156 -0.3353
 7167TIP3    H142992   0.283   3.498  14.230 -2.4538  1.5117 -0.3405
 7167TIP3    H242993   0.256   3.629  14.159  2.2689  0.7199 -3.8764
 7168TIP3   OH242994   2.526   1.863   4.238 -0.4127  0.1487 -0.6514
 7168TIP3    H142995   2.579   1.810   4.297 -0.5883 -0.6472 -1.1919
 7168TIP3    H242996   2.548   1.953   4.260  2.1200 -0.1627 -1.6845
 7169TIP3   OH242997   0.758   0.229   1.067  0.0111 -0.3243  0.0667
 7169TIP3    H142998   0.824   0.227   0.998 -1.1643  1.2888 -1.1259
 7169TIP3    H242999   0.807   0.256   1.145  1.4198 -2.5516 -0.0084
 7170TIP3   OH243000   1.814   5.790  12.991  0.3781 -0.6154  0.0222
 7170TIP3    H143001   1.854   5.757  13.071  0.1005 -0.6809  0.1359
 7170TIP3    H243002   1.886   5.827  12.941  0.4902 -0.1951  0.4903
 7171TIP3   OH243003   3.537   5.561  16.304 -0.3907 -0.1913 -0.0239
 7171TIP3    H143004   3.575   5.605  16.380 -1.7314 -1.0799  1.2026
 7171TIP3    H243005   3.606   5.562  16.238  1.5543 -1.2036  1.9266
 7172TIP3   OH243006   3.811   0.705  14.915  0.8765 -0.4674 -0.3839
 7172TIP3    H143007   3.729   0.720  14.867 -0.2606 -0.5469  1.4753
 7172TIP3    H243008   3.874   0.681  14.848 -0.9185 -1.5587 -1.7311
 7173TIP3   OH243009   6.183   5.715   1.620  0.2549  0.6460 -0.5962
 7173TIP3    H143010   6.252   5.768   1.661  0.9768  0.1463 -1.1520
 7173TIP3    H243011   6.231   5.650   1.569 -0.6337 -0.8100  0.4129
 7174TIP3   OH243012   1.896   1.173   0.499  0.3295 -0.1679 -0.0764
 7174TIP3    H143013   1.982   1.209   0.479 -0.0802 -0.3460 -2.2402
 7174TIP3    H243014   1.857   1.238   0.558  1.3591  0.6634 -0.2821
 7175TIP3   OH243015   1.662   5.000  15.987  0.3618  0.0845  0.3152
 7175TIP3    H143016   1.606   5.010  16.064  0.2067  0.6498  0.1312
 7175TIP3    H243017   1.703   5.086  15.976 -0.8993  0.5178 -1.2160
 7176TIP3   OH243018   0.821   4.824   3.933 -0.2212  0.6096 -0.1599
 7176TIP3    H143019   0.799   4.755   3.870  1.2683  0.2935 -0.3423
 7176TIP3    H243020   0.776   4.902   3.900 -1.7666 -0.2119 -0.0482
 7177TIP3   OH243021   3.084   3.226   4.004 -0.0795  0.4592  0.6341
 7177TIP3    H143022   3.046   3.172   4.073  0.8928 -0.0690  0.7645
 7177TIP3    H243023   3.008   3.260   3.957 -0.7250 -0.5284  0.9234
 7178TIP3   OH243024   4.898   4.586  17.171 -0.0721  0.1126  0.3676
 7178TIP3    H143025   4.915   4.672  17.210 -0.0386 -0.9953  2.9233
 7178TIP3    H243026   4.973   4.532  17.197 -1.2528 -1.3341  0.8755
 7179TIP3   OH243027   1.150   6.717  12.968 -0.1017 -0.0429  0.1470
 7179TIP3    H143028   1.152   6.622  12.976  1.0124 -0.0954 -0.5890
 7179TIP3    H243029   1.057   6.739  12.964 -0.3545 -1.1594 -0.3868
 7180TIP3   OH243030   6.768   4.717  14.271 -0.0522  0.0090 -0.4454
 7180TIP3    H143031   6.733   4.638  14.312 -0.9788  0.4218 -0.4323
 7180TIP3    H243032   6.713   4.729  14.193  0.9751 -0.1427 -1.1948
 7181TIP3   OH243033   5.811   1.699  11.905 -0.1335 -0.1951 -0.0623
 7181TIP3    H143034   5.821   1.764  11.836  0.2919  0.8970  1.0108
 7181TIP3    H243035   5.835   1.616  11.863 -0.0971  0.4182 -1.2785
 7182TIP3   OH243036   1.528   4.286   5.022 -0.3059 -0.1389  0.1295
 7182TIP3    H143037   1.514   4.276   5.117 -0.5613  1.2407  0.2526
 7182TIP3    H243038   1.619   4.314   5.015 -0.4540  0.3039  0.0026
 7183TIP3   OH243039   0.454   5.197  11.983  0.1423  0.0362 -0.3295
 7183TIP3    H143040   0.517   5.269  11.980  0.8650 -0.5802 -0.1528
 7183TIP3    H243041   0.401   5.215  12.061 -0.1556  0.7707 -0.7016
 7184TIP3   OH243042   4.751   6.644  10.709  0.1382 -0.1028 -0.1765
 7184TIP3    H143043   4.669   6.605  10.679 -0.8185  1.4168  0.4029
 7184TIP3    H243044   4.795   6.672  10.629  0.5604 -1.7839 -0.5599
 7185TIP3   OH243045   2.694   4.619   4.058 -0.1823 -0.5807 -0.3567
 7185TIP3    H143046   2.651   4.677   4.121  3.0077  0.7091  0.7091
 7185TIP3    H243047   2.685   4.664   3.974 -1.9797 -0.9530 -0.3958
 7186TIP3   OH243048   2.814   4.129  12.094 -0.2832 -0.2196 -0.3358
 7186TIP3    H143049   2.747   4.196  12.100  1.0228  1.2705 -1.8332
 7186TIP3    H243050   2.809   4.098  12.003 -0.9739 -2.2813  0.3755
 7187TIP3   OH243051   0.511   4.466  12.596  0.4427  0.2605  0.2924
 7187TIP3    H143052   0.455   4.528  12.643 -0.5265 -0.3956  0.0348
 7187TIP3    H243053   0.566   4.521  12.539 -1.1132  0.8460 -0.6878
 7188TIP3   OH243054   3.938   0.539  12.437  0.2635  0.4797  0.1530
 7188TIP3    H143055   3.891   0.622  12.441  1.2215  1.0124  0.3177
 7188TIP3    H243056   4.013   0.551  12.495  0.3577 -0.5291  0.2473
 7189TIP3   OH243057   4.147   1.184   1.928  0.1084 -0.0341 -0.3815
 7189TIP3    H143058   4.058   1.189   1.963  1.1665 -1.2206  2.5918
 7189TIP3    H243059   4.170   1.091   1.935  2.8808  0.7798  2.3368
 7190TIP3   OH243060   3.295   0.512  14.785 -0.1665  0.2065  0.6313
 7190TIP3    H143061   3.378   0.474  14.755 -0.4594 -0.9559  1.2694
 7190TIP3    H243062   3.232   0.486  14.719  0.3255  2.7780 -0.9192
 7191TIP3   OH243063   0.792   5.018  10.238  0.7609  0.0542 -0.1528
 7191TIP3    H143064   0.831   5.088  10.289  1.1339 -1.5838  1.8610
 7191TIP3    H243065   0.825   5.031  10.149  2.5101  1.1672  0.6518
 7192TIP3   OH243066   5.599   6.545  16.892 -0.2978 -0.3943  0.3479
 7192TIP3    H143067   5.587   6.525  16.985 -0.6856  0.0367  0.3908
 7192TIP3    H243068   5.535   6.490  16.847  1.8695 -2.8144  0.0969
 7193TIP3   OH243069   4.829   5.850   2.465  0.1480 -0.6463 -0.2040
 7193TIP3    H143070   4.857   5.777   2.410 -0.3192  0.0607 -1.4075
 7193TIP3    H243071   4.818   5.923   2.404 -1.1182 -0.0495  0.7065
 7194TIP3   OH243072   2.693   0.962   3.520  0.3149  0.2761 -0.1255
 7194TIP3    H143073   2.612   1.000   3.555  0.8669  1.6784 -0.3318
 7194TIP3    H243074   2.728   0.911   3.593 -0.3010  0.3788  0.2532
 7195TIP3   OH243075   5.504   3.435  14.627 -0.6542  0.0516  0.1447
 7195TIP3    H143076   5.570   3.365  14.633  0.0282  0.6861  0.1562
 7195TIP3    H243077   5.531   3.499  14.693 -0.1002  1.2873 -1.2415
 7196TIP3   OH243078   3.040   0.249   1.469  0.4618  0.1235  0.4241
 7196TIP3    H143079   3.099   0.323   1.482  0.7451 -0.1590  0.7416
 7196TIP3    H243080   3.097   0.179   1.437 -0.5274  1.4750 -4.7238
 7197TIP3   OH243081   1.866   1.307  15.335  0.2597  0.7406 -0.1346
 7197TIP3    H143082   1.957   1.294  15.307  0.1030  0.2714 -0.4115
 7197TIP3    H243083   1.834   1.220  15.357 -0.1599  0.8938 -0.1275
 7198TIP3   OH243084   1.562   6.705   4.131  0.1849  0.5097  0.3938
 7198TIP3    H143085   1.471   6.724   4.107  0.2341  1.3865  0.8984
 7198TIP3    H243086   1.614   6.758   4.071  0.4253 -1.4033 -1.1588
 7199TIP3   OH243087   3.818   4.329   0.886 -0.0923  0.5168 -0.0915
 7199TIP3    H143088   3.795   4.255   0.830 -1.6420  1.0108 -0.1173
 7199TIP3    H243089   3.873   4.385   0.830 -0.3266  0.2288 -0.6140
 7200TIP3   OH243090   3.437   1.287   0.419  0.8854  0.0224  0.4745
 7200TIP3    H143091   3.498   1.360   0.430  0.3916  0.3479  1.1648
 7200TIP3    H243092   3.353   1.323   0.448  0.3225 -0.3462 -0.6911
 7201TIP3   OH243093   3.597   2.585   0.284  0.0210 -0.6873 -0.2156
 7201TIP3    H143094   3.547   2.646   0.231 -2.0325 -0.4416  1.9641
 7201TIP3    H243095   3.688   2.616   0.277 -0.4784  0.4428 -2.0021
 7202TIP3   OH243096   4.950   2.663   4.389 -0.1737 -0.2959 -0.2543
 7202TIP3    H143097   4.954   2.596   4.321  1.9717 -0.8790  0.4126
 7202TIP3    H243098   4.954   2.614   4.471  0.7043  0.6019  0.2475
 7203TIP3   OH243099   3.566   0.922   2.780 -0.0346 -0.0040  0.2366
 7203TIP3    H143100   3.618   0.990   2.823  0.6394  0.6289 -1.5141
 7203TIP3    H243101   3.477   0.955   2.782  0.1532  0.5072  0.1998
 7204TIP3   OH243102   4.901   1.077  16.479 -0.5142 -0.2735  0.1367
 7204TIP3    H143103   4.904   0.999  16.534  1.1510 -0.4275 -0.1558
 7204TIP3    H243104   4.869   1.046  16.395  0.7419 -0.7819 -0.1700
 7205TIP3   OH243105   3.065   5.782   3.181  0.2629  0.0022 -0.8369
 7205TIP3    H143106   3.099   5.839   3.113 -0.8933  0.4986 -1.0182
 7205TIP3    H243107   3.065   5.695   3.142 -0.2467  0.2623 -1.4285
 7206TIP3   OH243108   2.227   5.091   0.068  0.0423  0.4800  0.5948
 7206TIP3    H143109   2.147   5.103   0.121 -0.3521  0.4153  0.0191
 7206TIP3    H243110   2.207   5.135  -0.015  1.3258  2.1703  1.1492
 7207TIP3   OH243111   6.317   1.340  14.257  0.2316 -0.2112 -0.3162
 7207TIP3    H143112   6.399   1.291  14.271  0.2421 -0.1722 -0.2394
 7207TIP3    H243113   6.341   1.431  14.272 -0.0973 -0.3206  0.8794
 7208TIP3   OH243114   2.729   5.012   4.226 -0.0514  0.4838 -0.8647
 7208TIP3    H143115   2.668   5.059   4.284  0.5065 -1.7719  1.6278
 7208TIP3    H243116   2.803   5.072   4.217 -0.1469  0.8746  0.7611
 7209TIP3   OH243117   3.621   5.683  14.113  0.5449  0.1164  0.4260
 7209TIP3    H143118   3.530   5.669  14.087  0.5298  2.2291 -0.7699
 7209TIP3    H243119   3.633   5.778  14.106  2.5318 -0.0354  1.6117
 7210TIP3   OH243120   5.758   5.802   4.788  0.0726  0.2027  0.3220
 7210TIP3    H143121   5.828   5.858   4.754  0.3536  0.5752  1.4807
 7210TIP3    H243122   5.680   5.856   4.787  0.2086  0.4156  0.8251
 7211TIP3   OH243123   5.618   2.242  14.092 -0.0778 -0.5262 -0.1898
 7211TIP3    H143124   5.652   2.330  14.082 -1.8434  0.1158 -0.6243
 7211TIP3    H243125   5.624   2.225  14.186 -1.8697  0.9455  0.2113
 7212TIP3   OH243126   1.969   2.362  14.405 -0.1634  0.2685 -0.2660
 7212TIP3    H143127   1.966   2.451  14.370  1.7673  0.2053 -0.6779
 7212TIP3    H243128   2.024   2.368  14.483  0.4920 -0.6503 -0.6389
 7213TIP3   OH243129   5.450   2.888  12.326 -0.2531 -0.5291 -0.2576
 7213TIP3    H143130   5.542   2.862  12.319 -0.3121 -1.0320  0.7044
 7213TIP3    H243131   5.426   2.865  12.416 -1.1243  0.2397 -0.2898
 7214TIP3   OH243132   2.261   2.801  16.099  0.6194  0.0962  0.1161
 7214TIP3    H143133   2.287   2.865  16.164  0.3684 -1.2501  1.5588
 7214TIP3    H243134   2.181   2.761  16.134 -0.7730  0.8683 -2.0455
 7215TIP3   OH243135   5.084   4.139   4.384 -0.3724  0.6124 -0.5118
 7215TIP3    H143136   5.050   4.153   4.296  1.9255  1.3108 -1.3042
 7215TIP3    H243137   5.073   4.045   4.399 -0.6799  0.4704 -1.5630
 7216TIP3   OH243138   6.072   4.922  15.216  0.3867 -0.1332  0.5617
 7216TIP3    H143139   6.141   4.980  15.247 -0.5336  1.6491 -0.5988
 7216TIP3    H243140   6.008   4.922  15.288  1.1954 -1.1356  1.2946
 7217TIP3   OH243141   4.773   4.130  16.273  0.1330  0.1242  0.4717
 7217TIP3    H143142   4.709   4.201  16.279 -0.8437 -0.4955 -1.9863
 7217TIP3    H243143   4.731   4.057  16.319 -1.0013 -0.3147 -1.2291
 7218TIP3   OH243144   2.516   5.899  12.249  0.0375  0.3257  0.6039
 7218TIP3    H143145   2.558   5.816  12.227  2.5796  1.4497  1.0079
 7218TIP3    H243146   2.439   5.874  12.301  0.3189 -1.7887  0.0444
 7219TIP3   OH243147   6.393   5.146   1.588 -0.0029  0.6509  0.2326
 7219TIP3    H143148   6.314   5.199   1.587 -2.2272 -2.4935  1.0304
 7219TIP3    H243149   6.379   5.080   1.520  2.9113  1.3092 -1.1013
 7220TIP3   OH243150   6.670   6.521   0.712  0.6108 -0.0092  0.5152
 7220TIP3    H143151   6.732   6.489   0.646 -1.8649 -1.0852 -1.3666
 7220TIP3    H243152   6.666   6.615   0.697  0.1212 -0.2367 -0.8380
 7221TIP3   OH243153   5.298   4.956  12.814 -0.0721  0.0738 -0.3171
 7221TIP3    H143154   5.219   4.934  12.863  0.5110 -0.4556  0.3859
 7221TIP3    H243155   5.291   4.905  12.733 -0.5875  0.2379 -0.3755
 7222TIP3   OH243156   3.087   5.340  16.977 -0.4107  0.1999  0.0490
 7222TIP3    H143157   3.079   5.433  16.954 -2.3845  0.7851  2.8612
 7222TIP3    H243158   3.006   5.320  17.025  0.8753 -2.4479  1.2206
 7223TIP3   OH243159   5.641   1.107  15.518 -0.1935 -0.0136 -0.8474
 7223TIP3    H143160   5.649   1.202  15.526  1.0384 -0.1925  0.1920
 7223TIP3    H243161   5.547   1.092  15.507 -0.6199  1.1907  0.9002
 7224TIP3   OH243162   2.183   2.819  15.823 -0.1058 -0.3655 -0.4062
 7224TIP3    H143163   2.256   2.786  15.770  1.0606  3.0076 -1.0100
 7224TIP3    H243164   2.221   2.834  15.910 -0.1906  0.9307 -0.5859
 7225TIP3   OH243165   3.928   1.539   4.041 -0.1476  0.1559 -0.0873
 7225TIP3    H143166   3.889   1.617   4.078 -0.6310 -0.1044 -0.0378
 7225TIP3    H243167   3.905   1.469   4.102 -0.2062 -0.1210 -0.4215
 7226TIP3   OH243168   1.066   0.537   1.798 -0.0021  0.0151  0.3685
 7226TIP3    H143169   1.085   0.453   1.755  0.0686  0.5059 -0.5696
 7226TIP3    H243170   1.021   0.589   1.730  0.5184  0.9596  0.7438
 7227TIP3   OH243171   2.549   4.693  16.877  0.3666 -0.3532 -0.0946
 7227TIP3    H143172   2.496   4.636  16.932 -0.6688  2.2411  1.6656
 7227TIP3    H243173   2.639   4.670  16.899 -0.0045  1.1378  3.3118
 7228TIP3   OH243174   6.161   4.487   1.011  0.1454 -0.4046 -0.0530
 7228TIP3    H143175   6.140   4.461   1.101 -1.9883  2.9691  0.5055
 7228TIP3    H243176   6.107   4.429   0.956 -1.3547 -0.0004  0.9778
 7229TIP3   OH243177   3.009   2.333   5.401  0.2411  0.2089  0.2747
 7229TIP3    H143178   3.059   2.298   5.475 -1.0280  0.2451  1.1598
 7229TIP3    H243179   2.944   2.266   5.382 -0.0299  0.6090 -0.2250
 7230TIP3   OH243180   2.413   2.893   6.236  0.0693 -0.1669  0.0778
 7230TIP3    H143181   2.402   2.798   6.226  0.7089 -0.2472  0.1111
 7230TIP3    H243182   2.391   2.910   6.327 -1.4850 -0.0651 -0.2981
 7231TIP3   OH243183   4.884   4.569   0.300 -0.2202 -0.5273 -0.3338
 7231TIP3    H143184   4.972   4.590   0.268 -0.4386  2.5180  0.8824
 7231TIP3    H243185   4.894   4.483   0.342  2.0300 -0.5009 -0.7356
 7232TIP3   OH243186   5.456   2.678  16.007  0.1903  0.4888  0.1925
 7232TIP3    H143187   5.482   2.587  16.018  0.7491  0.6429  0.2034
 7232TIP3    H243188   5.490   2.723  16.084 -1.3966  0.4463  0.9374
 7233TIP3   OH243189   4.482   5.933   5.847 -0.0220  0.0227  0.5399
 7233TIP3    H143190   4.524   5.863   5.797  0.7335  1.0020 -0.2427
 7233TIP3    H243191   4.520   5.926   5.934  1.1981  0.3842  0.0540
 7234TIP3   OH243192   0.185   5.646  12.114  0.3330  0.2366 -0.0316
 7234TIP3    H143193   0.235   5.654  12.033 -1.1468 -1.0629 -1.0869
 7234TIP3    H243194   0.124   5.719  12.112 -1.3476 -1.1714 -1.2779
 7235TIP3   OH243195   2.414   3.641  15.487 -0.2260  0.1008  0.2237
 7235TIP3    H143196   2.376   3.690  15.560 -1.1616  0.1363 -0.2740
 7235TIP3    H243197   2.373   3.554  15.493 -0.2760  0.0914 -0.2304
 7236TIP3   OH243198   5.378   1.695   2.432  0.3862  0.8326  0.2307
 7236TIP3    H143199   5.472   1.703   2.445  0.7039 -1.4141 -0.5158
 7236TIP3    H243200   5.359   1.603   2.447 -1.7024  1.2697  0.4130
 7237TIP3   OH243201   2.905   2.039  16.579 -0.2416 -0.3158  0.0855
 7237TIP3    H143202   2.943   2.048  16.666 -0.9697 -1.6573  0.5619
 7237TIP3    H243203   2.980   2.041  16.519  0.2705  0.4942  0.7458
 7238TIP3   OH243204   5.817   3.861  17.163  0.2538 -0.4069 -0.1801
 7238TIP3    H143205   5.809   3.769  17.189 -1.2250 -0.7396 -1.6880
 7238TIP3    H243206   5.764   3.909  17.228  1.9493 -0.4680  1.2815
 7239TIP3   OH243207   5.085   4.514   2.418 -0.1812  0.2276 -0.0879
 7239TIP3    H143208   5.103   4.444   2.354  0.6956  1.1751 -0.8823
 7239TIP3    H243209   5.044   4.468   2.492  2.9180 -1.5799  0.5871
 7240TIP3   OH243210   3.295   6.082  13.715 -0.2163  0.1003 -0.4661
 7240TIP3    H143211   3.351   6.158  13.732 -0.9946  0.6141 -0.1978
 7240TIP3    H243212   3.207   6.112  13.735 -0.2774 -1.6009  2.0315
 7241TIP3   OH243213   2.584   6.050  16.781 -0.0391  0.1749 -0.0418
 7241TIP3    H143214   2.542   5.992  16.844 -0.8478 -0.3377 -1.0483
 7241TIP3    H243215   2.562   6.014  16.695  0.0620  1.5364 -0.6659
 7242TIP3   OH243216   1.657   4.214  10.961  0.0330  0.1345  0.2022
 7242TIP3    H143217   1.671   4.285  10.898  0.5920  0.0685  0.2568
 7242TIP3    H243218   1.687   4.135  10.916  1.3449  0.2245  0.9094
 7243TIP3   OH243219   1.019   6.456  13.879  0.3446 -0.2792  0.0089
 7243TIP3    H143220   1.051   6.486  13.964  0.4692 -2.7832  0.8897
 7243TIP3    H243221   0.934   6.498  13.868  1.8184  2.7677 -0.2254
 7244TIP3   OH243222   0.429   1.471  16.274 -0.3273  0.2065  0.4485
 7244TIP3    H143223   0.509   1.417  16.273 -0.1458  0.4600  0.9999
 7244TIP3    H243224   0.366   1.417  16.322 -0.4331  0.0839  0.1727
 7245TIP3   OH243225   2.365   0.572  16.877 -0.1695  0.1329  0.4144
 7245TIP3    H143226   2.453   0.593  16.910  0.5490 -0.9857 -0.7552
 7245TIP3    H243227   2.334   0.654  16.838  1.2088 -0.0260 -1.0381
 7246TIP3   OH243228   2.266   2.297   5.166 -0.3367 -0.8754 -0.1520
 7246TIP3    H143229   2.309   2.376   5.199  0.7794 -1.1222 -0.9917
 7246TIP3    H243230   2.173   2.321   5.162 -0.2683 -0.2534  1.4355
 7247TIP3   OH243231   6.223   0.697  11.984 -0.1769 -0.1607  0.5689
 7247TIP3    H143232   6.169   0.745  12.048 -0.6562 -0.5728  0.4832
 7247TIP3    H243233   6.311   0.732  11.995 -0.2712 -0.1857  1.4206
 7248TIP3   OH243234   5.625   6.510   0.537  0.1985  0.1673  0.5555
 7248TIP3    H143235   5.714   6.491   0.508 -0.1104  0.2070 -0.4234
 7248TIP3    H243236   5.569   6.462   0.476 -0.5446  2.7522 -0.8532
 7249TIP3   OH243237   1.312   3.859  11.725  0.0640 -0.1685 -0.1426
 7249TIP3    H143238   1.294   3.941  11.679  1.3745  0.1955 -0.0392
 7249TIP3    H243239   1.300   3.881  11.817  1.3016  0.1756 -0.0447
 7250TIP3   OH243240   4.742   0.890   4.226  0.0910 -0.6092  0.1897
 7250TIP3    H143241   4.777   0.806   4.197  0.1457 -0.1554 -1.0771
 7250TIP3    H243242   4.748   0.947   4.149  1.5470  1.0316  1.4598
 7251TIP3   OH243243   3.706   4.039  12.789 -0.3260  0.1186  0.0830
 7251TIP3    H143244   3.764   4.089  12.846  1.3444 -0.6245 -0.9509
 7251TIP3    H243245   3.634   4.011  12.846  0.8764  0.1187  1.6025
 7252TIP3   OH243246   2.468   0.028   1.610  0.3055 -0.2547  0.0426
 7252TIP3    H143247   2.384   0.035   1.565  0.1420 -1.0140  0.2228
 7252TIP3    H243248   2.529   0.074   1.553 -0.1132 -0.2406 -0.4035
 7253TIP3   OH243249   5.501   3.648  16.388 -0.0104 -0.1753 -0.2145
 7253TIP3    H143250   5.586   3.605  16.393 -0.9716 -2.1103 -0.3008
 7253TIP3    H243251   5.463   3.619  16.305 -0.0774  1.9966 -0.9806
 7254TIP3   OH243252   5.811   0.111  13.342 -0.0363 -0.5576 -0.1974
 7254TIP3    H143253   5.788   0.018  13.345 -0.4568 -0.4703 -0.5192
 7254TIP3    H243254   5.816   0.130  13.248 -1.5924  0.1341 -0.1524
 7255TIP3   OH243255   1.075   0.796  14.121  0.0260 -0.1331 -0.1143
 7255TIP3    H143256   1.042   0.816  14.209 -1.8986 -0.1842 -0.8034
 7255TIP3    H243257   1.066   0.878  14.072  1.2327 -0.0640 -0.2371
 7256TIP3   OH243258   0.544   5.735  16.816  0.1723 -0.3259 -0.0624
 7256TIP3    H143259   0.562   5.652  16.773  0.5010  0.1220 -0.8203
 7256TIP3    H243260   0.552   5.717  16.909 -1.2034 -1.4743 -0.1492
 7257TIP3   OH243261   3.846   4.695   4.671 -0.3330  0.9002 -0.3513
 7257TIP3    H143262   3.906   4.754   4.625  0.2902  0.8025  0.3470
 7257TIP3    H243263   3.854   4.611   4.625  1.1973  0.4643  0.6821
 7258TIP3   OH243264   5.420   0.598  14.405  0.0341 -0.0285  1.2241
 7258TIP3    H143265   5.353   0.538  14.438  0.1767  0.2650  2.0496
 7258TIP3    H243266   5.400   0.608  14.312 -1.6175  0.7781  1.6572
 7259TIP3   OH243267   3.440   4.193  13.759  0.3616 -0.0158 -0.4496
 7259TIP3    H143268   3.427   4.134  13.685  1.4868 -0.6580 -0.1474
 7259TIP3    H243269   3.534   4.189  13.777  0.3417  1.3427  0.0125
 7260TIP3   OH243270   6.312   1.306  11.812 -0.2788 -0.2198 -0.5702
 7260TIP3    H143271   6.359   1.326  11.893 -0.6567  1.1964 -0.6869
 7260TIP3    H243272   6.378   1.264  11.756  0.6479  0.9745 -0.4076
 7261TIP3   OH243273   6.308   1.058  13.937 -0.1682 -0.2153  0.5250
 7261TIP3    H143274   6.256   0.996  13.885 -2.1633 -0.0190  2.2027
 7261TIP3    H243275   6.358   1.003  13.997  0.3688 -0.3275 -0.0168
 7262TIP3   OH243276   2.764   5.024   3.738  0.0976 -0.6478  0.1187
 7262TIP3    H143277   2.803   4.978   3.664 -0.2784 -0.1516 -0.3926
 7262TIP3    H243278   2.835   5.077   3.774 -0.2413  0.6999 -1.1671
 7263TIP3   OH243279   1.754   1.590   2.980  0.0532 -0.0919 -0.2528
 7263TIP3    H143280   1.824   1.653   2.999 -0.8378  0.3921  1.5830
 7263TIP3    H243281   1.797   1.505   2.982  0.2033 -0.0335  3.4130
 7264TIP3   OH243282   0.953   0.764  15.551 -0.4899  0.3417  0.2338
 7264TIP3    H143283   0.937   0.858  15.558 -0.7964  0.2848  0.2788
 7264TIP3    H243284   0.987   0.739  15.637 -2.0593  0.0844  0.7968
 7265TIP3   OH243285   6.343   5.734  12.351 -0.0261  0.1463  0.3734
 7265TIP3    H143286   6.396   5.806  12.385 -0.7779  1.2106 -0.6395
 7265TIP3    H243287   6.264   5.734  12.405  0.5556 -0.7801  1.2273
 7266TIP3   OH243288   2.392   0.770  11.987  0.0029 -0.2004 -0.7418
 7266TIP3    H143289   2.306   0.738  11.960  0.5212 -1.6241 -0.7844
 7266TIP3    H243290   2.431   0.696  12.034  0.4350  1.1019  0.9766
 7267TIP3   OH243291   1.148   1.627  16.058 -1.1469  0.1287 -0.6650
 7267TIP3    H143292   1.239   1.643  16.083 -0.8304  2.3365 -3.0681
 7267TIP3    H243293   1.100   1.632  16.141  0.8268 -0.7139  0.5958
 7268TIP3   OH243294   3.366   5.405   3.049 -0.7634  0.1858 -0.3874
 7268TIP3    H143295   3.314   5.415   3.129 -2.2635  0.8344 -1.4197
 7268TIP3    H243296   3.416   5.325   3.063 -0.5172  0.6208  1.4626
 7269TIP3   OH243297   0.792   6.599  13.794 -0.3811 -1.0310 -0.4807
 7269TIP3    H143298   0.805   6.693  13.804 -0.0607 -1.1280  0.0775
 7269TIP3    H243299   0.710   6.581  13.840  0.8115 -1.3929  1.5849
 7270TIP3   OH243300   1.993   4.613   0.265  0.0841 -0.2504  0.1679
 7270TIP3    H143301   1.909   4.646   0.236  0.3260  0.2072 -0.0030
 7270TIP3    H243302   2.025   4.560   0.192 -0.0199 -0.3712  0.2080
 7271TIP3   OH243303   3.353   6.311  14.044  0.3073  0.2889 -0.0588
 7271TIP3    H143304   3.412   6.243  14.076 -0.9823 -1.2047 -0.7732
 7271TIP3    H243305   3.284   6.315  14.110  0.5313  1.1190  0.1279
 7272TIP3   OH243306   2.857   3.477  15.809 -0.1877  0.0227  0.4006
 7272TIP3    H143307   2.909   3.398  15.828 -0.8050 -0.5006 -0.0914
 7272TIP3    H243308   2.801   3.487  15.886  1.5863  1.3813  1.5714
 7273TIP3   OH243309   6.369   6.678  16.537  0.1890 -0.9464  0.3403
 7273TIP3    H143310   6.387   6.753  16.595  0.0006 -1.0285  0.5074
 7273TIP3    H243311   6.323   6.615  16.593 -0.5585 -0.7639 -0.0643
 7274TIP3   OH243312   0.493   1.517   0.725 -0.2867 -0.9272 -0.0287
 7274TIP3    H143313   0.549   1.497   0.650 -0.3855  0.2761 -0.4358
 7274TIP3    H243314   0.554   1.531   0.797 -0.2187 -2.7406  0.2976
 7275TIP3   OH243315   0.725   0.169  14.804  0.3944  0.2367 -0.3246
 7275TIP3    H143316   0.790   0.108  14.770 -0.1951  0.8380 -2.6349
 7275TIP3    H243317   0.667   0.114  14.858 -0.2381 -1.3349 -2.5123
 7276TIP3   OH243318   4.712   5.693   1.497  0.4108 -0.7678  0.9285
 7276TIP3    H143319   4.660   5.613   1.486 -0.2453 -0.3182  0.6682
 7276TIP3    H243320   4.669   5.757   1.440  0.5401 -0.0514  1.6258
 7277TIP3   OH243321   5.184   2.507   1.203 -0.2210  0.0850 -0.0629
 7277TIP3    H143322   5.143   2.473   1.123  0.0907  1.1532 -0.6858
 7277TIP3    H243323   5.277   2.514   1.180 -0.4655  2.6879 -0.4349
 7278TIP3   OH243324   2.617   0.480  14.385  0.2457  0.5012 -0.1767
 7278TIP3    H143325   2.549   0.413  14.373 -0.4101  0.6771  2.3986
 7278TIP3    H243326   2.571   0.563  14.369  0.8645  0.4386 -2.5283
 7279TIP3   OH243327   4.133   2.577  16.434  0.0394  0.2073 -0.4790
 7279TIP3    H143328   4.116   2.654  16.380 -0.0924  0.1045 -0.5840
 7279TIP3    H243329   4.225   2.584  16.458  0.1600  0.1176 -0.9307
 7280TIP3   OH243330   3.756   0.497  14.592  0.1973  0.2505 -0.0467
 7280TIP3    H143331   3.778   0.444  14.669 -1.9532 -1.2877 -0.4504
 7280TIP3    H243332   3.661   0.504  14.595  0.2352  1.4942 -1.7323
 7281TIP3   OH243333   2.234   1.816   3.215  0.3565 -0.3541  0.2846
 7281TIP3    H143334   2.200   1.901   3.244 -2.6361 -1.3399 -0.1207
 7281TIP3    H243335   2.257   1.771   3.296 -1.1060 -0.3428  0.7312
 7282TIP3   OH243336   6.077   4.119   5.199  0.3161 -0.0732 -0.6076
 7282TIP3    H143337   6.081   4.067   5.118 -1.2422 -1.4920  0.1878
 7282TIP3    H243338   6.167   4.122   5.230  0.3508 -3.0051 -0.2879
 7283TIP3   OH243339   2.983   2.212  15.816  0.3978  0.3101 -0.0153
 7283TIP3    H143340   2.888   2.202  15.825  0.5699 -0.6393  0.8192
 7283TIP3    H243341   2.994   2.265  15.737 -0.8801  1.5968  0.6327
 7284TIP3   OH243342   1.964   3.095  16.338  0.5671 -0.5322  0.0764
 7284TIP3    H143343   2.026   3.111  16.267  1.3013 -2.6140  0.2046
 7284TIP3    H243344   1.906   3.171  16.337  1.6748  0.3219 -1.5782
 7285TIP3   OH243345   4.889   3.341  16.335 -0.5672  0.3201  0.3209
 7285TIP3    H143346   4.841   3.410  16.382 -1.2554 -0.5693  0.9226
 7285TIP3    H243347   4.822   3.276  16.313  0.1858 -0.4391  0.2601
 7286TIP3   OH243348   3.582   5.095  11.194 -0.2449  1.0018 -0.5149
 7286TIP3    H143349   3.507   5.104  11.252 -1.2104 -1.0913 -1.3912
 7286TIP3    H243350   3.622   5.012  11.219  1.3064  1.7065 -0.6012
 7287TIP3   OH243351   5.809   1.834  15.235 -0.2836 -0.5121  0.4379
 7287TIP3    H143352   5.812   1.918  15.281  1.3687 -0.7314  0.7769
 7287TIP3    H243353   5.880   1.783  15.274 -0.9020 -1.8619 -0.1688
 7288TIP3   OH243354   2.431   0.214  15.211 -0.4475 -0.0707  0.5791
 7288TIP3    H143355   2.354   0.260  15.244  0.9612  1.4262  1.8621
 7288TIP3    H243356   2.399   0.126  15.191 -2.5202  0.5678  0.9078
 7289TIP3   OH243357   6.422   6.757  11.230 -0.3333 -0.0592  0.1154
 7289TIP3    H143358   6.493   6.702  11.198 -0.0128 -0.1512  0.9736
 7289TIP3    H243359   6.451   6.847  11.212 -0.5938 -0.1469 -0.7410
 7290TIP3   OH243360   3.724   1.858   5.531  0.1714  0.3463 -0.0712
 7290TIP3    H143361   3.717   1.859   5.435 -0.4255  2.0482 -0.0172
 7290TIP3    H243362   3.816   1.877   5.549  0.1941  0.4444 -0.2917
 7291TIP3   OH243363   5.226   5.689  15.559 -0.2664  0.1438  0.1417
 7291TIP3    H143364   5.227   5.595  15.575  1.0094  0.1724  0.2549
 7291TIP3    H243365   5.313   5.709  15.525 -1.3327  0.8896 -2.2841
 7292TIP3   OH243366   4.232   3.610  16.206  0.1365  0.1998  0.0398
 7292TIP3    H143367   4.201   3.520  16.216  0.9444  0.0547  1.3629
 7292TIP3    H243368   4.327   3.604  16.217  0.2142  1.1998 -0.0034
 7293TIP3   OH243369   6.235   3.770   5.244 -0.1688  0.5087 -0.1098
 7293TIP3    H143370   6.201   3.700   5.187  1.2764 -1.9505  1.9448
 7293TIP3    H243371   6.324   3.786   5.211 -0.0960  0.5891  0.1250
 7294TIP3   OH243372   1.897   1.571  16.960 -0.3120 -0.0160  0.0929
 7294TIP3    H143373   1.947   1.622  17.024 -0.3347 -0.7215  0.6742
 7294TIP3    H243374   1.937   1.484  16.962  0.2980  0.2032 -1.5245
 7295TIP3   OH243375   5.359   2.416   2.110  0.2404 -0.4403  0.1059
 7295TIP3    H143376   5.272   2.445   2.138  0.9741  0.6616  1.2664
 7295TIP3    H243377   5.344   2.374   2.025 -1.2805  0.6719 -0.1879
 7296TIP3   OH243378   1.709   1.555  12.945  0.0464  1.0382  0.9313
 7296TIP3    H143379   1.672   1.576  12.859  1.6573 -0.8652 -0.2585
 7296TIP3    H243380   1.790   1.606  12.949  0.7908 -0.1088  0.6376
 7297TIP3   OH243381   5.697   5.608   5.114 -0.4551  0.1750 -0.0588
 7297TIP3    H143382   5.636   5.543   5.077 -0.8036  0.1745  0.4992
 7297TIP3    H243383   5.714   5.576   5.203 -0.5761  0.8155  0.1955
 7298TIP3   OH243384   3.019   1.837  17.230 -0.7107 -0.1950 -0.0601
 7298TIP3    H143385   3.050   1.751  17.204  0.3145  0.2860 -0.4609
 7298TIP3    H243386   3.019   1.835  17.325 -0.3832 -0.5328 -0.0639
 7299TIP3   OH243387   0.392   0.972   3.949 -0.2827 -0.9187  0.5675
 7299TIP3    H143388   0.335   0.906   3.989 -0.8408 -0.6743  0.1826
 7299TIP3    H243389   0.480   0.936   3.958 -0.7401 -2.5836 -1.2955
 7300TIP3   OH243390   4.844   6.089   2.303  0.5580  0.3168 -0.2085
 7300TIP3    H143391   4.931   6.120   2.279  0.6604 -0.4393 -0.8477
 7300TIP3    H243392   4.800   6.166   2.341  0.6675  1.3408 -2.1014
 7301TIP3   OH243393   4.121   2.487  15.101  0.0305 -0.1755  0.1334
 7301TIP3    H143394   4.129   2.394  15.076 -0.8812 -0.3000  0.3004
 7301TIP3    H243395   4.156   2.490  15.190  0.1241 -0.3507  0.1042
 7302TIP3   OH243396   6.559   3.814  13.127  0.5897  0.0236  0.2792
 7302TIP3    H143397   6.477   3.774  13.156 -0.8856  2.8517  0.1853
 7302TIP3    H243398   6.594   3.857  13.205  0.4332  1.3182 -0.3363
 7303TIP3   OH243399   3.763   5.928   4.457 -0.0356  0.2299  0.2709
 7303TIP3    H143400   3.776   5.844   4.414  0.2516  0.5008 -0.1700
 7303TIP3    H243401   3.768   5.908   4.551  2.5121  0.1415  0.1559
 7304TIP3   OH243402   5.951   2.062  14.105 -0.0045  0.0879 -0.2260
 7304TIP3    H143403   5.935   2.143  14.057  1.2292 -0.2016 -1.1409
 7304TIP3    H243404   5.884   2.002  14.073 -1.0519  0.7884  0.6047
 7305TIP3   OH243405   2.527   2.616  17.053  0.1502  0.1019 -0.4704
 7305TIP3    H143406   2.474   2.582  16.981 -0.5370 -0.3170  0.2260
 7305TIP3    H243407   2.513   2.555  17.124  1.0687  0.3490 -0.0674
 7306TIP3   OH243408   3.464   5.826  14.897 -0.5174 -0.4660  0.7196
 7306TIP3    H143409   3.401   5.848  14.828  0.2662 -1.3727 -0.3096
 7306TIP3    H243410   3.443   5.736  14.921  3.5476 -2.7597 -3.3151
 7307TIP3   OH243411   6.633   3.008  10.443 -0.0297 -0.2580  0.3763
 7307TIP3    H143412   6.713   2.995  10.493 -0.7523 -0.0619  1.6029
 7307TIP3    H243413   6.638   3.099  10.413 -0.3750  0.1406  1.5132
 7308TIP3   OH243414   3.624   3.675  11.765  0.7825 -0.0994  0.2499
 7308TIP3    H143415   3.683   3.744  11.795  0.7210  0.0993 -0.0755
 7308TIP3    H243416   3.680   3.599  11.751  1.1758  0.4726 -1.3414
 7309TIP3   OH243417   2.724   3.708   1.147  0.5265  0.4711 -0.0547
 7309TIP3    H143418   2.802   3.694   1.200  1.3082  1.1234 -1.0070
 7309TIP3    H243419   2.727   3.641   1.079  0.2732  0.5091 -0.1066
 7310TIP3   OH243420   0.767   0.225  15.177  0.3868  0.7046 -0.0990
 7310TIP3    H143421   0.783   0.318  15.189 -0.3483  0.8009  0.2286
 7310TIP3    H243422   0.808   0.183  15.253  2.0481  0.6107 -1.0467
 7311TIP3   OH243423   2.902   4.623  13.829 -0.3795  0.0402  0.1624
 7311TIP3    H143424   2.994   4.627  13.806 -0.6789 -0.5265 -1.1483
 7311TIP3    H243425   2.890   4.692  13.894  0.6816  0.9658 -0.6219
 7312TIP3   OH243426   3.553   3.230   4.168  0.3154 -0.1251  0.3528
 7312TIP3    H143427   3.519   3.215   4.080  0.9380 -0.0902  0.1043
 7312TIP3    H243428   3.484   3.199   4.226 -0.4784  0.6809 -0.1463
 7313TIP3   OH243429   2.768   3.509  16.637  0.1375 -0.0795  0.3084
 7313TIP3    H143430   2.831   3.455  16.685 -1.3503 -0.3753  2.0017
 7313TIP3    H243431   2.751   3.583  16.695 -1.1940 -0.0977 -0.0401
 7314TIP3   OH243432   5.686   4.984  13.210 -0.3787  0.0531 -1.0359
 7314TIP3    H143433   5.754   4.918  13.220 -2.0697 -1.5172  0.6763
 7314TIP3    H243434   5.693   5.038  13.288  0.3838  1.3475 -1.9811
 7315TIP3   OH243435   5.765   5.267   3.357 -0.1199 -0.0770  0.1821
 7315TIP3    H143436   5.846   5.240   3.402 -0.3930  0.2202  0.8598
 7315TIP3    H243437   5.795   5.328   3.290  0.1040  0.9588  1.2157
 7316TIP3   OH243438   3.757   4.559   1.497  0.2136  0.2591  0.0462
 7316TIP3    H143439   3.668   4.533   1.518  0.0112  0.3906 -0.6410
 7316TIP3    H243440   3.799   4.479   1.467 -0.0703  0.4822 -0.9464
 7317TIP3   OH243441   0.668   3.341   4.251  0.3056  0.1521  0.0870
 7317TIP3    H143442   0.699   3.360   4.162 -0.0422 -0.0968 -0.0924
 7317TIP3    H243443   0.681   3.247   4.261 -0.9977 -0.0701 -0.2386
 7318TIP3   OH243444   5.779   1.884   4.702  0.2101  0.5396  0.2078
 7318TIP3    H143445   5.829   1.805   4.723  0.6508  0.1264 -2.1593
 7318TIP3    H243446   5.691   1.866   4.733  0.8097  0.0058  1.6315
 7319TIP3   OH243447   6.253   6.804  12.263 -0.5246 -0.0322  0.2637
 7319TIP3    H143448   6.324   6.866  12.252  0.4954 -1.3749 -0.9397
 7319TIP3    H243449   6.185   6.834  12.202 -1.4073  1.7671  2.0592
 7320TIP3   OH243450   6.752   1.376  11.755  0.0390  0.3910 -0.0128
 7320TIP3    H143451   6.702   1.454  11.776 -0.4253 -0.0143  0.3937
 7320TIP3    H243452   6.723   1.310  11.818 -0.6419 -0.5393 -1.2541
 7321TIP3   OH243453   3.948   0.964  16.384  0.0072 -0.3270  0.8774
 7321TIP3    H143454   4.027   0.919  16.353 -0.9690 -0.7495 -1.0869
 7321TIP3    H243455   3.981   1.032  16.444  1.8981 -0.2443 -0.2022
 7322TIP3   OH243456   4.642   3.178  13.034  0.8533  0.0657 -0.0792
 7322TIP3    H143457   4.587   3.159  13.110 -1.5260  1.5484 -1.4135
 7322TIP3    H243458   4.599   3.134  12.961  1.7648  0.7399 -1.0376
 7323TIP3   OH243459   0.025   3.015  16.307 -0.2439 -0.3709  0.1614
 7323TIP3    H143460   0.071   3.072  16.246  0.5603 -0.3608  0.7675
 7323TIP3    H243461   0.058   3.040  16.394 -0.2802 -1.3767  0.4771
 7324TIP3   OH243462   2.124   6.570   5.643  0.0559  0.3233 -0.3545
 7324TIP3    H143463   2.119   6.477   5.666 -0.0356  0.1208 -1.1966
 7324TIP3    H243464   2.058   6.582   5.575 -1.0223  1.3374  0.8280
 7325TIP3   OH243465   4.869   1.905  17.006 -0.4525  0.1805  0.0908
 7325TIP3    H143466   4.960   1.898  17.033 -0.1318  0.3368 -0.9311
 7325TIP3    H243467   4.857   1.998  16.985 -0.8995  0.1949  0.3946
 7326TIP3   OH243468   1.604   5.774  14.868  0.5616  0.3001  0.0518
 7326TIP3    H143469   1.546   5.730  14.930  0.4857  0.3874  0.0434
 7326TIP3    H243470   1.690   5.735  14.883  0.4895  0.1314  0.0280
 7327TIP3   OH243471   6.313   4.821   5.481  0.4505  0.3148 -0.0955
 7327TIP3    H143472   6.263   4.743   5.455 -0.9968  1.2355 -0.1147
 7327TIP3    H243473   6.309   4.822   5.577  1.9514 -0.5767 -0.0025
 7328TIP3   OH243474   2.216   6.510   5.197 -0.3563  0.0633  0.2102
 7328TIP3    H143475   2.300   6.469   5.215 -0.3599 -0.7928 -1.5420
 7328TIP3    H243476   2.237   6.600   5.174 -0.0334  0.1686  0.9123
 7329TIP3   OH243477   4.054   3.185   0.137 -0.0548 -0.2012 -0.3894
 7329TIP3    H143478   4.139   3.228   0.129 -0.2693  0.3656  0.3363
 7329TIP3    H243479   4.075   3.091   0.135  0.8792 -0.0886  2.4695
 7330TIP3   OH243480   4.164   4.435   2.440 -0.1282  0.0995  0.0568
 7330TIP3    H143481   4.118   4.491   2.503 -0.5812 -0.2381  0.0350
 7330TIP3    H243482   4.094   4.385   2.398  0.1316  0.6843 -1.0761
 7331TIP3   OH243483   3.227   5.426  13.387 -0.5654  0.3949 -0.2438
 7331TIP3    H143484   3.305   5.481  13.381 -0.0879 -0.0964  1.1288
 7331TIP3    H243485   3.158   5.476  13.344  0.2383  1.3691 -0.3987
 7332TIP3   OH243486   0.762   3.783   1.393 -0.7725 -0.4382 -0.1163
 7332TIP3    H143487   0.739   3.858   1.338  0.9750 -0.2072 -0.5713
 7332TIP3    H243488   0.819   3.820   1.461 -0.5660 -1.2020  0.1292
 7333TIP3   OH243489   1.299   5.206   5.576 -0.1914  0.1498 -0.1612
 7333TIP3    H143490   1.260   5.223   5.661 -1.9719 -0.3311 -0.8551
 7333TIP3    H243491   1.250   5.260   5.515  0.8661  0.2580 -0.9424
 7334TIP3   OH243492   4.991   2.808  15.393 -0.5375 -0.4063  0.0066
 7334TIP3    H143493   4.990   2.810  15.488  0.0300 -0.4429  0.0112
 7334TIP3    H243494   4.985   2.900  15.367 -1.6825 -0.4515  0.0638
 7335TIP3   OH243495   0.489   1.687   4.300  0.0114 -0.1804  0.3052
 7335TIP3    H143496   0.581   1.668   4.318  0.1671  0.9958  0.8023
 7335TIP3    H243497   0.458   1.733   4.379 -0.6004  0.7385 -0.4517
 7336TIP3   OH243498   5.343   0.945  17.136 -0.0813  0.1085  0.3510
 7336TIP3    H143499   5.255   0.927  17.170 -0.0812  0.1374  0.3664
 7336TIP3    H243500   5.329   1.011  17.068  0.1627  1.6425  1.7557
 7337TIP3   OH243501   5.053   3.051  16.153 -0.1075  0.3621  0.1383
 7337TIP3    H143502   5.024   3.114  16.086 -1.8733  0.2003  0.7271
 7337TIP3    H243503   5.128   3.007  16.113 -1.2688  0.1294 -1.8418
 7338TIP3   OH243504   5.591   6.111   1.077  0.2540 -0.1233 -0.2269
 7338TIP3    H143505   5.587   6.021   1.045 -0.9395 -0.3355  0.4891
 7338TIP3    H243506   5.677   6.119   1.116  0.2553 -1.0481 -0.0259
 7339TIP3   OH243507   1.958   5.340  16.593  0.1713 -0.5571  0.1832
 7339TIP3    H143508   1.928   5.251  16.577  1.5589 -1.3137  1.7163
 7339TIP3    H243509   1.889   5.395  16.556 -1.9905 -2.2569  1.5833
 7340TIP3   OH243510   5.796   3.292   2.196 -0.4684  0.3018 -0.3706
 7340TIP3    H143511   5.875   3.333   2.230  0.8854 -3.5686  1.5594
 7340TIP3    H243512   5.725   3.323   2.253  0.7480 -1.0302  1.9483
 7341TIP3   OH243513   3.407   4.022  14.551  0.5142  0.8755 -0.4860
 7341TIP3    H143514   3.359   3.956  14.601 -1.0417  1.6648 -0.9185
 7341TIP3    H243515   3.440   4.083  14.616  1.9327 -0.2774 -0.0858
 7342TIP3   OH243516   2.202   4.439   6.076  0.4798 -0.2767 -1.2050
 7342TIP3    H143517   2.233   4.373   6.138 -2.1939  1.2479  1.8958
 7342TIP3    H243518   2.275   4.500   6.066  0.3242  0.5004  2.0078
 7343TIP3   OH243519   5.103   3.721   1.872 -0.6595 -0.1964 -0.0211
 7343TIP3    H143520   5.181   3.752   1.826 -1.6665  0.5305 -1.2893
 7343TIP3    H243521   5.054   3.801   1.891 -0.6352 -0.5649  1.6488
 7344TIP3   OH243522   3.534   2.826  12.938 -0.3458 -0.1046 -0.3338
 7344TIP3    H143523   3.486   2.762  12.990  0.3894  0.1333  0.6439
 7344TIP3    H243524   3.626   2.802  12.948  0.0915  2.0740  1.4294
 7345TIP3   OH243525   1.582   5.992   2.332 -0.1249  0.4212 -0.0143
 7345TIP3    H143526   1.604   5.990   2.425  0.2538 -0.4760 -0.1190
 7345TIP3    H243527   1.493   5.956   2.328  0.3103 -0.6693 -0.1166
 7346TIP3   OH243528   0.640   6.280  14.059  0.4074 -0.0127 -0.8944
 7346TIP3    H143529   0.699   6.263  13.985  0.5780  3.3015 -1.5943
 7346TIP3    H243530   0.601   6.365  14.039 -1.0709 -0.0003  1.8736
 7347TIP3   OH243531   1.463   4.028   0.385 -0.1084 -0.5644  0.2663
 7347TIP3    H143532   1.534   4.045   0.323 -0.3904 -0.0371  0.0813
 7347TIP3    H243533   1.498   4.056   0.470 -0.4966  0.7972 -0.0055
 7348TIP3   OH243534   4.712   1.409   0.660 -0.4783 -0.2891 -0.4231
 7348TIP3    H143535   4.642   1.474   0.668  0.9609  1.4239 -1.4450
 7348TIP3    H243536   4.716   1.369   0.747 -0.4414  1.9993  0.6896
 7349TIP3   OH243537   0.234   2.759   1.606  0.2612 -0.0571 -0.4685
 7349TIP3    H143538   0.189   2.686   1.562 -0.1797 -0.1287  0.0979
 7349TIP3    H243539   0.262   2.816   1.534 -0.6393 -0.0710 -0.8353
 7350TIP3   OH243540   1.484   3.303  16.705  0.0935  0.2842  0.2600
 7350TIP3    H143541   1.561   3.317  16.762 -1.1446 -0.2185  2.1190
 7350TIP3    H243542   1.415   3.355  16.745 -1.1136 -0.9806 -0.1253
 7351TIP3   OH243543   0.894   5.398  15.640  0.3399 -0.2457 -0.1123
 7351TIP3    H143544   0.957   5.418  15.571  0.0434 -1.1712 -0.6621
 7351TIP3    H243545   0.848   5.320  15.609  1.0040 -1.3872  1.6421
 7352TIP3   OH243546   4.795   0.297  13.522 -0.3894  0.4146 -0.7760
 7352TIP3    H143547   4.831   0.372  13.569 -0.0956  1.0578 -2.0024
 7352TIP3    H243548   4.752   0.335  13.446 -0.2985 -0.6533 -1.3700
 7353TIP3   OH243549   0.380   2.876   2.574  0.0703  0.4394  0.3412
 7353TIP3    H143550   0.289   2.855   2.596 -0.0021 -0.5741 -0.8513
 7353TIP3    H243551   0.418   2.792   2.550  0.9350  1.0732 -0.5135
 7354TIP3   OH243552   6.389   5.502  15.333  0.0459  0.1740 -0.6823
 7354TIP3    H143553   6.340   5.493  15.251 -0.7979  0.7071 -0.2479
 7354TIP3    H243554   6.343   5.571  15.381 -0.1781 -0.9507  0.7585
 7355TIP3   OH243555   2.907   0.478  11.329  0.0218 -0.0347  0.2583
 7355TIP3    H143556   2.876   0.398  11.372 -1.7428  1.2248  1.3516
 7355TIP3    H243557   2.930   0.449  11.240 -1.3966 -1.6068  0.3726
 7356TIP3   OH243558   2.353   4.912  14.636 -0.0945  0.6595 -0.5073
 7356TIP3    H143559   2.396   4.845  14.689 -1.7534  0.6909  0.9179
 7356TIP3    H243560   2.385   4.995  14.671 -0.9066  0.6717  0.2338
 7357TIP3   OH243561   4.207   5.958  12.634  0.4477  0.2567  0.5285
 7357TIP3    H143562   4.116   5.987  12.645 -0.0735 -1.3492  0.6645
 7357TIP3    H243563   4.240   6.009  12.561 -1.1234 -0.3686 -0.6451
 7358TIP3   OH243564   4.864   2.813   5.684  0.2594  0.0793 -0.6989
 7358TIP3    H143565   4.954   2.823   5.653  1.1710 -1.5425  1.3130
 7358TIP3    H243566   4.870   2.749   5.755 -2.2046  1.3330  0.6975
 7359TIP3   OH243567   2.698   2.907  11.674 -0.5004 -0.3755  0.1758
 7359TIP3    H143568   2.691   2.814  11.698  0.4969 -0.1960  1.2063
 7359TIP3    H243569   2.770   2.910  11.611  0.3216 -0.1411  1.1071
 7360TIP3   OH243570   0.307   2.901  12.294  1.1161 -0.6911 -0.4137
 7360TIP3    H143571   0.213   2.919  12.297  1.2586 -0.1263  1.6674
 7360TIP3    H243572   0.314   2.811  12.262 -0.0189 -0.0155 -2.6294
 7361TIP3   OH243573   3.178   2.226  13.259  0.2559  0.8567  0.7522
 7361TIP3    H143574   3.150   2.301  13.206 -2.7686 -0.3495  0.5818
 7361TIP3    H243575   3.165   2.255  13.350  1.1062  1.2714  0.7508
 7362TIP3   OH243576   5.562   4.654   3.058  0.0156  0.4837  0.0156
 7362TIP3    H143577   5.531   4.633   2.970 -0.6811  0.8534  0.1698
 7362TIP3    H243578   5.637   4.713   3.044  1.3061 -1.2310 -0.3799
 7363TIP3   OH243579   4.602   1.766   5.121 -0.9287 -0.2959  0.0284
 7363TIP3    H143580   4.584   1.850   5.164  0.1228 -0.4298  0.7441
 7363TIP3    H243581   4.531   1.709   5.149  0.1059 -0.5856  2.1800
 7364TIP3   OH243582   6.040   0.929   0.683  0.0499 -0.5949  0.0047
 7364TIP3    H143583   5.954   0.970   0.696  0.1102  1.1234 -4.0898
 7364TIP3    H243584   6.022   0.835   0.681 -2.0224 -0.2201 -2.0346
 7365TIP3   OH243585   6.497   0.863   5.074  0.4438 -0.6270 -0.1292
 7365TIP3    H143586   6.521   0.925   5.005  0.9071 -0.2845  0.3350
 7365TIP3    H243587   6.453   0.915   5.140  0.2466 -0.9081 -0.0381
 7366TIP3   OH243588   1.502   4.267  12.537  0.0973 -0.1344 -0.5572
 7366TIP3    H143589   1.593   4.247  12.520  0.1263  2.1804 -3.5650
 7366TIP3    H243590   1.500   4.362  12.552 -1.9456  0.0787 -1.8617
 7367TIP3   OH243591   2.718   5.629  11.662 -0.5080 -0.2286 -0.1260
 7367TIP3    H143592   2.811   5.618  11.640  0.0913  3.0104  0.5557
 7367TIP3    H243593   2.687   5.697  11.602 -1.2910  1.8410  2.5701
 7368TIP3   OH243594   4.922   2.297  16.541 -0.2630 -0.4471 -0.1240
 7368TIP3    H143595   4.862   2.313  16.613  1.5362  1.3908  1.0112
 7368TIP3    H243596   4.872   2.319  16.462 -0.8163  2.0014  0.8601
 7369TIP3   OH243597   5.920   6.431   0.655 -0.4945 -0.0056  0.1340
 7369TIP3    H143598   5.887   6.342   0.661  1.0296 -0.5994 -0.1536
 7369TIP3    H243599   5.951   6.439   0.564 -0.3033  0.6990  0.2574
 7370TIP3   OH243600   4.692   3.373  16.928 -0.1196  0.7061 -0.2231
 7370TIP3    H143601   4.783   3.380  16.898 -0.5433  1.9887 -1.2768
 7370TIP3    H243602   4.654   3.306  16.870  0.2130 -0.0223  0.3904
 7371TIP3   OH243603   2.367   2.050  13.631  0.5243 -0.1868  0.0957
 7371TIP3    H143604   2.363   2.142  13.603  3.7832  0.7789  2.4696
 7371TIP3    H243605   2.379   2.001  13.550  0.2854  1.6314 -1.0746
 7372TIP3   OH243606   5.024   0.675  14.217  0.2457 -0.1012  1.1894
 7372TIP3    H143607   4.978   0.691  14.135  0.9440  3.0691  1.3712
 7372TIP3    H243608   4.966   0.617  14.266 -1.1898 -0.2622 -0.6384
 7373TIP3   OH243609   0.909   1.253   5.611  0.1974 -0.0019  0.6056
 7373TIP3    H143610   0.856   1.289   5.540  0.1749  1.2931  1.2650
 7373TIP3    H243611   0.970   1.192   5.568  0.5277  1.1549 -0.5894
 7374TIP3   OH243612   3.662   0.529   0.141  0.0297 -0.1814  0.0409
 7374TIP3    H143613   3.748   0.500   0.172  0.7470  2.1360  0.2923
 7374TIP3    H243614   3.626   0.452   0.097  3.3474 -0.4584 -2.4184
 7375TIP3   OH243615   3.577   0.043   4.275  0.0076  0.3034 -0.2556
 7375TIP3    H143616   3.490   0.032   4.314  0.7908 -1.4182  1.0522
 7375TIP3    H243617   3.563   0.026   4.182 -0.8131 -1.5530  0.1716
 7376TIP3   OH243618   1.615   1.003  13.324 -0.1517  0.1786 -0.0678
 7376TIP3    H143619   1.683   1.056  13.364  0.4207 -0.2568 -0.4607
 7376TIP3    H243620   1.657   0.962  13.248 -1.2753  1.1169 -1.2180
 7377TIP3   OH243621   4.276   5.445  12.987 -0.4186  0.1057 -0.3870
 7377TIP3    H143622   4.245   5.536  12.992  0.2945  0.3013  0.6368
 7377TIP3    H243623   4.214   5.396  13.042 -0.4119  0.0846 -0.3982
 7378TIP3   OH243624   5.352   5.432  16.144  0.3066  0.1152 -0.3885
 7378TIP3    H143625   5.379   5.474  16.062  1.3152 -0.2395 -0.2392
 7378TIP3    H243626   5.272   5.384  16.121 -0.1524  1.0892 -0.8500
 7379TIP3   OH243627   5.183   1.424  16.698  0.1924 -0.3750  0.0194
 7379TIP3    H143628   5.240   1.367  16.646 -0.7470  0.5344 -2.0891
 7379TIP3    H243629   5.104   1.372  16.711  0.4323 -0.6077  0.5564
 7380TIP3   OH243630   4.156   2.932   0.200  0.2748  0.1148 -0.1189
 7380TIP3    H143631   4.113   2.891   0.275 -0.7912  0.2423 -0.6533
 7380TIP3    H243632   4.244   2.951   0.231 -0.3659  0.7993  1.3418
 7381TIP3   OH243633   3.294   2.844   0.783 -0.8899 -0.2383  0.8748
 7381TIP3    H143634   3.344   2.789   0.843 -2.0285 -0.5656  1.5507
 7381TIP3    H243635   3.265   2.784   0.714  0.4278  0.1409 -0.0255
 7382TIP3   OH243636   4.307   0.442  14.518 -0.1884 -0.3165  0.3704
 7382TIP3    H143637   4.383   0.411  14.468 -0.2608  1.0753 -0.6507
 7382TIP3    H243638   4.343   0.471  14.602  0.2040 -0.9768  0.4287
 7383TIP3   OH243639   2.922   6.078   5.840 -0.2721  0.3609 -0.7634
 7383TIP3    H143640   3.011   6.044   5.855 -0.5251 -0.9764 -2.1702
 7383TIP3    H243641   2.884   6.085   5.927  0.7922 -0.2414 -0.2439
 7384TIP3   OH243642   6.072   4.733  13.270  0.0366 -0.0446  0.4115
 7384TIP3    H143643   6.108   4.812  13.230 -1.3766  1.1750  1.5023
 7384TIP3    H243644   5.978   4.735  13.248 -0.3951 -0.3521  2.1424
 7385TIP3   OH243645   2.386   1.250  15.296 -0.4778  0.2685 -0.2717
 7385TIP3    H143646   2.461   1.195  15.273 -1.3633 -1.1530  0.1544
 7385TIP3    H243647   2.420   1.340  15.293  1.9910 -0.4797  2.7278
 7386TIP3   OH243648   3.687   2.854  16.673 -0.1770  0.1027 -0.3985
 7386TIP3    H143649   3.751   2.923  16.688  0.8136 -0.9292  0.1546
 7386TIP3    H243650   3.681   2.848  16.577  1.2050 -0.3963 -0.4616
 7387TIP3   OH243651   0.630   5.905   2.060  0.7483 -0.2000 -0.0576
 7387TIP3    H143652   0.703   5.950   2.018 -0.1843  1.7746  0.3779
 7387TIP3    H243653   0.648   5.911   2.154 -1.9374  3.9289  0.3080
 7388TIP3   OH243654   1.405   6.323  14.941  0.2280 -0.4368  0.0672
 7388TIP3    H143655   1.452   6.252  14.986 -0.2872 -0.3520  0.7634
 7388TIP3    H243656   1.323   6.282  14.913 -0.4957  0.1092  1.3157
 7389TIP3   OH243657   0.633   3.254   1.464 -0.0754  0.0989 -0.2849
 7389TIP3    H143658   0.567   3.256   1.533  0.5930  2.0056  0.3344
 7389TIP3    H243659   0.584   3.238   1.383 -0.9356 -1.4164  0.5323
 7390TIP3   OH243660   1.831   6.650  13.776  0.2433  0.5261  0.1507
 7390TIP3    H143661   1.864   6.635  13.688 -1.5305  0.1042 -0.4496
 7390TIP3    H243662   1.770   6.722  13.768  0.7257  1.0738  1.2042
 7391TIP3   OH243663   5.742   0.952  15.716 -0.1850 -0.2712 -0.1370
 7391TIP3    H143664   5.679   0.881  15.708 -0.2531 -0.2758  0.4065
 7391TIP3    H243665   5.713   1.018  15.653  0.7316 -1.3562 -1.7265
 7392TIP3   OH243666   4.409   0.773  11.470  0.6569  0.3399  0.1940
 7392TIP3    H143667   4.415   0.768  11.374 -0.0457 -0.2853  0.1829
 7392TIP3    H243668   4.363   0.855  11.486  0.7355  0.4246  0.0022
 7393TIP3   OH243669   0.950   4.131   0.312 -0.1944  0.1450  0.2153
 7393TIP3    H143670   0.962   4.206   0.370 -0.7390  1.8615 -1.7944
 7393TIP3    H243671   1.031   4.126   0.262  0.4400 -1.5795  1.3699
 7394TIP3   OH243672   5.260   2.530   4.311 -0.4579  0.1451  0.6434
 7394TIP3    H143673   5.267   2.480   4.229 -1.6832 -0.8703  1.1420
 7394TIP3    H243674   5.293   2.617   4.288 -2.1673  0.3158 -1.3389
 7395TIP3   OH243675   5.148   1.330   1.571  0.0290  0.1686  0.4409
 7395TIP3    H143676   5.076   1.274   1.599  0.6472 -1.0871 -0.4340
 7395TIP3    H243677   5.115   1.375   1.494 -0.5354  1.1880  1.2555
 7396TIP3   OH243678   3.824   5.748   4.979 -0.2981  0.1986 -0.2964
 7396TIP3    H143679   3.863   5.753   5.066 -0.2198 -1.1696 -0.2474
 7396TIP3    H243680   3.732   5.728   4.995 -0.0050 -1.4140 -0.5585
 7397TIP3   OH243681   6.160   3.837  10.780  0.0107  0.2839  0.4094
 7397TIP3    H143682   6.198   3.759  10.739  0.7620  0.2113  1.2162
 7397TIP3    H243683   6.221   3.908  10.758  2.1293 -0.3315  3.9673
 7398TIP3   OH243684   5.306   4.941  13.365 -0.4634  0.4990 -0.5760
 7398TIP3    H143685   5.353   4.904  13.291 -1.0919  2.0800 -1.7721
 7398TIP3    H243686   5.223   4.893  13.367  0.1747 -0.6231  0.0893
 7399TIP3   OH243687   2.332   3.497   3.266 -0.0997  0.6186 -0.2342
 7399TIP3    H143688   2.277   3.481   3.189  0.3527 -1.7169 -0.0994
 7399TIP3    H243689   2.281   3.558   3.319 -0.8696  1.4675 -1.8787
 7400TIP3   OH243690   4.350   6.303   3.529 -0.3316  0.4266  0.5635
 7400TIP3    H143691   4.358   6.276   3.620  0.6480  1.7840  0.8883
 7400TIP3    H243692   4.440   6.300   3.495 -0.6501  0.2250 -0.2713
 7401TIP3   OH243693   2.428   0.280   3.470 -0.3072  0.1636 -0.4246
 7401TIP3    H143694   2.442   0.234   3.388 -2.1217 -0.9569 -0.1257
 7401TIP3    H243695   2.334   0.271   3.488  0.2739 -0.7971  2.4428
 7402TIP3   OH243696   1.371   6.068   6.206  0.4273 -0.5476  0.1527
 7402TIP3    H143697   1.342   5.985   6.168  0.4796 -0.0308 -1.0315
 7402TIP3    H243698   1.456   6.048   6.246  0.6089 -0.9848 -0.4446
 7403TIP3   OH243699   4.957   0.655   5.453  0.0232 -0.3186 -0.0755
 7403TIP3    H143700   5.046   0.666   5.485 -0.8846  1.4599  2.0515
 7403TIP3    H243701   4.907   0.628   5.530 -1.1568 -1.9526 -1.3870
 7404TIP3   OH243702   4.953   5.182   0.692 -0.1247 -0.3327 -0.2045
 7404TIP3    H143703   4.960   5.245   0.764  1.6583 -0.0679 -0.5942
 7404TIP3    H243704   4.967   5.234   0.613 -0.7849 -0.8493 -0.6668
 7405TIP3   OH243705   3.405   1.480  12.606  0.6308  0.3739  0.3173
 7405TIP3    H143706   3.364   1.550  12.656 -2.5712 -0.4727 -1.0134
 7405TIP3    H243707   3.442   1.523  12.529 -0.0960  0.7978  0.2007
 7406TIP3   OH243708   3.666   0.398  14.116 -0.0124 -0.1376  0.3646
 7406TIP3    H143709   3.690   0.472  14.060  0.0550 -1.1093 -0.9440
 7406TIP3    H243710   3.744   0.382  14.170  0.5521 -0.2505 -0.4695
 7407TIP3   OH243711   3.225   4.624   4.624 -0.4380  0.0362 -0.5529
 7407TIP3    H143712   3.291   4.654   4.687 -2.0011  2.7275 -0.1110
 7407TIP3    H243713   3.220   4.530   4.638  1.6983  0.1037  0.9578
 7408TIP3   OH243714   2.573   2.312   3.698 -0.2083  0.0517  0.2355
 7408TIP3    H143715   2.595   2.248   3.766  2.4096  3.2307  2.5093
 7408TIP3    H243716   2.542   2.388   3.747 -1.8096  1.1023 -2.3499
 7409TIP3   OH243717   2.464   3.114   4.958  0.0149 -0.2386 -0.1582
 7409TIP3    H143718   2.421   3.028   4.959  1.4160 -0.9537  1.0717
 7409TIP3    H243719   2.533   3.104   4.892 -2.1072  1.1535 -2.7092
 7410TIP3   OH243720   2.343   2.926  17.057 -0.4258  0.1151  0.2784
 7410TIP3    H143721   2.361   2.857  17.120 -2.3459  1.2856  2.1635
 7410TIP3    H243722   2.402   2.907  16.984 -0.0791 -2.8106  1.2454
 7411TIP3   OH243723   1.029   5.730   1.019 -0.1446  0.0408  0.5637
 7411TIP3    H143724   0.977   5.789   1.074  0.0778  2.0003 -1.3218
 7411TIP3    H243725   1.030   5.770   0.933 -0.2351 -2.8688 -0.8612
 7412TIP3   OH243726   2.243   1.656  16.937 -0.1833  0.3265 -0.1375
 7412TIP3    H143727   2.227   1.601  17.013  0.2169  0.9628  0.4117
 7412TIP3    H243728   2.183   1.623  16.870 -2.4047  1.3743  1.2612
 7413TIP3   OH243729   1.530   3.002   2.405  0.1535 -0.1264  0.3373
 7413TIP3    H143730   1.530   2.975   2.313  0.4363  1.4437 -0.1477
 7413TIP3    H243731   1.478   2.935   2.450  0.5343 -1.2436 -0.8569
 7414TIP3   OH243732   1.024   3.223  13.206  0.0067 -0.1891  0.0895
 7414TIP3    H143733   1.114   3.194  13.224 -0.5539 -1.0385  1.6338
 7414TIP3    H243734   0.988   3.156  13.149 -0.0679 -0.5682  0.5736
 7415TIP3   OH243735   1.775   0.598  13.043 -0.7171 -0.1979 -0.0297
 7415TIP3    H143736   1.757   0.509  13.073 -1.4877 -0.7315 -2.0089
 7415TIP3    H243737   1.869   0.599  13.027 -0.8950 -1.0173 -1.1489
 7416TIP3   OH243738   5.147   3.081  13.088 -0.1944  0.1109 -0.4488
 7416TIP3    H143739   5.054   3.072  13.066 -0.8063  0.6575  1.8077
 7416TIP3    H243740   5.166   3.174  13.077 -0.2208  0.1986  0.2380
 7417TIP3   OH243741   1.945   0.523   2.448 -0.2545  0.5857  0.0948
 7417TIP3    H143742   1.959   0.617   2.461 -0.5074  0.3647  2.1358
 7417TIP3    H243743   2.019   0.482   2.493  1.5242 -0.1395 -3.3767
 7418TIP3   OH243744   2.506   0.870   6.355  0.5368  0.1756  0.2081
 7418TIP3    H143745   2.428   0.817   6.370  0.7128  0.5535  2.5694
 7418TIP3    H243746   2.476   0.942   6.299 -0.1382 -1.2625 -1.3372
 7419TIP3   OH243747   2.689   5.194  14.236  0.5663  0.2977 -0.5135
 7419TIP3    H143748   2.610   5.172  14.186  0.3461 -3.9523  1.4424
 7419TIP3    H243749   2.761   5.170  14.178  0.4260  1.5826 -1.2419
 7420TIP3   OH243750   3.205   4.650   3.832 -0.1053  0.2279 -0.0549
 7420TIP3    H143751   3.141   4.650   3.903  0.1606 -0.8263  0.1930
 7420TIP3    H243752   3.152   4.658   3.752 -0.3389  2.4594  0.2908
 7421TIP3   OH243753   6.261   6.401  17.248 -0.0360  0.2685 -0.2002
 7421TIP3    H143754   6.208   6.472  17.211  1.8094  1.3059 -0.9120
 7421TIP3    H243755   6.310   6.442  17.320 -1.4946 -1.0926  1.6265
 7422TIP3   OH243756   1.838   5.794  13.408  0.4300  0.1730  0.4968
 7422TIP3    H143757   1.755   5.759  13.442  0.5571  2.2660  3.1845
 7422TIP3    H243758   1.812   5.870  13.355  0.5256 -0.3245 -0.2692
 7423TIP3   OH243759   5.713   2.107  13.747 -1.0425  0.5046 -0.3892
 7423TIP3    H143760   5.719   2.018  13.711 -0.2733 -0.9661  3.1827
 7423TIP3    H243761   5.781   2.156  13.701 -1.0752 -0.8782 -1.9663
 7424TIP3   OH243762   2.440   1.667   4.496 -0.1471  0.5676 -0.0737
 7424TIP3    H143763   2.426   1.683   4.589 -0.8567  0.7442 -0.2087
 7424TIP3    H243764   2.359   1.628   4.465 -0.4182  1.7345 -0.8939
 7425TIP3   OH243765   6.068   4.302  12.542 -0.2431 -0.4720  0.3095
 7425TIP3    H143766   6.025   4.371  12.493  1.7143 -0.1230 -0.9397
 7425TIP3    H243767   6.001   4.233  12.550 -1.8020  1.0393  0.5312
 7426TIP3   OH243768   4.020   2.316   4.934 -0.0471  0.0259 -1.0504
 7426TIP3    H143769   4.110   2.299   4.905 -0.5858 -0.6378 -2.3926
 7426TIP3    H243770   4.024   2.402   4.975  1.1280  0.1899 -1.4851
 7427TIP3   OH243771   0.574   6.222  14.626  0.0608 -0.3934  0.1748
 7427TIP3    H143772   0.583   6.315  14.645  2.0600 -0.2583 -1.2774
 7427TIP3    H243773   0.651   6.201  14.573 -0.9021 -2.6410 -0.3779
 7428TIP3   OH243774   0.402   5.128   5.132  0.4141  0.0029 -0.0013
 7428TIP3    H143775   0.315   5.105   5.099 -1.1045  1.1227  2.9652
 7428TIP3    H243776   0.384   5.184   5.208  3.7212 -0.7204  1.3928
 7429TIP3   OH243777   5.338   1.706  12.013 -0.2645  0.2790 -0.6966
 7429TIP3    H143778   5.288   1.784  12.036  1.5241  1.6356 -1.2242
 7429TIP3    H243779   5.381   1.680  12.094 -0.1756  0.3749 -0.7124
 7430TIP3   OH243780   3.388   6.775   1.961  0.4230  0.9971  0.1828
 7430TIP3    H143781   3.460   6.720   1.994  1.1116  1.0496 -1.1976
 7430TIP3    H243782   3.395   6.768   1.866 -1.8150  0.4736  0.0230
 7431TIP3   OH243783   1.659   6.171   4.149 -0.1706  1.0496 -0.4032
 7431TIP3    H143784   1.597   6.151   4.079  0.1088  2.1130 -0.9564
 7431TIP3    H243785   1.603   6.186   4.226 -0.4469 -0.6651 -0.2437
 7432TIP3   OH243786   1.088   1.931   0.965 -0.1781 -0.4858  0.4308
 7432TIP3    H143787   1.119   1.979   0.889  0.7723  0.9136  1.6656
 7432TIP3    H243788   1.131   1.846   0.960  0.3938 -0.1560 -0.2401
 7433TIP3   OH243789   5.140   5.301   4.799 -0.0427 -0.5598  0.2381
 7433TIP3    H143790   5.162   5.276   4.710  1.2010 -1.5770  0.8169
 7433TIP3    H243791   5.222   5.290   4.848 -0.9640 -0.9764  1.7084
 7434TIP3   OH243792   1.545   5.782  16.796 -0.0690 -0.6812  0.4676
 7434TIP3    H143793   1.586   5.698  16.820  0.0203 -0.0061  2.7532
 7434TIP3    H243794   1.484   5.800  16.867 -0.0720  1.2122 -0.0073
 7435TIP3   OH243795   3.486   0.583  12.103  0.4208  0.1036 -0.3407
 7435TIP3    H143796   3.427   0.657  12.088  1.1697  1.3150  2.5342
 7435TIP3    H243797   3.560   0.599  12.045 -0.5660  0.2234 -1.6135
 7436TIP3   OH243798   2.326   6.036   4.999 -0.4150 -0.0451  0.6101
 7436TIP3    H143799   2.358   5.980   4.928 -1.4169 -0.9470  0.8622
 7436TIP3    H243800   2.405   6.076   5.035  0.2419 -0.7337 -0.0493
 7437TIP3   OH243801   1.849   3.923   3.752 -0.1263  0.2605 -0.7148
 7437TIP3    H143802   1.853   3.982   3.828  0.4413 -1.0144  0.2649
 7437TIP3    H243803   1.757   3.928   3.724 -0.9340 -1.0136  1.5074
 7438TIP3   OH243804   5.302   4.304  16.240  0.8942  0.0552 -0.1953
 7438TIP3    H143805   5.265   4.379  16.193  0.1947  1.3829  2.3906
 7438TIP3    H243806   5.397   4.315  16.231  0.7770  0.7761 -0.5773
 7439TIP3   OH243807   3.447   3.138   0.069 -0.4283 -0.5148 -0.1603
 7439TIP3    H143808   3.461   3.168  -0.021  0.9929  1.8714  0.8157
 7439TIP3    H243809   3.527   3.090   0.091 -1.2225 -2.0404 -0.4992
 7440TIP3   OH243810   6.737   5.801  11.846  0.0158  0.2573  0.2688
 7440TIP3    H143811   6.761   5.750  11.769 -1.5278  0.0137 -0.0796
 7440TIP3    H243812   6.660   5.850  11.819 -0.2763  0.5015  1.5177
 7441TIP3   OH243813   4.973   3.208   4.471 -0.0555 -0.3417 -0.5398
 7441TIP3    H143814   5.013   3.216   4.557  0.5779 -0.5971 -0.8043
 7441TIP3    H243815   5.047   3.187   4.412 -0.5139 -0.4076 -1.0965
 7442TIP3   OH243816   1.221   5.804   1.941  0.1589 -0.0767 -0.4939
 7442TIP3    H143817   1.133   5.767   1.935  0.0457  0.0800  0.1695
 7442TIP3    H243818   1.279   5.727   1.940 -0.0992 -0.3353  1.3443
 7443TIP3   OH243819   4.867   0.179   3.607  0.0173  0.1861  0.6846
 7443TIP3    H143820   4.932   0.115   3.637 -0.4136 -0.2202  0.7566
 7443TIP3    H243821   4.793   0.126   3.577 -0.3222  0.6487  0.6969
 7444TIP3   OH243822   0.686   4.939  10.795 -0.0128  0.3496  0.8477
 7444TIP3    H143823   0.633   5.011  10.759 -0.4880  0.4126  1.6585
 7444TIP3    H243824   0.775   4.973  10.796 -0.2516  0.9669  1.3120
 7445TIP3   OH243825   6.422   4.215  14.929 -0.4671 -0.3524  0.3936
 7445TIP3    H143826   6.461   4.168  15.003  1.7630  1.8015  0.6551
 7445TIP3    H243827   6.458   4.171  14.852 -2.1572 -2.0818  0.5543
 7446TIP3   OH243828   6.728   4.018  16.623 -0.6216 -0.3315  0.4540
 7446TIP3    H143829   6.669   4.094  16.625  0.9976  0.9939 -0.2790
 7446TIP3    H243830   6.747   4.000  16.715 -2.2168 -0.8191  0.6991
 7447TIP3   OH243831   3.979   4.238   2.358 -0.3794  0.0054 -0.5615
 7447TIP3    H143832   3.893   4.260   2.322  1.1777  1.0010 -3.7807
 7447TIP3    H243833   3.987   4.144   2.347 -0.5268  0.0973 -1.4225
 7448TIP3   OH243834   4.046   1.257  14.884  0.3045  0.2348  0.0105
 7448TIP3    H143835   3.981   1.321  14.855  1.4858  1.8699  0.8186
 7448TIP3    H243836   4.038   1.256  14.979  1.2641  0.2548  0.0990
 7449TIP3   OH243837   4.093   0.366   3.465 -0.0612 -0.8254  0.2017
 7449TIP3    H143838   4.071   0.357   3.557 -2.2159 -0.0165 -0.2159
 7449TIP3    H243839   4.120   0.458   3.456 -3.5990  0.1942 -0.6880
 7450TIP3   OH243840   6.029   5.255  12.084 -0.8323 -0.6486 -1.0859
 7450TIP3    H143841   6.110   5.203  12.083  0.6844  1.6744 -1.9430
 7450TIP3    H243842   5.961   5.192  12.109  1.3853 -2.4100  0.7264
 7451TIP3   OH243843   5.187   0.832   3.221  0.4400  0.2478  0.2479
 7451TIP3    H143844   5.107   0.826   3.169  0.4003  1.3113  0.1735
 7451TIP3    H243845   5.237   0.903   3.180  1.1554 -0.0126  0.6532
 7452TIP3   OH243846   6.307   4.002  13.991 -0.2060  0.4472 -0.6871
 7452TIP3    H143847   6.348   4.087  14.011 -1.1314  0.5369  0.9474
 7452TIP3    H243848   6.360   3.965  13.921  3.1163  0.2316  1.8453
 7453TIP3   OH243849   5.846   2.376   3.173 -0.0280 -0.3295  0.0607
 7453TIP3    H143850   5.773   2.373   3.112  0.7229 -0.4703 -0.8380
 7453TIP3    H243851   5.869   2.284   3.188  1.3949 -0.2228 -1.3988
 7454TIP3   OH243852   5.753   1.588  13.454 -0.3451 -0.0923  0.0392
 7454TIP3    H143853   5.759   1.493  13.468 -0.4877 -0.5997 -3.1015
 7454TIP3    H243854   5.841   1.620  13.476  0.5165 -1.3495 -1.4413
 7455TIP3   OH243855   4.295   1.056  16.541  0.1339 -0.8458 -0.0983
 7455TIP3    H143856   4.289   1.150  16.525  0.0617 -1.0419 -1.2590
 7455TIP3    H243857   4.389   1.038  16.547  0.1745 -0.8380 -0.7150
 7456TIP3   OH243858   1.563   1.519   5.028 -0.0342  0.8203  0.0790
 7456TIP3    H143859   1.585   1.574   4.953  0.2630  1.1719  0.4264
 7456TIP3    H243860   1.610   1.437   5.013  0.1161  0.9336 -0.0597
 7457TIP3   OH243861   0.017   3.845  13.484 -0.6349  0.3412 -0.1955
 7457TIP3    H143862  -0.055   3.863  13.424 -1.2187 -2.9797 -0.5964
 7457TIP3    H243863   0.090   3.820  13.428 -0.4157 -0.2935  0.3621
 7458TIP3   OH243864   6.372   5.214  15.884 -0.6990 -0.1865 -0.3417
 7458TIP3    H143865   6.442   5.279  15.885  0.2912 -1.2468 -0.0085
 7458TIP3    H243866   6.295   5.262  15.916 -0.3774  1.2328 -1.6218
 7459TIP3   OH243867   3.977   0.539   4.322 -0.2073  0.0148 -0.0194
 7459TIP3    H143868   3.892   0.506   4.293 -0.2511  0.1516 -0.0423
 7459TIP3    H243869   4.003   0.477   4.391 -1.6098  1.5602  1.9593
 7460TIP3   OH243870   4.628   5.904  12.528 -0.0266  0.6964  0.2203
 7460TIP3    H143871   4.564   5.903  12.599 -0.8706 -1.6661 -0.5387
 7460TIP3    H243872   4.710   5.927  12.571 -0.4614 -0.9793  2.0469
 7461TIP3   OH243873   0.359   3.156  15.758  0.5396  0.5175  0.2553
 7461TIP3    H143874   0.309   3.086  15.716 -0.2692  2.0075 -1.2757
 7461TIP3    H243875   0.433   3.110  15.799 -0.4286 -1.3337 -0.0061
 7462TIP3   OH243876   3.043   0.077  13.252  0.3187  0.6719  0.0621
 7462TIP3    H143877   3.109   0.138  13.284  1.2672  2.4025 -4.7237
 7462TIP3    H243878   3.093   0.010  13.206 -1.0773 -0.0695 -0.3901
 7463TIP3   OH243879   0.509   3.059  12.193  0.7360  0.8645 -0.1259
 7463TIP3    H143880   0.497   3.072  12.099  2.5368  1.8465 -0.2332
 7463TIP3    H243881   0.420   3.048  12.226  0.1807 -1.3105 -2.1817
 7464TIP3   OH243882   1.037   1.517   1.651  1.0429 -0.1429 -0.2892
 7464TIP3    H143883   1.110   1.541   1.708  0.7293  0.3545 -0.0909
 7464TIP3    H243884   1.008   1.432   1.684  1.8480 -0.5716 -0.6803
 7465TIP3   OH243885   3.823   1.805  16.301 -0.1677  0.0513  0.6290
 7465TIP3    H143886   3.739   1.793  16.256  0.0405 -1.3512  0.6074
 7465TIP3    H243887   3.830   1.900  16.313 -1.1140  0.2957 -0.6037
 7466TIP3   OH243888   2.336   4.641  16.243  0.0807 -0.6218  0.1811
 7466TIP3    H143889   2.418   4.659  16.290  0.5020 -0.6061 -0.5664
 7466TIP3    H243890   2.281   4.596  16.308 -1.0648  3.3973  2.1999
 7467TIP3   OH243891   0.135   1.797   6.138  0.3974  0.3895  0.4494
 7467TIP3    H143892   0.082   1.719   6.119  0.6693  0.2271  0.3506
 7467TIP3    H243893   0.071   1.867   6.149  0.2344  0.6748 -1.9284
 7468TIP3   OH243894   3.050   2.150  12.520  0.3250 -0.1502 -0.7629
 7468TIP3    H143895   3.072   2.097  12.597 -2.1063 -0.2295 -0.0686
 7468TIP3    H243896   3.095   2.233  12.534 -1.6635  0.5444  1.7528
 7469TIP3   OH243897   5.804   2.875  16.386  0.2030  0.0726 -0.0925
 7469TIP3    H143898   5.784   2.781  16.389 -0.3470  0.1682 -0.5855
 7469TIP3    H243899   5.720   2.918  16.405  0.4864  0.4659  0.2891
 7470TIP3   OH243900   6.354   2.293   1.886 -0.0033 -0.4965 -0.4240
 7470TIP3    H143901   6.376   2.274   1.977 -0.3399  0.1940 -0.1955
 7470TIP3    H243902   6.329   2.208   1.849  3.3743 -1.4036 -0.8089
 7471TIP3   OH243903   2.408   2.604  14.144  0.3991  0.0956 -0.0816
 7471TIP3    H143904   2.426   2.513  14.121 -0.8491 -0.5608  1.4329
 7471TIP3    H243905   2.313   2.613  14.133  0.4676  1.1311  0.1036
 7472TIP3   OH243906   4.681   0.056   1.560 -0.1639  0.2076 -0.3830
 7472TIP3    H143907   4.755   0.108   1.590  1.1129 -1.2181 -1.0054
 7472TIP3    H243908   4.612   0.120   1.544  1.2703  1.6693 -0.8571
 7473TIP3   OH243909   1.201   4.367   6.477  0.4808  0.2393 -0.2512
 7473TIP3    H143910   1.255   4.437   6.513 -0.3715  0.1997  1.1228
 7473TIP3    H243911   1.264   4.299   6.452  1.1832  0.8320 -0.1144
 7474TIP3   OH243912   2.857   5.239  17.090 -0.3031  0.3326 -0.2879
 7474TIP3    H143913   2.834   5.149  17.111 -0.0633  0.2383 -0.4243
 7474TIP3    H243914   2.824   5.290  17.163 -1.9770  0.3367 -1.0349
 7475TIP3   OH243915   5.726   4.305  14.749  0.1223  0.1939  0.4315
 7475TIP3    H143916   5.702   4.244  14.679 -0.2592 -0.8249  1.4258
 7475TIP3    H243917   5.764   4.249  14.817  1.5424  1.3050  0.5760
 7476TIP3   OH243918   0.443   3.859   0.984  0.8273 -0.0866 -0.5496
 7476TIP3    H143919   0.455   3.784   1.043  1.5998 -0.1660 -0.7987
 7476TIP3    H243920   0.511   3.848   0.917  0.4521  0.4233 -1.0175
 7477TIP3   OH243921   6.595   3.206  14.557 -0.5572 -0.4296  0.0109
 7477TIP3    H143922   6.589   3.145  14.484  2.3763 -1.6201  0.6665
 7477TIP3    H243923   6.637   3.155  14.627  0.3562  1.8165  1.1451
 7478TIP3   OH243924   0.949   5.434   0.268  0.8852 -0.1072  0.0780
 7478TIP3    H143925   0.985   5.369   0.328 -0.5755 -0.2324  0.8495
 7478TIP3    H243926   0.915   5.383   0.195 -0.6686 -0.2839  0.8928
 7479TIP3   OH243927   0.178   5.602  11.115 -0.6338  0.2685  0.1484
 7479TIP3    H143928   0.095   5.604  11.162 -0.4784 -1.1118  0.4967
 7479TIP3    H243929   0.215   5.689  11.128 -2.4562  1.2137 -0.7962
 7480TIP3   OH243930   3.125   5.586  13.173  0.4144  0.0678 -0.8367
 7480TIP3    H143931   3.194   5.595  13.107  1.3535  3.6432  0.4759
 7480TIP3    H243932   3.114   5.675  13.207 -2.1793 -1.1555  1.6774
 7481TIP3   OH243933   2.931   2.270  12.074 -0.0901 -0.1078 -0.5172
 7481TIP3    H143934   2.849   2.290  12.119 -0.6513 -2.2058 -0.5576
 7481TIP3    H243935   2.972   2.355  12.059 -2.1068  0.9410 -0.1967
 7482TIP3   OH243936   2.630   0.079  12.505  0.7497  0.6162  0.4398
 7482TIP3    H143937   2.700   0.109  12.563  0.9314  1.0765 -0.0147
 7482TIP3    H243938   2.578   0.157  12.487  0.1914  0.3005  0.6699
 7483TIP3   OH243939   1.262   5.592   1.187  0.1191  0.3577 -0.2026
 7483TIP3    H143940   1.274   5.509   1.233  2.2921  0.6629 -0.1812
 7483TIP3    H243941   1.201   5.642   1.242  0.2215 -0.5118  0.7051
 7484TIP3   OH243942   0.752   0.810  15.872  0.3356  0.4819  0.2873
 7484TIP3    H143943   0.718   0.890  15.831 -0.0215  0.8804  1.3554
 7484TIP3    H243944   0.793   0.762  15.800 -1.5967  0.4682 -0.8423
 7485TIP3   OH243945   2.724   1.791  15.776 -0.8547  0.6708  0.3406
 7485TIP3    H143946   2.720   1.812  15.683 -1.0339  1.3448  0.4977
 7485TIP3    H243947   2.810   1.824  15.804 -0.8309  0.5354  0.4256
 7486TIP3   OH243948   6.133   4.961  12.346 -0.0362 -0.1852  0.4177
 7486TIP3    H143949   6.058   5.001  12.302 -0.0126 -0.4805  0.1103
 7486TIP3    H243950   6.131   4.869  12.319  0.7011 -0.0977  0.0514
 7487TIP3   OH243951   4.872   5.739   4.310  0.1762  0.2286  0.0686
 7487TIP3    H143952   4.856   5.753   4.216 -0.4600 -1.0298 -0.0176
 7487TIP3    H243953   4.793   5.695   4.342  0.9492 -0.5732  0.9027
 7488TIP3   OH243954   5.810   6.248  15.216  0.1576  1.0144  0.2263
 7488TIP3    H143955   5.789   6.203  15.134  0.6516  1.0928  0.0524
 7488TIP3    H243956   5.760   6.201  15.283  0.4900  0.3521  0.0122
 7489TIP3   OH243957   2.574   4.409  14.684 -0.1242  0.3294  0.0093
 7489TIP3    H143958   2.662   4.441  14.664 -0.2027  0.7947  0.3691
 7489TIP3    H243959   2.587   4.347  14.756  0.0981 -0.9391 -1.1173
 7490TIP3   OH243960   4.890   2.823  14.609 -0.2544  1.0859  0.8639
 7490TIP3    H143961   4.871   2.740  14.566 -3.0218  0.9134  2.3198
 7490TIP3    H243962   4.973   2.852  14.570 -0.5651 -1.0655 -1.5106
 7491TIP3   OH243963   1.906   1.199  15.731  0.5040  0.3937  0.0251
 7491TIP3    H143964   1.820   1.164  15.709  0.0754  1.3262  0.1930
 7491TIP3    H243965   1.904   1.209  15.826  0.6527  0.7903 -0.0122
 7492TIP3   OH243966   2.992   5.131   5.340  0.7207 -0.0857  0.4090
 7492TIP3    H143967   2.949   5.193   5.281 -0.3395 -0.5523  0.6810
 7492TIP3    H243968   2.996   5.177   5.424  0.6664 -0.0795  0.4083
 7493TIP3   OH243969   1.088   0.896  14.934 -0.1750 -0.6961 -0.4945
 7493TIP3    H143970   1.161   0.873  14.877 -0.2613 -1.1510 -0.4143
 7493TIP3    H243971   1.068   0.987  14.911  0.8383 -0.3569 -0.0561
 7494TIP3   OH243972   2.283   4.204  10.611  0.0620  0.5557 -0.3538
 7494TIP3    H143973   2.246   4.259  10.542  0.5697  0.6903 -0.5291
 7494TIP3    H243974   2.371   4.183  10.578  0.3102  0.6359  0.2578
 7495TIP3   OH243975   5.732   5.037  16.129  0.6139  0.7341 -0.5273
 7495TIP3    H143976   5.752   5.058  16.038  2.1126 -1.9164 -0.8395
 7495TIP3    H243977   5.643   5.002  16.127  0.5427  0.9395 -0.9301
 7496TIP3   OH243978   6.579   3.914  10.411 -0.7237  0.3827  0.0630
 7496TIP3    H143979   6.661   3.873  10.438  0.2395  1.3730 -1.2768
 7496TIP3    H243980   6.520   3.841  10.393  0.9863 -0.4741 -2.3594
 7497TIP3   OH243981   4.774   0.942  11.759  0.5039 -0.3871 -0.0506
 7497TIP3    H143982   4.736   0.910  11.841  1.0693  1.0303  0.7761
 7497TIP3    H243983   4.859   0.977  11.784  1.5729 -1.8234 -1.5851
 7498TIP3   OH243984   2.448   4.894   2.691  0.0157 -0.5932 -0.3595
 7498TIP3    H143985   2.449   4.976   2.641 -1.3559 -0.8063 -0.7606
 7498TIP3    H243986   2.368   4.849   2.662  0.5875 -1.9298  0.0872
 7499TIP3   OH243987   0.491   5.313   0.137 -0.0074  0.1638 -0.0569
 7499TIP3    H143988   0.434   5.277   0.205  1.6043 -1.6264  0.3855
 7499TIP3    H243989   0.506   5.240   0.077 -1.4401  1.7349 -2.4049
 7500TIP3   OH243990   3.954   1.058  17.183 -0.2328 -0.2367  0.0267
 7500TIP3    H143991   4.007   1.016  17.251 -2.1691 -0.4080  1.4452
 7500TIP3    H243992   3.959   1.152  17.204 -1.8149 -0.3873  1.1473
 7501TIP3   OH243993   1.630   0.575   3.212 -0.0251  0.1275  0.3307
 7501TIP3    H143994   1.692   0.633   3.168 -1.5043  0.6946 -1.0450
 7501TIP3    H243995   1.544   0.612   3.192 -0.9892 -2.4652 -0.4487
 7502TIP3   OH243996   6.681   5.887  12.160  0.0469  0.0162  0.5996
 7502TIP3    H143997   6.757   5.904  12.104  0.5054  0.0992  1.2524
 7502TIP3    H243998   6.683   5.792  12.174  0.0244  0.0180  0.6121
 7503TIP3   OH243999   4.173   0.285   1.173  0.3769  0.5610  0.2175
 7503TIP3    H144000   4.180   0.220   1.242 -0.8968 -0.1860 -0.3268
 7503TIP3    H244001   4.263   0.299   1.143  0.7404 -0.3489  0.8775
 7504TIP3   OH244002   0.129   3.504  16.664 -0.1912  0.2253  0.1342
 7504TIP3    H144003   0.215   3.510  16.624 -1.2003  0.5938 -2.0320
 7504TIP3    H244004   0.089   3.589  16.648 -0.8749  0.1536  1.3622
 7505TIP3   OH244005   1.668   2.323  13.917  0.1403 -1.0458 -0.0257
 7505TIP3    H144006   1.712   2.406  13.934 -1.3937 -0.5980  1.9171
 7505TIP3    H244007   1.589   2.347  13.868 -0.1561 -1.3844  0.2809
 7506TIP3   OH244008   2.391   1.625   3.671 -0.0005  0.1224 -0.4256
 7506TIP3    H144009   2.471   1.583   3.705  0.2707  0.5800 -0.4935
 7506TIP3    H244010   2.356   1.674   3.746  2.0545  3.3316 -1.4606
 7507TIP3   OH244011   2.843   1.457  11.460  0.4449 -0.5517 -0.2461
 7507TIP3    H144012   2.768   1.450  11.400 -0.5719  1.5389  0.7368
 7507TIP3    H244013   2.819   1.400  11.534 -0.1764  0.1057  0.0621
 7508TIP3   OH244014   1.364   1.253  14.401 -0.1669  0.4137 -0.2039
 7508TIP3    H144015   1.388   1.182  14.341  1.5273 -1.3278  2.4090
 7508TIP3    H244016   1.429   1.321  14.386 -0.5017  0.5096 -1.2231
 7509TIP3   OH244017   1.086   2.484   1.158 -0.0828 -0.3563  0.2393
 7509TIP3    H144018   1.130   2.432   1.226 -1.1271 -1.1235  0.3485
 7509TIP3    H244019   1.002   2.439   1.144 -0.0177 -0.0189 -1.3319
 7510TIP3   OH244020   6.760   5.868   0.861 -0.1372  0.8457  0.1182
 7510TIP3    H144021   6.688   5.869   0.797 -0.1033  2.1187  0.0805
 7510TIP3    H244022   6.790   5.959   0.864  0.9530  0.4680  0.7264
 7511TIP3   OH244023   1.883   3.310   2.495  0.3811  0.0997  0.7055
 7511TIP3    H144024   1.809   3.269   2.541  0.5760  1.0091  1.8552
 7511TIP3    H244025   1.874   3.403   2.515  0.3561  0.5522 -1.2888
 7512TIP3   OH244026   4.932   5.605  16.908  0.1526  0.2561 -0.7616
 7512TIP3    H144027   5.001   5.666  16.883 -1.7058  2.0597 -1.6055
 7512TIP3    H244028   4.866   5.659  16.951 -1.1388 -1.2754 -0.7626
 7513TIP3   OH244029   0.246   0.259   5.641  0.3336 -0.4586  0.1621
 7513TIP3    H144030   0.248   0.325   5.710 -0.1251  0.3597 -0.5793
 7513TIP3    H244031   0.284   0.181   5.680 -1.1430 -0.4143  1.7529
 7514TIP3   OH244032   6.252   0.875  16.478 -0.1557 -0.2427  0.1663
 7514TIP3    H144033   6.158   0.875  16.462 -0.1820 -1.2599  0.2740
 7514TIP3    H244034   6.288   0.818  16.411  0.1768 -1.2848  1.2103
 7515TIP3   OH244035   0.583   3.102  14.554  0.2172  0.2699  0.4904
 7515TIP3    H144036   0.492   3.113  14.525  0.6516 -0.2619 -1.1506
 7515TIP3    H244037   0.578   3.105  14.649 -1.8601 -2.0405  0.5168
 7516TIP3   OH244038   0.008   1.383   2.339  0.1447  0.6320  0.7394
 7516TIP3    H144039  -0.056   1.453   2.340  0.1546  0.6644 -0.3731
 7516TIP3    H244040   0.057   1.393   2.421 -0.3034  1.4980  0.8975
 7517TIP3   OH244041   2.128   4.739  12.079 -0.3490  0.2615  0.2602
 7517TIP3    H144042   2.200   4.803  12.074 -0.0575 -0.2069 -1.6884
 7517TIP3    H244043   2.134   4.690  11.998 -0.0024 -2.8986  2.1161
 7518TIP3   OH244044   5.443   0.164   3.995 -0.1324 -0.1705  0.5113
 7518TIP3    H144045   5.354   0.195   4.009 -0.2414 -0.3281  0.1437
 7518TIP3    H244046   5.495   0.244   3.987 -0.4409 -0.0858 -0.6038
 7519TIP3   OH244047   0.158   3.116  17.220  0.4787 -0.4598  0.8339
 7519TIP3    H144048   0.152   3.131  17.126  0.4509  1.1079  1.0831
 7519TIP3    H244049   0.250   3.128  17.241  0.1901  1.0465  1.3049
 7520TIP3   OH244050   6.687   1.173  11.947  0.1353 -0.4394  0.4981
 7520TIP3    H144051   6.611   1.124  11.978 -0.2174 -0.5202 -0.4670
 7520TIP3    H244052   6.763   1.122  11.975 -0.1586 -0.2792  1.5965
 7521TIP3   OH244053   4.460   5.808   3.128  0.4454  0.0486  0.4621
 7521TIP3    H144054   4.467   5.762   3.045  0.4314 -0.0671  0.5240
 7521TIP3    H244055   4.387   5.765   3.173 -0.1424  0.7123  0.1567
 7522TIP3   OH244056   5.067   6.616   1.754 -0.2165  0.2453 -0.2446
 7522TIP3    H144057   5.088   6.543   1.696  0.5244  1.9941 -2.2423
 7522TIP3    H244058   5.086   6.694   1.702 -0.7107  1.8703  1.9467
 7523TIP3   OH244059   0.432   4.298  13.868 -0.0944 -0.0239 -0.2240
 7523TIP3    H144060   0.384   4.367  13.822  0.7408  1.6522  1.3603
 7523TIP3    H244061   0.522   4.305  13.835  0.1165  0.0105  0.3544
 7524TIP3   OH244062   1.649   1.962   2.179 -0.4908  0.4479 -0.1225
 7524TIP3    H144063   1.695   1.991   2.258 -0.3823  1.5518 -0.5782
 7524TIP3    H244064   1.563   2.004   2.184 -0.9855 -0.5877  0.0924
 7525TIP3   OH244065   2.758   6.478  15.810 -0.2052  0.2064  0.0404
 7525TIP3    H144066   2.776   6.430  15.729  0.3542  1.5094 -0.6152
 7525TIP3    H244067   2.669   6.451  15.834 -0.5726  0.1794 -1.2893
 7526TIP3   OH244068   0.883   3.732  12.008  0.0010 -0.1064 -0.2415
 7526TIP3    H144069   0.941   3.662  12.037 -0.1966 -1.2817 -2.6093
 7526TIP3    H244070   0.923   3.765  11.928 -0.7291  1.4749  0.0205
 7527TIP3   OH244071   5.405   2.753  13.770 -0.2184  0.2312  0.4188
 7527TIP3    H144072   5.381   2.664  13.742 -1.5144  0.9159 -0.6624
 7527TIP3    H244073   5.476   2.739  13.832  0.0464 -1.5415 -0.2383
 7528TIP3   OH244074   2.287   3.549  17.116  0.0916  0.1681 -0.3336
 7528TIP3    H144075   2.360   3.521  17.170  0.6336 -0.3168 -1.3154
 7528TIP3    H244076   2.218   3.571  17.179  0.6924 -0.4411  0.5487
 7529TIP3   OH244077   1.587   4.537   0.836 -0.5075 -0.6716 -0.1418
 7529TIP3    H144078   1.621   4.578   0.915 -1.7059  0.1880 -0.0514
 7529TIP3    H244079   1.611   4.445   0.844 -0.9809 -0.6669  1.4214
 7530TIP3   OH244080   3.036   2.410  13.094  0.1738 -0.4803  0.0194
 7530TIP3    H144081   3.021   2.490  13.145 -2.2026 -1.5513  1.1126
 7530TIP3    H244082   3.035   2.439  13.003  1.1197  0.9943  0.4680
 7531TIP3   OH244083   2.501   1.843   5.510 -0.8008  0.3220 -0.0686
 7531TIP3    H144084   2.559   1.913   5.537  0.0540 -0.5732  0.4422
 7531TIP3    H244085   2.413   1.879   5.520 -0.3520  1.4821 -0.2902
 7532TIP3   OH244086   2.053   1.673   1.689 -0.0095  0.1789 -0.2787
 7532TIP3    H144087   1.981   1.719   1.733  1.5337  2.6180 -0.2625
 7532TIP3    H244088   2.116   1.656   1.758  0.2578 -0.3337 -0.6462
 7533TIP3   OH244089   2.208   1.824  15.659  0.1241 -0.0694 -0.2741
 7533TIP3    H144090   2.248   1.816  15.746 -1.3708 -0.6995  0.3641
 7533TIP3    H244091   2.211   1.917  15.639  1.2567 -0.0222  0.0655
 7534TIP3   OH244092   3.790   1.563   5.552 -0.0858 -0.3746 -0.3370
 7534TIP3    H144093   3.767   1.655   5.548 -0.0983 -0.3561  0.0727
 7534TIP3    H244094   3.728   1.519   5.494 -0.4533 -0.1938 -0.0830
 7535TIP3   OH244095   2.032   5.682  17.270 -0.2383 -0.7471 -0.0642
 7535TIP3    H144096   1.944   5.647  17.282 -0.9102  0.1579 -2.0280
 7535TIP3    H244097   2.018   5.772  17.242  1.3324 -0.4121  0.2002
 7536TIP3   OH244098   4.864   0.694  13.992 -0.2196  0.2238  0.2247
 7536TIP3    H144099   4.880   0.645  13.912  0.5714 -1.8489  1.5896
 7536TIP3    H244100   4.771   0.682  14.010 -0.0722 -0.6725  0.4455
 7537TIP3   OH244101   1.599   5.134  13.260 -0.3198 -0.3743  0.2683
 7537TIP3    H144102   1.504   5.145  13.256 -0.3099 -0.4659 -0.2392
 7537TIP3    H244103   1.628   5.199  13.325 -0.6208  0.3692 -0.3286
 7538TIP3   OH244104   1.124   2.957  14.766 -0.0094  1.0402  0.1519
 7538TIP3    H144105   1.139   2.895  14.695 -0.7845  0.8624  0.1387
 7538TIP3    H244106   1.193   2.938  14.829  0.8228  1.3535 -0.6519
 7539TIP3   OH244107   4.090   4.865   1.527 -0.2749 -0.1299 -0.7756
 7539TIP3    H144108   4.069   4.875   1.434 -1.1470  2.3230 -0.3457
 7539TIP3    H244109   4.008   4.834   1.566 -0.3480  0.2828 -0.5982
 7540TIP3   OH244110   2.670   3.655  12.142  0.4714 -0.5351  0.0792
 7540TIP3    H144111   2.726   3.660  12.064 -0.5777  2.1610 -0.5258
 7540TIP3    H244112   2.723   3.694  12.212 -0.1787  0.8392 -0.2037
 7541TIP3   OH244113   1.591   3.262   4.025  1.1185 -0.1069  0.3416
 7541TIP3    H144114   1.545   3.189   3.983  1.5207 -1.6157  2.5078
 7541TIP3    H244115   1.522   3.328   4.038  0.1702 -1.1940  0.9126
 7542TIP3   OH244116   5.507   3.879   3.119 -0.1818 -0.5828  0.1681
 7542TIP3    H144117   5.423   3.925   3.121 -0.2209 -0.5647 -1.3004
 7542TIP3    H244118   5.490   3.801   3.066  1.1810  0.3529 -1.6880
 7543TIP3   OH244119   5.725   0.122  11.687  0.1504 -0.1448  0.2290
 7543TIP3    H144120   5.781   0.051  11.720 -1.1740  0.7409  4.5925
 7543TIP3    H244121   5.636   0.094  11.707 -0.9010 -0.0619 -3.7917
 7544TIP3   OH244122   1.818   0.929   5.044 -0.1599  0.3591 -0.0230
 7544TIP3    H144123   1.902   0.891   5.070  0.8769  0.6269 -2.7830
 7544TIP3    H244124   1.766   0.855   5.014  0.9678  0.7129 -3.0596
 7545TIP3   OH244125   3.858   1.271  15.820  0.0593  0.1215  0.0213
 7545TIP3    H144126   3.897   1.268  15.907 -0.5702  1.5240  0.3700
 7545TIP3    H244127   3.766   1.248  15.833  0.3235 -1.3070 -0.5237
 7546TIP3   OH244128   5.211   2.716   5.058 -0.2716  0.1371 -0.0807
 7546TIP3    H144129   5.122   2.748   5.075  0.0040  1.4964 -1.1929
 7546TIP3    H244130   5.267   2.793   5.067  0.5840 -0.3419 -1.2564
 7547TIP3   OH244131   0.647   6.030  14.920 -0.2569 -0.3276  0.3353
 7547TIP3    H144132   0.613   6.117  14.941  2.5115  1.1732 -1.2346
 7547TIP3    H244133   0.590   5.998  14.850 -0.3269  0.8612 -0.1514
 7548TIP3   OH244134   4.168   1.873  12.667 -0.0836  0.2801  0.0311
 7548TIP3    H144135   4.213   1.929  12.731 -0.2607 -0.1273  0.5132
 7548TIP3    H244136   4.161   1.788  12.710  0.4993 -0.2207 -0.8401
 7549TIP3   OH244137   3.999   0.569   1.751  0.6279 -0.3888  0.6637
 7549TIP3    H144138   4.069   0.504   1.741  0.7238 -0.0070 -1.2494
 7549TIP3    H244139   4.044   0.653   1.759  0.4343 -0.3294  1.1895
 7550TIP3   OH244140   2.780   6.501   4.077 -0.1998  0.2758  0.0449
 7550TIP3    H144141   2.752   6.517   3.987 -0.1942 -0.6867 -0.1262
 7550TIP3    H244142   2.807   6.410   4.078 -0.2430  0.2721  1.0419
 7551TIP3   OH244143   0.693   0.903   4.037 -0.1233 -0.3865 -0.0331
 7551TIP3    H144144   0.687   0.924   4.130  0.9843 -2.3834  0.5262
 7551TIP3    H244145   0.743   0.975   3.999 -1.0330  0.7146  0.7946
 7552TIP3   OH244146   2.904   1.599   0.333  0.0362 -0.6163  0.2274
 7552TIP3    H144147   2.814   1.624   0.356 -0.0281 -1.8121  1.3355
 7552TIP3    H244148   2.894   1.517   0.285  0.6038 -1.3832  1.3936
 7553TIP3   OH244149   0.920   3.754  13.076  0.3053 -0.7227 -0.2198
 7553TIP3    H144150   0.904   3.672  13.122 -0.4307 -0.4038  0.0984
 7553TIP3    H244151   0.836   3.777  13.037 -0.4386  1.6689  2.6049
 7554TIP3   OH244152   6.022   4.062  17.098 -0.2159  0.6453  0.0666
 7554TIP3    H144153   6.105   4.029  17.062 -0.3936  1.2561 -0.9171
 7554TIP3    H244154   5.963   3.987  17.093  0.0967  0.3924  0.1627
 7555TIP3   OH244155   4.326   4.066  16.547 -0.2903 -0.2033  0.1872
 7555TIP3    H144156   4.373   4.097  16.624 -0.2986 -0.8985  0.4783
 7555TIP3    H244157   4.369   3.983  16.525  0.6683  0.6989 -1.4396
 7556TIP3   OH244158   5.598   5.287   2.091 -0.0488  0.4095 -0.5030
 7556TIP3    H144159   5.625   5.327   2.008 -0.2113 -0.3056 -0.9027
 7556TIP3    H244160   5.666   5.313   2.153  0.2816  0.6258 -0.9493
 7557TIP3   OH244161   5.293   2.575  16.582 -0.3838  0.3370  0.0353
 7557TIP3    H144162   5.317   2.647  16.525 -1.7715 -0.2451 -1.3208
 7557TIP3    H244163   5.375   2.548  16.624  1.0654 -0.7040 -3.3519
 7558TIP3   OH244164   5.131   1.600   3.294  0.4784  0.0562  0.1167
 7558TIP3    H144165   5.120   1.694   3.276 -0.4890  0.1257  1.0255
 7558TIP3    H244166   5.204   1.574   3.238  0.8122  1.3726 -0.0911
 7559TIP3   OH244167   0.936   0.139   3.363  0.4409 -0.2358 -0.5437
 7559TIP3    H144168   0.983   0.087   3.428  0.4457 -0.7972 -0.9971
 7559TIP3    H244169   0.879   0.196   3.415 -0.5837 -1.6540 -0.0738
 7560TIP3   OH244170   5.964   1.989   0.943 -0.6558  0.0111 -0.0254
 7560TIP3    H144171   5.908   2.058   0.907 -1.0548 -0.0583  0.4623
 7560TIP3    H244172   6.020   2.035   1.005  1.1330  0.4156 -1.8771
 7561TIP3   OH244173   3.249   2.855  16.879  0.6118  0.6121  0.2567
 7561TIP3    H144174   3.242   2.932  16.936 -0.6141  0.7308 -0.0432
 7561TIP3    H244175   3.159   2.833  16.857  0.9173 -1.2603  0.7714
 7562TIP3   OH244176   5.799   0.111  12.020  0.0396  0.0414 -0.4515
 7562TIP3    H144177   5.749   0.157  11.952 -0.2830 -1.5726 -1.3494
 7562TIP3    H244178   5.813   0.176  12.088  0.6831  1.8045 -2.2327
 7563TIP3   OH244179   2.983   4.708   5.023 -0.6136 -0.8233 -0.1338
 7563TIP3    H144180   2.948   4.641   5.080 -1.9963  0.8305  0.9928
 7563TIP3    H244181   3.054   4.749   5.074 -1.0871 -0.1131 -0.0384
 7564TIP3   OH244182   1.078   3.578  14.006  0.3248  0.5175  0.5064
 7564TIP3    H144183   0.984   3.596  14.016 -0.4483 -2.1880 -1.2253
 7564TIP3    H244184   1.104   3.626  13.928  0.3941  1.2486  0.9727
 7565TIP3   OH244185   0.375   1.339  11.591  0.0290  0.3861 -0.4049
 7565TIP3    H144186   0.311   1.331  11.661 -2.0363  0.5360 -2.2085
 7565TIP3    H244187   0.358   1.264  11.534  1.2083  0.6381 -1.1248
 7566TIP3   OH244188   0.416   4.488  11.478 -0.2612 -0.3097 -0.1326
 7566TIP3    H144189   0.359   4.465  11.551  1.1997  1.9056  1.7920
 7566TIP3    H244190   0.385   4.574  11.450 -0.5181 -0.9527 -1.8447
 7567TIP3   OH244191   2.899   3.800   4.914  0.1082 -0.2010 -0.8005
 7567TIP3    H144192   2.828   3.812   4.850 -0.6633 -1.0326 -0.1187
 7567TIP3    H244193   2.869   3.728   4.969  1.8516 -1.0508 -0.9629
 7568TIP3   OH244194   4.819   5.899   2.816 -0.5999 -0.5380 -0.0035
 7568TIP3    H144195   4.914   5.900   2.810 -0.6591 -1.5783 -1.3782
 7568TIP3    H244196   4.792   5.980   2.773 -0.4158 -1.3493 -1.6865
 7569TIP3   OH244197   0.350   4.414   3.649  0.0279 -0.1740  1.2207
 7569TIP3    H144198   0.424   4.379   3.699  0.8153  0.1448  0.2805
 7569TIP3    H244199   0.280   4.350   3.663  0.2075 -0.0510  2.7902
 7570TIP3   OH244200   5.189   2.113  11.617  0.2112  0.0367 -0.3680
 7570TIP3    H144201   5.171   2.199  11.654 -0.5827  0.0350 -0.7443
 7570TIP3    H244202   5.183   2.053  11.691 -2.8748 -0.1671 -0.7271
 7571TIP3   OH244203   2.720   0.062   5.882 -0.3196 -0.7855  0.1962
 7571TIP3    H144204   2.729   0.153   5.908 -0.7704 -0.7493  0.2339
 7571TIP3    H244205   2.803   0.040   5.840 -0.3075 -0.2857 -0.0395
 7572TIP3   OH244206   6.656   2.309   0.909 -0.2437 -0.1870  0.0398
 7572TIP3    H144207   6.597   2.357   0.967 -1.6893 -1.3681 -0.4081
 7572TIP3    H244208   6.661   2.221   0.947  0.4905 -0.3614 -0.4425
 7573TIP3   OH244209   2.973   6.770   5.112  0.0280 -0.8829 -0.4241
 7573TIP3    H144210   2.974   6.847   5.054  1.5922 -1.4048 -1.1285
 7573TIP3    H244211   2.990   6.805   5.199  0.2995 -0.3703 -0.6813
 7574TIP3   OH244212   2.945   0.445   2.801  0.2175  0.3153 -0.2675
 7574TIP3    H144213   2.908   0.443   2.889  0.1734 -0.6726 -0.3025
 7574TIP3    H244214   2.920   0.361   2.763  0.8609  0.4375 -0.9698
 7575TIP3   OH244215   2.346   4.343  14.971  0.6044  0.7803 -0.3600
 7575TIP3    H144216   2.255   4.316  14.960  0.8241 -0.4020  0.6127
 7575TIP3    H244217   2.397   4.268  14.941  1.2383  0.9282  0.3347
 7576TIP3   OH244218   2.278   1.140   1.499 -0.1612  0.6384  0.2635
 7576TIP3    H144219   2.335   1.069   1.527 -0.3615  0.0649 -0.7666
 7576TIP3    H244220   2.209   1.097   1.449  0.3569  1.6804 -1.3705
 7577TIP3   OH244221   5.875   4.520   3.868 -0.4008 -0.2879 -0.0701
 7577TIP3    H144222   5.781   4.534   3.854 -0.1360  0.3447 -1.3325
 7577TIP3    H244223   5.909   4.607   3.887 -0.3011 -0.7435  1.9257
 7578TIP3   OH244224   1.982   6.079  14.431  0.0977 -0.5595 -0.1577
 7578TIP3    H144225   1.985   6.060  14.525 -2.1407  0.4106  0.1309
 7578TIP3    H244226   1.911   6.025  14.397  1.2629 -1.3275 -1.4077
 7579TIP3   OH244227   0.485   3.454   5.852 -0.1928 -0.5045  0.8985
 7579TIP3    H144228   0.529   3.442   5.767  1.6232  0.4312  1.6856
 7579TIP3    H244229   0.392   3.458   5.830  0.2957  0.3135 -1.1263
 7580TIP3   OH244230   2.232   6.417  16.746  0.0180 -0.4636 -0.0671
 7580TIP3    H144231   2.201   6.428  16.656  1.2314  0.8470 -0.3371
 7580TIP3    H244232   2.251   6.323  16.754 -1.2961 -0.8048 -0.7631
 7581TIP3   OH244233   3.053   4.886   5.453  0.0073  0.3938  0.1718
 7581TIP3    H144234   3.134   4.936   5.449 -0.3625  1.0634  1.1052
 7581TIP3    H244235   2.985   4.947   5.424 -0.1867 -0.1292 -0.4991
 7582TIP3   OH244236   1.850   2.590   1.158  0.1990  0.5246  0.0148
 7582TIP3    H144237   1.874   2.670   1.205  0.8413  0.2408  0.1818
 7582TIP3    H244238   1.926   2.532   1.170 -1.0111 -0.7852  1.4528
 7583TIP3   OH244239   6.647   2.142  16.278  0.9930 -0.1133  0.0678
 7583TIP3    H144240   6.723   2.118  16.224  0.7435  1.3165 -0.9677
 7583TIP3    H244241   6.642   2.238  16.269 -1.0164 -0.2179 -0.0003
 7584TIP3   OH244242   1.776   6.811  15.175 -0.3802 -0.6964  0.1402
 7584TIP3    H144243   1.806   6.900  15.158 -3.0546  0.1885 -0.2705
 7584TIP3    H244244   1.855   6.762  15.196  1.3082  1.4303 -1.1042
 7585TIP3   OH244245   3.340   5.059   0.061  0.3624  0.5171 -0.5676
 7585TIP3    H144246   3.390   5.005   0.001  0.1952  1.8947 -1.9829
 7585TIP3    H244247   3.249   5.041   0.040  0.3042  1.5433 -1.2651
 7586TIP3   OH244248   5.803   6.310   1.547 -0.3158  0.1548  0.1595
 7586TIP3    H144249   5.865   6.354   1.489 -0.2136  0.8218  0.7569
 7586TIP3    H244250   5.829   6.339   1.635 -1.0454 -0.1053  0.4626
 7587TIP3   OH244251   4.762   3.675   0.202  0.4639 -0.0935 -0.4435
 7587TIP3    H144252   4.674   3.680   0.239  1.2740 -2.2388  1.8765
 7587TIP3    H244253   4.794   3.765   0.203 -1.2051  0.5099 -0.1233
 7588TIP3   OH244254   6.632   4.273   1.501  0.1010 -0.2870  0.3836
 7588TIP3    H144255   6.646   4.212   1.574 -0.1694 -1.8990 -0.8900
 7588TIP3    H244256   6.537   4.280   1.494  0.1230  1.3224  1.3459
 7589TIP3   OH244257   2.347   4.816  11.262 -0.0889 -0.4629  0.0712
 7589TIP3    H144258   2.260   4.856  11.260 -0.0412 -0.3855 -1.2839
 7589TIP3    H244259   2.332   4.726  11.230  0.7290  0.4158 -2.9250
 7590TIP3   OH244260   2.445   3.702  15.228  0.2966  0.5479 -0.0660
 7590TIP3    H144261   2.407   3.622  15.192  0.4504  0.3146  0.2879
 7590TIP3    H244262   2.442   3.690  15.323  0.7000  0.7813 -0.0190
 7591TIP3   OH244263   1.962   2.801  13.606  0.0537 -0.5713  0.3066
 7591TIP3    H144264   2.050   2.776  13.576  0.8769 -0.2437  2.4112
 7591TIP3    H244265   1.950   2.890  13.573  0.8517 -0.2961  0.7549
 7592TIP3   OH244266   6.279   3.942  11.728 -0.5498 -0.4183  0.0097
 7592TIP3    H144267   6.250   3.909  11.814 -1.5807  0.2725 -0.0672
 7592TIP3    H244268   6.238   4.028  11.720  2.7487  1.2667  0.5308
 7593TIP3   OH244269   3.839   1.274   0.623  0.2518 -0.1555  1.2976
 7593TIP3    H144270   3.879   1.269   0.709 -0.4052 -0.8501  1.5715
 7593TIP3    H244271   3.909   1.305   0.565  0.9054 -0.4187  1.9399
 7594TIP3   OH244272   0.753   1.490  11.002  0.5102 -0.3641  0.0855
 7594TIP3    H144273   0.716   1.578  11.008  2.0236  0.3327 -0.4222
 7594TIP3    H244274   0.763   1.461  11.092 -0.4369 -0.2146  0.2450
 7595TIP3   OH244275   4.083   5.125   6.182 -0.1988 -0.4222  0.1854
 7595TIP3    H144276   4.100   5.051   6.241 -0.3025 -0.7474 -0.1960
 7595TIP3    H244277   3.999   5.159   6.210 -0.7318 -1.2148 -0.4388
 7596TIP3   OH244278   6.220   5.847   4.906  0.4933 -0.6347  0.1722
 7596TIP3    H144279   6.302   5.897   4.910  0.0197  0.0552  1.7440
 7596TIP3    H244280   6.223   5.790   4.983 -0.7467 -0.2407  0.5144
 7597TIP3   OH244281   5.901   4.044   5.450 -0.5253  0.0914 -0.0349
 7597TIP3    H144282   5.970   4.108   5.468  0.5662 -1.3171  0.8550
 7597TIP3    H244283   5.892   4.045   5.354 -0.0676  1.0941 -0.0770
 7598TIP3   OH244284   4.036   4.077   0.978 -0.0329  0.2600  0.5375
 7598TIP3    H144285   4.010   4.097   0.888  1.0862  0.8407  0.3357
 7598TIP3    H244286   4.074   4.158   1.011 -0.8672  0.2043  1.7133
 7599TIP3   OH244287   3.779   1.602  14.448  0.1651 -0.3960  0.5524
 7599TIP3    H144288   3.831   1.654  14.387  1.6779 -0.2039  1.9745
 7599TIP3    H244289   3.743   1.532  14.394  1.5337 -0.2792 -0.5598
 7600TIP3   OH244290   5.556   3.029   4.660  0.2445 -0.2510 -0.0300
 7600TIP3    H144291   5.546   3.119   4.690 -0.4971 -0.9909  2.1324
 7600TIP3    H244292   5.468   2.991   4.669  0.4869 -1.1101 -1.1654
 7601TIP3   OH244293   3.607   6.018  16.634 -0.1589  0.0599 -0.5106
 7601TIP3    H144294   3.583   6.053  16.548  2.7277  1.0201 -0.9694
 7601TIP3    H244295   3.621   6.096  16.688  0.5237 -0.4996  0.1236
 7602TIP3   OH244296   5.163   6.412   1.588 -0.4644 -0.0205  0.4059
 7602TIP3    H144297   5.222   6.484   1.566 -0.4425 -0.3099 -0.5152
 7602TIP3    H244298   5.183   6.345   1.522  0.0176 -1.1351  1.6777
 7603TIP3   OH244299   3.523   2.792   5.774  0.0562 -0.3393 -0.6123
 7603TIP3    H144300   3.537   2.852   5.847 -0.6649 -0.9735  0.0688
 7603TIP3    H244301   3.497   2.848   5.701  0.7740  0.3039 -0.3821
 7604TIP3   OH244302   1.441   0.269  14.122 -0.3083 -0.1706 -0.1413
 7604TIP3    H144303   1.448   0.357  14.086 -1.7642  0.2311  0.4846
 7604TIP3    H244304   1.452   0.211  14.046 -1.1623  0.6060 -0.8848
 7605TIP3   OH244305   1.953   0.087   5.083 -0.2688 -0.2682 -0.0382
 7605TIP3    H144306   1.977   0.081   4.991 -1.9153 -0.6348 -0.4547
 7605TIP3    H244307   1.921  -0.001   5.105  1.3720 -0.5730  1.2550
 7606TIP3   OH244308   4.035   0.835   2.534 -0.2551 -0.0164 -0.3227
 7606TIP3    H144309   4.058   0.831   2.626  0.2952  2.5830 -0.3056
 7606TIP3    H244310   3.941   0.849   2.533 -0.2880 -0.2265 -0.1630
 7607TIP3   OH244311   1.563   6.590   5.659 -0.0164 -0.3325 -0.0596
 7607TIP3    H144312   1.497   6.631   5.715 -0.5503 -0.8736 -0.2839
 7607TIP3    H244313   1.637   6.575   5.717  0.1296  0.7963  0.0644
 7608TIP3   OH244314   5.589   1.061  16.533 -0.1796 -0.4681 -0.0968
 7608TIP3    H144315   5.553   1.098  16.453  1.5286  0.3083 -0.5157
 7608TIP3    H244316   5.650   1.127  16.566 -0.1747 -1.1640  1.3510
 7609TIP3   OH244317   4.134   4.290  16.807  0.0253 -0.4171  0.2247
 7609TIP3    H144318   4.185   4.213  16.780  1.2932 -0.1593  1.8205
 7609TIP3    H244319   4.126   4.282  16.902  1.4101  2.1208  0.6182
 7610TIP3   OH244320   3.319   4.503  14.908  0.3506  0.3058  0.0210
 7610TIP3    H144321   3.355   4.493  14.820 -0.1751  0.5269 -0.2205
 7610TIP3    H244322   3.257   4.431  14.917 -1.1564  1.4891 -0.5813
 7611TIP3   OH244323   0.738   4.450   5.224  0.5148 -0.0150 -0.0173
 7611TIP3    H144324   0.740   4.358   5.248  0.0732  0.3623  1.5237
 7611TIP3    H244325   0.711   4.451   5.132 -2.3149 -1.2861  0.7443
 7612TIP3   OH244326   6.007   1.880  14.467 -0.7414  0.1468 -0.3452
 7612TIP3    H144327   6.022   1.886  14.373 -1.0522  1.1995 -0.3343
 7612TIP3    H244328   6.092   1.900  14.506 -1.4101  3.1954 -0.3469
 7613TIP3   OH244329   6.566   6.482  14.086 -0.0063 -0.5325  0.0914
 7613TIP3    H144330   6.571   6.520  13.998  0.9835  0.8026  0.6878
 7613TIP3    H244331   6.519   6.400  14.075  1.2743 -1.0268 -1.8988
 7614TIP3   OH244332   0.956   3.958  15.524  0.1478  0.0496 -0.0712
 7614TIP3    H144333   1.006   3.996  15.596  0.6219  2.0111 -1.4089
 7614TIP3    H244334   0.949   3.865  15.547  1.7478  0.3179  1.6609
 7615TIP3   OH244335   6.650   0.523   1.823  0.6427  0.0167  0.1230
 7615TIP3    H144336   6.620   0.432   1.829  2.5113 -0.6171  0.5297
 7615TIP3    H244337   6.680   0.533   1.733  1.3571 -0.1022  0.3377
 7616TIP3   OH244338   0.517   2.690  15.459 -0.0017 -0.3637 -0.6685
 7616TIP3    H144339   0.598   2.727  15.495 -1.1810  2.9005 -1.2190
 7616TIP3    H244340   0.495   2.618  15.518  0.8426  1.6426  2.1454
 7617TIP3   OH244341   0.653   3.249  13.764 -0.0341  0.2887  0.1966
 7617TIP3    H144342   0.571   3.239  13.813 -1.5074 -0.1460 -2.2642
 7617TIP3    H244343   0.700   3.167  13.779 -1.6131 -0.8938 -1.1255
 7618TIP3   OH244344   6.028   3.258  13.481  0.4623 -0.0684 -0.7640
 7618TIP3    H144345   6.007   3.312  13.557  0.3642  0.7047 -1.3232
 7618TIP3    H244346   5.955   3.197  13.474  0.1495  0.2865 -0.6156
 7619TIP3   OH244347   2.509   5.919   0.350 -0.1406  0.0564  0.0063
 7619TIP3    H144348   2.480   5.839   0.392 -0.0185 -0.1503 -0.3020
 7619TIP3    H244349   2.477   5.913   0.260  0.3450  0.0950 -0.1725
 7620TIP3   OH244350   6.274   0.061   1.643 -0.0537 -0.0831  0.2734
 7620TIP3    H144351   6.210   0.009   1.690  0.7062 -0.4471  0.9214
 7620TIP3    H244352   6.322  -0.003   1.590 -0.0491  0.1461  0.0038
 7621TIP3   OH244353   0.119   3.756  11.950 -0.4495  0.2352  0.1518
 7621TIP3    H144354   0.171   3.758  11.870 -1.5829  0.0105 -0.6068
 7621TIP3    H244355   0.139   3.838  11.994 -0.2575  0.6259 -0.6542
 7622TIP3   OH244356   4.170   1.941  11.978 -0.0788 -0.0448 -0.2255
 7622TIP3    H144357   4.168   1.852  11.943  2.1575 -0.2684  0.1531
 7622TIP3    H244358   4.147   1.932  12.070 -2.0417  0.0662 -0.6791
 7623TIP3   OH244359   5.423   1.577  14.931 -0.3246  0.0629  0.0315
 7623TIP3    H144360   5.364   1.596  15.004 -0.4173  0.4493 -0.1377
 7623TIP3    H244361   5.438   1.663  14.890  1.4189  0.1801  0.8698
 7624TIP3   OH244362   2.516   3.083  12.617  0.3648 -0.4471  0.2093
 7624TIP3    H144363   2.567   3.002  12.617  0.5790 -0.3323 -1.0432
 7624TIP3    H244364   2.581   3.152  12.602 -0.0400 -0.2169 -0.5139
 7625TIP3   OH244365   3.202   6.327  16.964 -0.4755  0.2066 -0.3516
 7625TIP3    H144366   3.219   6.252  16.907  1.7772 -0.3245  0.9472
 7625TIP3    H244367   3.245   6.400  16.921  1.7849 -0.3243  0.9296
 7626TIP3   OH244368   2.487   1.497  15.223 -0.0452  0.1205 -1.0377
 7626TIP3    H144369   2.567   1.445  15.217 -0.6759 -1.4868  3.1960
 7626TIP3    H244370   2.516   1.584  15.251  0.1368 -1.1130  2.8982
 7627TIP3   OH244371   1.026   1.976  11.538 -0.0687 -0.1443 -0.7765
 7627TIP3    H144372   1.054   1.953  11.627 -0.8887  0.8972 -0.2412
 7627TIP3    H244373   1.018   2.071  11.539  0.6226 -0.0624 -2.1819
 7628TIP3   OH244374   1.794   1.017  12.578 -0.3249  0.1866 -0.1046
 7628TIP3    H144375   1.805   0.988  12.487  0.2836 -0.5221  0.1842
 7628TIP3    H244376   1.880   1.004  12.617 -0.6932  0.0916  0.6829
 7629TIP3   OH244377   4.158   2.709   4.421 -0.1785 -0.1870  0.1712
 7629TIP3    H144378   4.150   2.726   4.515 -2.1438 -1.0928  0.1857
 7629TIP3    H244379   4.073   2.675   4.395  0.2832  0.2270 -1.9940
 7630TIP3   OH244380   1.905   4.486   2.925 -0.3511  0.1136 -0.2189
 7630TIP3    H144381   1.887   4.565   2.874 -1.4537 -0.3612 -0.5603
 7630TIP3    H244382   1.949   4.427   2.864  3.4478  1.6395  0.8603
 7631TIP3   OH244383   5.618   1.741  11.545 -0.2415  0.2959 -0.3621
 7631TIP3    H144384   5.548   1.796  11.581 -0.1850  0.7781 -0.9857
 7631TIP3    H244385   5.593   1.726  11.454 -0.3624 -0.8991 -0.1321
 7632TIP3   OH244386   3.834   5.595   3.320 -0.1349 -0.5957 -0.2806
 7632TIP3    H144387   3.919   5.610   3.362 -0.2758 -0.2954 -0.1054
 7632TIP3    H244388   3.822   5.671   3.264 -1.6566  0.8329  1.9189
 7633TIP3   OH244389   6.299   0.375  12.459 -0.4181 -0.8200  0.0327
 7633TIP3    H144390   6.284   0.281  12.453 -2.0334 -0.6446  0.9456
 7633TIP3    H244391   6.263   0.399  12.544  0.1903  0.5983 -0.0947
 7634TIP3   OH244392   4.941   0.296  12.498 -0.2378  0.1624  0.4102
 7634TIP3    H144393   4.895   0.217  12.527  1.2909 -1.5727 -1.7224
 7634TIP3    H244394   5.018   0.302  12.556  1.2165 -1.6149 -1.2748
 7635TIP3   OH244395   2.589   4.805  15.803 -0.3225  0.0128 -0.1528
 7635TIP3    H144396   2.520   4.791  15.868 -0.7664  0.7995 -0.4438
 7635TIP3    H244397   2.574   4.894  15.771  0.6757  0.1020 -0.4006
 7636TIP3   OH244398   4.651   3.385   0.093 -0.2259  0.2092 -0.1806
 7636TIP3    H144399   4.596   3.351   0.163 -1.2416 -0.2096 -1.1501
 7636TIP3    H244400   4.595   3.449   0.047 -0.6914 -1.7417 -2.4575
 7637TIP3   OH244401   6.125   3.033   0.536  0.2246 -0.1380  0.0101
 7637TIP3    H144402   6.195   2.968   0.540  0.5035  0.2934  3.6257
 7637TIP3    H244403   6.052   2.994   0.584  0.0859  1.8026  1.4739
 7638TIP3   OH244404   5.303   5.157  14.322 -0.4933  0.4322 -0.2180
 7638TIP3    H144405   5.251   5.197  14.391 -0.1905  0.9483 -0.2912
 7638TIP3    H244406   5.392   5.153  14.357 -0.2864  0.9396 -0.6801
 7639TIP3   OH244407   5.540   5.240  14.464 -0.5175 -0.1386  0.4989
 7639TIP3    H144408   5.593   5.180  14.516 -0.5676 -0.4532  0.1921
 7639TIP3    H244409   5.498   5.298  14.528  2.1877  1.7643  0.6186
 7640TIP3   OH244410   2.933   2.781  11.545 -0.8036 -0.0732  0.2159
 7640TIP3    H144411   2.894   2.698  11.570 -1.2546 -0.1804 -0.7931
 7640TIP3    H244412   2.929   2.781  11.449  0.5457  0.4649  0.1520
 7641TIP3   OH244413   2.586   4.939   0.676 -0.1432  1.2247  0.5671
 7641TIP3    H144414   2.638   4.971   0.750 -0.5715  0.8140  1.0531
 7641TIP3    H244415   2.588   4.844   0.685 -1.3365  1.2217  0.8399
 7642TIP3   OH244416   5.663   6.068  15.049 -0.5926 -0.5703 -0.4175
 7642TIP3    H144417   5.623   6.036  15.130  0.3975 -0.9764 -0.0730
 7642TIP3    H244418   5.738   6.010  15.035  1.0983  1.4272  0.0805
 7643TIP3   OH244419   5.200   4.582  11.166 -0.1897 -0.2526  0.3048
 7643TIP3    H144420   5.216   4.600  11.259 -0.7114  0.7717  0.2105
 7643TIP3    H244421   5.156   4.497  11.164 -0.1406 -0.2950  0.9941
 7644TIP3   OH244422   1.681   2.569   0.907 -0.7535  0.8603  0.1927
 7644TIP3    H144423   1.657   2.652   0.947 -1.7606 -0.1874  1.8434
 7644TIP3    H244424   1.748   2.533   0.965 -0.9899  0.0922 -0.0085
 7645TIP3   OH244425   3.804   1.432  15.239  0.6842  0.0270  0.5872
 7645TIP3    H144426   3.827   1.409  15.329  0.4200  0.1441  0.6816
 7645TIP3    H244427   3.728   1.489  15.246  0.6901  0.0749  0.2925
 7646TIP3   OH244428   4.257   3.551   5.432  0.3917  0.5763 -0.2685
 7646TIP3    H144429   4.210   3.478   5.392  0.7945  0.1638  0.0084
 7646TIP3    H244430   4.209   3.629   5.403 -2.0074  0.0378  2.0143
 7647TIP3   OH244431   1.409   4.041  14.768  0.2112 -0.6572  0.6549
 7647TIP3    H144432   1.364   4.013  14.847 -0.0363 -1.8591  0.1007
 7647TIP3    H244433   1.339   4.055  14.704  0.3558  0.9778  0.8435
 7648TIP3   OH244434   3.201   2.026   0.799 -0.6707  0.0534 -0.3605
 7648TIP3    H144435   3.273   1.969   0.826 -0.5520 -1.1285 -3.0424
 7648TIP3    H244436   3.127   1.998   0.854  0.3990 -0.0182  1.0664
 7649TIP3   OH244437   3.690   1.093  12.901 -0.2506  1.1207  0.0869
 7649TIP3    H144438   3.656   1.131  12.821 -0.6102 -0.7387 -0.6748
 7649TIP3    H244439   3.616   1.095  12.962 -0.1892  1.8598  0.1424
 7650TIP3   OH244440   4.155   1.333   4.347 -0.2252 -0.1246  0.0802
 7650TIP3    H144441   4.184   1.259   4.293 -2.5484 -1.3415  0.4695
 7650TIP3    H244442   4.104   1.293   4.417 -2.1185  1.8786 -0.1151
 7651TIP3   OH244443   6.273   0.007  11.792  0.0840 -0.1477 -0.8074
 7651TIP3    H144444   6.287  -0.019  11.701 -1.5971 -0.1121 -1.0906
 7651TIP3    H244445   6.208  -0.055  11.825  0.1708  0.2690  0.1696
 7652TIP3   OH244446   1.801   0.113   2.638  0.1526  0.4168 -0.4256
 7652TIP3    H144447   1.826   0.034   2.590  0.4924  0.1839  0.1337
 7652TIP3    H244448   1.715   0.091   2.676 -0.2501  0.7042 -1.1567
 7653TIP3   OH244449   2.804   1.660   4.030  0.2360  0.1877 -0.7285
 7653TIP3    H144450   2.780   1.678   4.121 -0.0263 -0.5466 -0.6526
 7653TIP3    H244451   2.799   1.745   3.987 -0.5003  0.3921 -0.2524
 7654TIP3   OH244452   5.837   3.620  10.657  0.0427 -0.4459 -0.1380
 7654TIP3    H144453   5.880   3.565  10.591 -1.0711 -0.8533 -0.5387
 7654TIP3    H244454   5.896   3.616  10.733  0.1396 -1.9522 -0.2691
 7655TIP3   OH244455   3.782   5.333  13.547  0.4802 -0.0614  0.1750
 7655TIP3    H144456   3.765   5.262  13.485  0.1050  0.9107 -0.8431
 7655TIP3    H244457   3.878   5.338  13.552  0.5102 -1.5831  1.3555
 7656TIP3   OH244458   0.515   2.170   1.712 -0.1291 -0.0112  0.2696
 7656TIP3    H144459   0.521   2.106   1.642  1.6239  0.0327  0.3699
 7656TIP3    H244460   0.568   2.244   1.683 -0.8723  0.7657  0.8428
 7657TIP3   OH244461   2.513   3.415   4.462 -0.2011 -0.5062 -0.4004
 7657TIP3    H144462   2.495   3.329   4.424  0.5351 -0.5359 -0.6927
 7657TIP3    H244463   2.479   3.477   4.397  1.6872 -0.5463 -1.4568
 7658TIP3   OH244464   2.467   4.410   3.499  0.1701 -0.6821 -0.4847
 7658TIP3    H144465   2.472   4.504   3.517 -2.5313 -0.4069 -0.9011
 7658TIP3    H244466   2.449   4.404   3.405  1.2493 -1.6567 -0.6397
 7659TIP3   OH244467   0.255   6.278   4.237 -0.1575 -0.4654  0.0895
 7659TIP3    H144468   0.306   6.198   4.247  1.6228  0.5847 -0.4620
 7659TIP3    H244469   0.308   6.334   4.180 -1.0881  1.3462  0.9478
 7660TIP3   OH244470   3.609   3.052   2.758 -0.2218 -0.4262  0.5882
 7660TIP3    H144471   3.572   3.105   2.829 -0.9290  0.3578 -0.3425
 7660TIP3    H244472   3.539   2.991   2.735  0.3456 -1.3048  1.1948
 7661TIP3   OH244473   1.138   2.651   0.231  0.6437  0.4866  0.2589
 7661TIP3    H144474   1.072   2.643   0.162  0.6020 -0.0857  0.3595
 7661TIP3    H244475   1.089   2.681   0.308  0.4584 -0.1267  0.3867
 7662TIP3   OH244476   2.255   2.961  12.631 -0.5751  0.0308 -0.0907
 7662TIP3    H144477   2.323   3.020  12.599 -0.1393 -0.6024 -0.3515
 7662TIP3    H244478   2.282   2.940  12.721 -0.4412 -0.1869 -0.1793
 7663TIP3   OH244479   4.576   0.119  11.869  0.4434  0.1272 -0.1303
 7663TIP3    H144480   4.597   0.213  11.873  0.0807  0.1946  0.2040
 7663TIP3    H244481   4.483   0.117  11.846 -0.4175 -0.0880  3.0903
 7664TIP3   OH244482   4.519   1.543  15.393  0.5218 -0.0963  0.0908
 7664TIP3    H144483   4.613   1.528  15.399  0.7663  1.5045  0.6208
 7664TIP3    H244484   4.510   1.638  15.402 -1.2305 -0.3504  1.2531
 7665TIP3   OH244485   1.844   3.641   6.364 -0.3185 -0.0587  0.4784
 7665TIP3    H144486   1.939   3.628   6.357 -0.2741  0.4197  0.1952
 7665TIP3    H244487   1.833   3.683   6.449 -0.3725 -1.0211  0.9569
 7666TIP3   OH244488   4.640   0.466   5.354 -0.4005 -0.3409  0.5696
 7666TIP3    H144489   4.677   0.452   5.267  0.8317  0.7450  0.9113
 7666TIP3    H244490   4.698   0.419   5.413  0.4429  1.3317  1.1063
 7667TIP3   OH244491   6.496   1.383  16.358 -0.0932 -0.3635 -0.4371
 7667TIP3    H144492   6.552   1.305  16.356 -0.4787 -0.6125 -1.4755
 7667TIP3    H244493   6.552   1.453  16.325  0.4639 -0.0438  1.1124
 7668TIP3   OH244494   6.094   2.767   3.303 -0.1404 -0.1943 -0.9764
 7668TIP3    H144495   6.036   2.840   3.283  1.5107  1.1644 -0.8705
 7668TIP3    H244496   6.182   2.803   3.294  0.6814 -1.4297  1.7825
 7669TIP3   OH244497   6.502   4.620  14.210  0.2239 -0.2308 -0.6764
 7669TIP3    H144498   6.512   4.681  14.284  1.0107  0.4194 -1.2975
 7669TIP3    H244499   6.416   4.580  14.223 -0.0273  0.5372  0.1023
 7670TIP3   OH244500   2.632   6.173   6.050  0.9095 -0.3514  0.1764
 7670TIP3    H144501   2.674   6.128   6.123 -0.5065 -0.4497  0.9526
 7670TIP3    H244502   2.557   6.118   6.029  0.7306  0.2211 -0.6824
 7671TIP3   OH244503   3.481   4.657  13.200  0.4706  0.0949  0.2918
 7671TIP3    H144504   3.569   4.693  13.204  0.5037 -0.1803  2.7308
 7671TIP3    H244505   3.429   4.725  13.157  1.2947  1.4932  1.4702
 7672TIP3   OH244506   1.152   3.403  11.543  0.4798  0.3708  0.2239
 7672TIP3    H144507   1.209   3.463  11.496 -0.0648  1.0105  0.3707
 7672TIP3    H244508   1.088   3.460  11.587 -0.9758 -0.3802 -0.8534
 7673TIP3   OH244509   2.042   0.355   1.446  0.4414 -0.2205  0.3068
 7673TIP3    H144510   2.038   0.270   1.400  1.0330  0.5576 -1.2344
 7673TIP3    H244511   1.974   0.349   1.513  0.6170 -1.9994  0.3552
 7674TIP3   OH244512   5.020   0.650  16.188  0.1216 -0.7439  0.3196
 7674TIP3    H144513   5.010   0.684  16.099 -1.7019 -2.3370 -0.1200
 7674TIP3    H244514   5.104   0.687  16.219 -0.0493  1.1913 -1.4060
 7675TIP3   OH244515   3.068   5.999  15.936  0.8439  0.4731 -0.0672
 7675TIP3    H144516   3.026   5.934  15.880  1.2432  0.6630 -0.5918
 7675TIP3    H244517   3.029   6.082  15.912  1.4471  0.6366 -0.4884
 7676TIP3   OH244518   6.466   0.221  13.153  0.2200  0.1398 -0.0024
 7676TIP3    H144519   6.399   0.172  13.104  0.9051 -1.3405  0.5103
 7676TIP3    H244520   6.540   0.227  13.093 -0.4056  1.8840 -0.6115
 7677TIP3   OH244521   3.683   3.432   3.280 -0.0199 -0.3476 -0.2555
 7677TIP3    H144522   3.699   3.339   3.264  0.0775 -0.5123  0.7803
 7677TIP3    H244523   3.760   3.476   3.245  0.1523 -0.6949 -0.3113
 7678TIP3   OH244524   2.609   4.938  15.115  0.5114 -0.1540 -0.3605
 7678TIP3    H144525   2.566   5.015  15.078  0.1157 -0.7711 -1.1961
 7678TIP3    H244526   2.582   4.866  15.059 -0.3357 -1.1671  1.3093
 7679TIP3   OH244527   1.264   6.334  15.207 -0.3242  0.6465  0.4411
 7679TIP3    H144528   1.311   6.255  15.181 -0.1902  0.7559  0.3482
 7679TIP3    H244529   1.332   6.395  15.236 -0.4121  0.7794  0.3743
 7680TIP3   OH244530   2.483   4.942  14.383  0.3631  0.0029  0.3108
 7680TIP3    H144531   2.399   4.963  14.342  0.4904  1.3806  0.7132
 7680TIP3    H244532   2.461   4.908  14.469  0.1667 -1.1041 -0.1696
 7681TIP3   OH244533   0.796   5.904  13.709  0.0773  0.1396  0.6606
 7681TIP3    H144534   0.824   5.930  13.797 -0.9219  0.9160  0.7682
 7681TIP3    H244535   0.702   5.887  13.719 -0.0455  0.2678 -0.2707
 7682TIP3   OH244536   5.688   2.608   5.715 -0.5121 -0.4712 -0.4487
 7682TIP3    H144537   5.628   2.679   5.691  0.2935  0.2374 -0.3609
 7682TIP3    H244538   5.758   2.651   5.764  1.4983 -0.8789 -2.9023
 7683TIP3   OH244539   3.239   2.129  14.830  0.1355 -0.0072  0.0019
 7683TIP3    H144540   3.215   2.221  14.827 -0.9511 -0.2636  0.3603
 7683TIP3    H244541   3.330   2.128  14.860 -0.1617  0.8980  0.9565
 7684TIP3   OH244542   4.635   2.037  15.337 -0.3794 -0.1981  0.1130
 7684TIP3    H144543   4.714   2.038  15.390 -1.8685 -0.9382  2.4325
 7684TIP3    H244544   4.566   2.069  15.396 -2.0395 -0.7661 -1.4617
 7685TIP3   OH244545   6.214   6.513   0.541 -0.2669  0.3399  0.2026
 7685TIP3    H144546   6.212   6.597   0.586 -0.3226  0.2650  0.3374
 7685TIP3    H244547   6.194   6.535   0.449  0.2863  0.5472  0.1295
 7686TIP3   OH244548   4.231   1.816   2.902  0.1686  0.1692 -0.2786
 7686TIP3    H144549   4.152   1.832   2.852  0.8453  1.8241 -0.8707
 7686TIP3    H244550   4.241   1.721   2.903 -2.5813 -0.1280  1.0344
 7687TIP3   OH244551   5.618   6.478  12.857 -0.3038 -0.1287 -0.2134
 7687TIP3    H144552   5.597   6.442  12.771  1.9559 -2.9423  0.3546
 7687TIP3    H244553   5.555   6.437  12.917  1.5229 -2.3607  0.2497
 7688TIP3   OH244554   3.870   5.760  11.097 -0.2138  0.0240 -0.0179
 7688TIP3    H144555   3.796   5.717  11.140  0.4028 -1.1649 -0.1085
 7688TIP3    H244556   3.900   5.825  11.161 -0.2257 -0.7124  0.7503
 7689TIP3   OH244557   2.800   3.946   0.961 -0.1216  0.0258  0.0003
 7689TIP3    H144558   2.715   3.989   0.964 -0.1554  0.2303 -2.5220
 7689TIP3    H244559   2.785   3.859   0.995 -1.0063  0.5726  1.0295
 7690TIP3   OH244560   6.807   6.166  16.809 -0.4114 -0.2109  0.1347
 7690TIP3    H144561   6.849   6.183  16.724 -1.7797  1.1184 -0.2876
 7690TIP3    H244562   6.734   6.107  16.788 -2.1162  1.8976  0.0356
 7691TIP3   OH244563   2.614   1.399   1.773 -0.2165  0.5253  0.2355
 7691TIP3    H144564   2.679   1.417   1.705 -1.6767 -2.1934 -1.9778
 7691TIP3    H244565   2.612   1.303   1.780 -2.6088  0.6359  1.6049
 7692TIP3   OH244566   6.741   1.533  13.398  0.1717 -0.5523 -0.4013
 7692TIP3    H144567   6.750   1.442  13.426 -0.9003 -0.1458  1.3070
 7692TIP3    H244568   6.758   1.585  13.477 -0.1965  0.7065 -1.1222
 7693TIP3   OH244569   5.911   3.518  12.805  0.4747  0.5967  0.6799
 7693TIP3    H144570   5.909   3.430  12.843  0.0459  1.0337  1.6941
 7693TIP3    H244571   5.921   3.504  12.711  1.0101 -0.5242  0.8958
 7694TIP3   OH244572   5.689   2.932  16.119 -0.7868 -0.7638 -0.1928
 7694TIP3    H144573   5.749   3.006  16.126  1.0883 -2.1393 -1.2023
 7694TIP3    H244574   5.603   2.972  16.106  0.2586  1.2228 -1.1849
 7695TIP3   OH244575   2.384   6.113   6.096 -0.3945  0.3516 -0.4537
 7695TIP3    H144576   2.358   6.194   6.140 -1.3428  0.2767 -0.8722
 7695TIP3    H244577   2.321   6.048   6.126  0.8745 -0.4508  0.5515
 7696TIP3   OH244578   5.254   0.820  13.647  0.0355  0.6371 -0.0694
 7696TIP3    H144579   5.317   0.831  13.718 -1.9151  3.6390  1.3439
 7696TIP3    H244580   5.242   0.725  13.639  0.1680  0.2233  3.7984
 7697TIP3   OH244581   0.143   4.387  11.299  0.2072 -0.3499 -0.0613
 7697TIP3    H144582   0.209   4.376  11.231  0.2515 -2.2953  0.2812
 7697TIP3    H244583   0.179   4.455  11.356  0.3875  0.9511 -1.6867
 7698TIP3   OH244584   0.484   0.301   2.264 -0.0581 -0.1980 -0.5197
 7698TIP3    H144585   0.392   0.287   2.241 -0.6078  2.5926 -0.2742
 7698TIP3    H244586   0.527   0.318   2.180 -0.0984  0.1314 -0.4745
 7699TIP3   OH244587   4.047   4.145  16.057  0.4608 -0.0825 -0.1402
 7699TIP3    H144588   4.070   4.055  16.079 -1.2648 -0.3095  0.8486
 7699TIP3    H244589   4.084   4.197  16.127 -0.0985 -0.2203  0.2629
 7700TIP3   OH244590   1.939   2.033  12.402 -0.2501  0.3100 -0.3403
 7700TIP3    H144591   2.017   1.990  12.368 -0.7617 -0.3637 -0.6724
 7700TIP3    H244592   1.895   1.965  12.454 -0.8262  0.5562 -0.4998
 7701TIP3   OH244593   2.988   3.166  15.415  0.4960 -0.5214  0.0835
 7701TIP3    H144594   2.957   3.194  15.328 -0.2873  1.7921  1.0706
 7701TIP3    H244595   3.061   3.225  15.435  0.8083 -1.1806  0.9142
 7702TIP3   OH244596   3.640   1.968   3.623 -0.0126  0.1059  0.1768
 7702TIP3    H144597   3.589   2.028   3.568  0.6362 -0.2678 -0.8597
 7702TIP3    H244598   3.703   1.928   3.562  1.4656  0.5014  1.4034
 7703TIP3   OH244599   0.595   5.023  14.793  0.2695  0.4550  0.6504
 7703TIP3    H144600   0.641   4.969  14.858 -0.5062 -0.4406  0.4658
 7703TIP3    H244601   0.643   5.106  14.793  1.8136 -0.4058  0.5733
 7704TIP3   OH244602   2.752   3.887   1.388 -0.3320 -0.2558  0.2544
 7704TIP3    H144603   2.668   3.841   1.385 -0.5423  0.1431  0.0328
 7704TIP3    H244604   2.812   3.829   1.342 -0.3490 -0.8170  0.9125
 7705TIP3   OH244605   5.776   0.130   3.438  0.6581  0.1395 -0.2944
 7705TIP3    H144606   5.813   0.216   3.459 -1.5427  1.1697 -0.5519
 7705TIP3    H244607   5.684   0.148   3.418 -0.1850 -2.4758  1.1026
 7706TIP3   OH244608   5.403   1.223   0.662  0.0032  0.7966  0.4604
 7706TIP3    H144609   5.310   1.235   0.676 -0.0965 -0.1454  0.6560
 7706TIP3    H244610   5.424   1.277   0.586 -1.3019 -1.2980 -1.4384
 7707TIP3   OH244611   6.514   1.879  15.953  0.0230 -1.0900  0.0694
 7707TIP3    H144612   6.455   1.857  15.882 -1.3519 -0.5330  1.0116
 7707TIP3    H244613   6.515   1.801  16.009 -0.1922 -0.9269  0.3014
 7708TIP3   OH244614   3.639   5.881  16.882  0.5756 -0.0501  0.1019
 7708TIP3    H144615   3.621   5.912  16.793 -0.0063 -0.5877  0.0241
 7708TIP3    H244616   3.669   5.791  16.870  1.7353  0.2852  0.3629
 7709TIP3   OH244617   4.261   0.563   6.053 -0.7189 -0.0472 -0.3137
 7709TIP3    H144618   4.259   0.494   6.119 -0.5310 -0.4646 -0.7450
 7709TIP3    H244619   4.279   0.643   6.103  2.4219 -0.7775 -0.1931
 7710TIP3   OH244620   5.521   3.095   1.361 -0.0322 -0.4452  0.0266
 7710TIP3    H144621   5.448   3.033   1.368  0.4821 -0.9493  1.0241
 7710TIP3    H244622   5.523   3.119   1.269  0.1492 -2.4178 -0.5138
 7711TIP3   OH244623   5.626   1.458  11.620 -0.8237  0.1373 -0.3426
 7711TIP3    H144624   5.571   1.445  11.543 -0.4225  1.2177 -0.8218
 7711TIP3    H244625   5.611   1.550  11.645 -1.8526 -0.5172  1.5702
 7712TIP3   OH244626   6.138   0.441  11.943  0.2068  0.0148 -0.4682
 7712TIP3    H144627   6.175   0.529  11.952  2.8220 -0.9806 -0.9663
 7712TIP3    H244628   6.080   0.432  12.019  2.5057  0.9703  1.4786
 7713TIP3   OH244629   6.332   4.359  13.994 -0.1451 -0.0592  0.1286
 7713TIP3    H144630   6.333   4.400  14.081  0.3968 -0.9822  0.5567
 7713TIP3    H244631   6.418   4.377  13.957  0.1455 -0.9249  0.3743
 7714TIP3   OH244632   5.192   2.926  13.699 -0.0491 -0.0881 -0.0588
 7714TIP3    H144633   5.268   2.868  13.706 -1.3198 -1.5657  1.6823
 7714TIP3    H244634   5.123   2.871  13.662  0.0527  1.5898 -2.8688
 7715TIP3   OH244635   4.092   0.757  16.030  0.1322 -0.0290  0.6593
 7715TIP3    H144636   4.054   0.691  16.087 -1.6685 -0.0300 -0.5107
 7715TIP3    H244637   4.103   0.713  15.946  0.7413  0.5990  0.3990
 7716TIP3   OH244638   3.361   3.564   2.225 -0.0355  0.0423 -0.5170
 7716TIP3    H144639   3.425   3.527   2.286 -1.1136  0.1452  0.7225
 7716TIP3    H244640   3.306   3.619   2.281 -1.5245 -0.4692 -1.4723
 7717TIP3   OH244641   1.331   0.744   1.026 -0.1157 -0.5125 -0.2719
 7717TIP3    H144642   1.348   0.755   1.120 -0.0168  0.3845 -0.3907
 7717TIP3    H244643   1.237   0.724   1.022  0.0558 -1.4038  0.0787
 7718TIP3   OH244644   2.278   2.916  14.834  0.0196  0.1635  0.1050
 7718TIP3    H144645   2.210   2.849  14.841 -1.1624  1.3883  0.6405
 7718TIP3    H244646   2.352   2.872  14.793  0.0697 -2.0430  2.4802
 7719TIP3   OH244647   4.545   3.434  11.980  0.1169  0.1893 -0.5279
 7719TIP3    H144648   4.532   3.504  12.044 -0.8994  0.5642 -1.1333
 7719TIP3    H244649   4.549   3.479  11.896 -0.5409 -0.4763 -0.9214
 7720TIP3   OH244650   6.356   2.048  16.223 -0.1634  0.7386  0.2950
 7720TIP3    H144651   6.444   2.086  16.230  0.6167 -0.6731 -1.4192
 7720TIP3    H244652   6.363   1.987  16.149 -1.6184 -1.9857  2.3423
 7721TIP3   OH244653   5.886   3.702  13.395 -0.2431 -0.5059  0.4302
 7721TIP3    H144654   5.834   3.777  13.426 -0.0348 -1.2864  2.7961
 7721TIP3    H244655   5.969   3.711  13.441 -0.3288 -2.3522  0.9974
 7722TIP3   OH244656   2.318   2.604  13.754 -0.4234 -0.0364  0.3405
 7722TIP3    H144657   2.277   2.528  13.712 -0.5650  0.3702 -0.2479
 7722TIP3    H244658   2.402   2.571  13.786 -1.1952 -0.8821  1.5600
 7723TIP3   OH244659   0.620   0.461  14.803 -0.0913 -0.1372  0.2306
 7723TIP3    H144660   0.603   0.497  14.890 -0.9232  0.5245 -0.2007
 7723TIP3    H244661   0.664   0.378  14.820  1.2902  0.7833  1.2385
 7724TIP3   OH244662   2.410   2.099   5.365  0.7169 -0.4164  0.6916
 7724TIP3    H144663   2.460   2.137   5.438  1.4217 -1.3705  0.7047
 7724TIP3    H244664   2.368   2.175   5.324  2.9641  0.5274  0.0716
 7725TIP3   OH244665   1.588   1.270  12.147 -0.1949  0.1436 -0.8210
 7725TIP3    H144666   1.602   1.350  12.197  1.3009  0.7805 -2.2358
 7725TIP3    H244667   1.502   1.239  12.175  1.0810 -0.2092  3.0966
 7726TIP3   OH244668   1.541   3.275   4.530  0.1905  0.1983  0.3629
 7726TIP3    H144669   1.614   3.307   4.478  0.0188  0.4396  0.2680
 7726TIP3    H244670   1.520   3.190   4.492 -0.6767  0.8670 -0.7221
 7727TIP3   OH244671   4.467   5.277   0.161 -0.0833 -0.4846 -0.2066
 7727TIP3    H144672   4.420   5.349   0.119 -1.5821 -0.1759  1.9472
 7727TIP3    H244673   4.405   5.204   0.162  0.2648 -0.7778  0.6435
 7728TIP3   OH244674   6.327   6.420  13.605  0.2053  0.6312  0.3968
 7728TIP3    H144675   6.398   6.391  13.548 -0.0958 -0.6887  0.6801
 7728TIP3    H244676   6.350   6.510  13.628  0.8691  0.8107 -0.9509
 7729TIP3   OH244677   2.740   5.247  12.474 -0.0135 -0.4322  0.6787
 7729TIP3    H144678   2.825   5.205  12.492  0.0530  0.8939  3.8224
 7729TIP3    H244679   2.756   5.302  12.398  1.4926 -1.5118  0.1861
 7730TIP3   OH244680   0.259   3.708  12.876 -0.1666 -0.3362 -0.6174
 7730TIP3    H144681   0.193   3.731  12.811  0.1518  2.1178 -0.1155
 7730TIP3    H244682   0.339   3.695  12.827 -0.6968 -2.0645 -1.0827
 7731TIP3   OH244683   6.641   4.418  10.366 -0.4980 -0.6344  0.6414
 7731TIP3    H144684   6.560   4.453  10.329  0.1637 -0.1983 -0.4294
 7731TIP3    H244685   6.641   4.326  10.341 -1.6679 -1.1460  2.4470
 7732TIP3   OH244686   0.224   2.353  10.275 -0.5592  0.2542 -0.4052
 7732TIP3    H144687   0.171   2.396  10.208 -0.8175  2.5488  1.1827
 7732TIP3    H244688   0.275   2.424  10.314 -3.2671 -0.2297  4.4142
 7733TIP3   OH244689   1.634   1.135  16.777  0.2206  0.4946 -0.7038
 7733TIP3    H144690   1.727   1.127  16.796  0.4445  1.2206 -1.4713
 7733TIP3    H244691   1.603   1.044  16.770  0.8332  0.2537 -0.2915
 7734TIP3   OH244692   3.738   5.688  10.737 -0.1301 -0.0100 -0.2351
 7734TIP3    H144693   3.728   5.659  10.647 -1.3634 -1.7371  0.4337
 7734TIP3    H244694   3.732   5.783  10.732  0.4199 -0.0474 -2.0325
 7735TIP3   OH244695   6.337   5.318  12.694  0.2091  0.3262  0.1819
 7735TIP3    H144696   6.253   5.279  12.669  1.0914 -1.8832  0.5479
 7735TIP3    H244697   6.355   5.382  12.625 -0.9765 -0.3645 -0.8012
 7736TIP3   OH244698   0.291   2.308   5.759  0.3562 -0.5639 -0.0289
 7736TIP3    H144699   0.226   2.327   5.691  0.2744  0.8120  0.4246
 7736TIP3    H244700   0.277   2.216   5.779 -2.1692 -0.0469  0.7902
 7737TIP3   OH244701   4.204   2.604  15.329  0.0113  0.2587 -0.0669
 7737TIP3    H144702   4.282   2.655  15.348  0.6368 -1.3309  1.9027
 7737TIP3    H244703   4.135   2.645  15.381  0.1210  0.1742  0.1495
 7738TIP3   OH244704   5.874   4.747  17.023 -0.0269 -0.9743 -0.8003
 7738TIP3    H144705   5.909   4.835  17.009 -0.0479 -0.8082  0.1477
 7738TIP3    H244706   5.868   4.709  16.935 -1.7005  0.6067 -1.4006
 7739TIP3   OH244707   2.635   6.395  12.830  0.5431  0.1293 -0.9398
 7739TIP3    H144708   2.587   6.459  12.777 -1.2217  1.1705  1.8189
 7739TIP3    H244709   2.725   6.427  12.831 -0.3076  2.6276  0.3915
 7740TIP3   OH244710   5.358   1.444  13.104  0.3100 -0.0591  0.0989
 7740TIP3    H144711   5.276   1.443  13.054 -1.0982 -1.1162  2.3497
 7740TIP3    H244712   5.377   1.537  13.115 -0.7529  0.2052 -0.1870
 7741TIP3   OH244713   3.331   5.591   2.305  0.1277 -0.4492  0.3696
 7741TIP3    H144714   3.363   5.509   2.344 -0.6734 -0.2308  1.4985
 7741TIP3    H244715   3.378   5.597   2.221  0.0515 -2.1582  0.1762
 7742TIP3   OH244716   4.318   4.862  14.639  0.0844  0.0321 -0.2112
 7742TIP3    H144717   4.252   4.879  14.572 -0.1516  2.0515  0.5202
 7742TIP3    H244718   4.393   4.917  14.615 -0.7669  2.3883  2.2880
 7743TIP3   OH244719   0.209   1.663  15.185 -0.3846  0.3090 -0.1872
 7743TIP3    H144720   0.302   1.665  15.208 -0.0167  2.0046 -1.6905
 7743TIP3    H244721   0.205   1.617  15.101 -0.8053  0.9412 -0.5197
 7744TIP3   OH244722   0.550   4.571   5.442  0.1616 -0.4415 -0.7353
 7744TIP3    H144723   0.624   4.517   5.467  1.5082  2.7735  2.7423
 7744TIP3    H244724   0.525   4.540   5.355  4.4928 -2.7183 -1.2811
 7745TIP3   OH244725   2.706   0.326  13.539  0.1772  0.7799  0.0075
 7745TIP3    H144726   2.617   0.310  13.506 -0.0336  0.7451  0.5826
 7745TIP3    H244727   2.721   0.255  13.601  1.0879  0.0600 -1.0030
 7746TIP3   OH244728   1.296   3.424  13.682  0.5510  0.1206  0.1172
 7746TIP3    H144729   1.340   3.340  13.670  0.0637  0.0857 -1.5251
 7746TIP3    H244730   1.205   3.402  13.700  0.3897  0.2978 -0.4718
 7747TIP3   OH244731   2.062   6.271   3.610 -0.1023 -0.1025  0.7390
 7747TIP3    H144732   2.106   6.343   3.565  1.2620 -1.6549 -0.4675
 7747TIP3    H244733   2.068   6.294   3.703  3.1946 -0.2049  0.6165
 7748TIP3   OH244734   6.064   5.200   4.875 -0.2708 -0.1302  0.4665
 7748TIP3    H144735   6.061   5.243   4.960 -1.1706 -2.2586  1.5599
 7748TIP3    H244736   5.979   5.220   4.834  0.1009  0.7651  0.1314
 7749TIP3   OH244737   2.495   1.106  10.976  0.6409  0.7101  0.0947
 7749TIP3    H144738   2.477   1.103  11.070  1.2900  0.0888  0.2066
 7749TIP3    H244739   2.588   1.129  10.970  0.4218  1.4912 -0.4138
 7750TIP3   OH244740   3.703   0.704  16.284  0.1107 -0.6839 -0.0284
 7750TIP3    H144741   3.679   0.622  16.241  0.7184 -0.3007 -1.1340
 7750TIP3    H244742   3.647   0.708  16.361  0.1453 -2.1809  0.0877
 7751TIP3   OH244743   6.752   0.676  13.902 -0.4774 -0.0444 -0.6694
 7751TIP3    H144744   6.713   0.753  13.861 -0.4003  0.1837 -0.3110
 7751TIP3    H244745   6.684   0.609  13.895 -1.2008  0.5397  0.5459
 7752TIP3   OH244746   5.810   0.185  14.236 -0.1573 -0.0431 -0.1187
 7752TIP3    H144747   5.852   0.149  14.314 -0.0812  0.6188  0.1406
 7752TIP3    H244748   5.725   0.215  14.266 -0.0158  0.4740 -0.2335
 7753TIP3   OH244749   1.673   5.676  12.135  0.1161  0.1504  0.1131
 7753TIP3    H144750   1.633   5.731  12.068  0.2734 -3.0189 -2.7083
 7753TIP3    H244751   1.601   5.622  12.168  0.6413 -0.4784  0.2376
 7754TIP3   OH244752   2.500   4.990  11.885 -0.6688  0.2759 -0.1718
 7754TIP3    H144753   2.426   4.988  11.823 -0.7553  1.0496 -0.0987
 7754TIP3    H244754   2.537   5.078  11.875  1.3913 -0.7083 -1.5385
 7755TIP3   OH244755   2.730   3.657   3.654 -0.0061  0.1216  0.1318
 7755TIP3    H144756   2.677   3.663   3.734 -1.5678  1.2884 -0.9729
 7755TIP3    H244757   2.692   3.583   3.606  0.5659 -0.2116  0.1882
 7756TIP3   OH244758   0.543   6.454  10.359  0.3040  0.7028  0.0592
 7756TIP3    H144759   0.571   6.502  10.437  0.1386  2.5234 -0.9745
 7756TIP3    H244760   0.464   6.499  10.330 -1.0868 -1.5398  0.2799
 7757TIP3   OH244761   0.115   1.902  14.771 -0.4799 -0.0883  0.2824
 7757TIP3    H144762   0.199   1.916  14.816 -1.1010  0.0769  1.3890
 7757TIP3    H244763   0.073   1.832  14.820 -1.4013  0.4677  0.2874
 7758TIP3   OH244764   3.821   1.810   6.060 -0.1454 -0.0997  0.2501
 7758TIP3    H144765   3.874   1.828   6.137  1.4990 -0.4389 -0.7817
 7758TIP3    H244766   3.745   1.762   6.093 -1.4419  3.1595  2.1776
 7759TIP3   OH244767   2.104   2.812   3.931 -0.5089  0.5276  0.1025
 7759TIP3    H144768   2.115   2.851   4.018 -0.5833 -0.3172  0.4869
 7759TIP3    H244769   2.148   2.727   3.936 -1.1915  0.1392 -0.4452
 7760TIP3   OH244770   3.062   4.061   4.715  0.4930 -0.1170  0.0230
 7760TIP3    H144771   3.076   4.150   4.748  0.4941 -0.5551  1.2289
 7760TIP3    H244772   2.967   4.050   4.716  0.4823 -0.0546 -0.3254
 7761TIP3   OH244773   2.761   3.356  14.837 -1.0122  0.0743 -0.1948
 7761TIP3    H144774   2.733   3.383  14.924  0.3765 -0.4898  0.4510
 7761TIP3    H244775   2.704   3.404  14.777 -0.3648  2.3639  0.9730
 7762TIP3   OH244776   1.536   0.642  13.175  0.9886  0.2672  0.2269
 7762TIP3    H144777   1.621   0.668  13.140  0.6221  1.4649  0.2159
 7762TIP3    H244778   1.477   0.646  13.100  0.7878  0.0331  0.3718
 7763TIP3   OH244779   0.423   6.187  16.343  0.1214 -0.4426  0.2098
 7763TIP3    H144780   0.378   6.127  16.401  0.1345 -0.1841  0.4895
 7763TIP3    H244781   0.423   6.143  16.258 -0.7087 -0.4127  0.1957
 7764TIP3   OH244782   3.367   0.418   3.321  0.0850 -0.0276  0.1379
 7764TIP3    H144783   3.317   0.350   3.366 -2.3156  0.7265 -1.3047
 7764TIP3    H244784   3.439   0.371   3.280 -0.0167 -1.3024  1.3698
 7765TIP3   OH244785   1.077   1.022   6.258  0.4614 -0.1753  0.2136
 7765TIP3    H144786   1.019   1.027   6.334 -0.0931 -0.9005 -0.1659
 7765TIP3    H244787   1.139   0.952   6.280  0.6784  0.0281  0.2547
 7766TIP3   OH244788   0.509   6.125  12.098 -0.0164 -0.2027 -0.1369
 7766TIP3    H144789   0.593   6.164  12.121  0.7521 -1.1009 -1.3883
 7766TIP3    H244790   0.453   6.199  12.077 -0.4165  0.5944  3.3980
 7767TIP3   OH244791   5.405   1.658   3.639  0.7681 -0.0148  0.3031
 7767TIP3    H144792   5.440   1.689   3.722 -0.2268 -0.9008  1.0581
 7767TIP3    H244793   5.431   1.566   3.634 -0.0980 -0.2513  0.1387
 7768TIP3   OH244794   1.635   2.647   2.631 -0.1462 -0.4447 -1.2398
 7768TIP3    H144795   1.606   2.604   2.551 -0.4865  1.5607 -2.2389
 7768TIP3    H244796   1.726   2.673   2.613  0.3066 -1.3608 -0.3703
 7769TIP3   OH244797   2.937   3.654  11.944 -0.6512  0.2485  0.1462
 7769TIP3    H144798   2.982   3.577  11.909 -0.4156 -0.0737  1.1422
 7769TIP3    H244799   3.005   3.703  11.990 -0.8467  0.9432 -0.3062
 7770TIP3   OH244800   0.450   2.235  15.020  0.1057 -0.3647  0.6285
 7770TIP3    H144801   0.412   2.320  15.039 -0.7645 -0.0513 -2.2732
 7770TIP3    H244802   0.514   2.220  15.090 -1.4389  1.5688  2.4895
 7771TIP3   OH244803   0.813   6.005  12.579 -0.1759  0.7554  0.4268
 7771TIP3    H144804   0.833   6.079  12.636  0.1632  2.3029 -1.6447
 7771TIP3    H244805   0.897   5.960  12.567  0.2816  1.9511 -0.9391
 7772TIP3   OH244806   4.716   3.938  15.805 -0.3548 -0.7813  0.5237
 7772TIP3    H144807   4.635   3.972  15.768  0.9602  1.0999 -0.7507
 7772TIP3    H244808   4.758   4.014  15.845  0.8613 -1.6820  1.0062
 7773TIP3   OH244809   3.210   6.267   2.523  0.6835 -0.2487  0.1726
 7773TIP3    H144810   3.276   6.330   2.493  1.9087 -0.4876  2.2437
 7773TIP3    H244811   3.139   6.275   2.460  2.1550  0.9471 -1.3825
 7774TIP3   OH244812   5.772   2.484  15.530  0.1195 -0.1978  0.3703
 7774TIP3    H144813   5.763   2.539  15.608 -0.7673 -0.4083  0.4235
 7774TIP3    H244814   5.698   2.509  15.475 -2.0368 -3.4052  1.6818
 7775TIP3   OH244815   5.101   3.904  14.648 -0.0354 -0.0339  0.4830
 7775TIP3    H144816   5.138   3.842  14.710 -0.2395 -0.1053  0.5308
 7775TIP3    H244817   5.009   3.912  14.672 -0.0163  0.2705  0.4677
 7776TIP3   OH244818   3.446   3.791   6.122 -0.1446  0.2591 -0.3653
 7776TIP3    H144819   3.542   3.784   6.128 -0.2872 -0.2793  2.0219
 7776TIP3    H244820   3.430   3.879   6.090  1.1245  2.4351  4.5373
 7777TIP3   OH244821   3.499   4.774  15.591 -0.4864 -0.3813  0.3893
 7777TIP3    H144822   3.522   4.837  15.659  0.2738  1.4427 -1.4794
 7777TIP3    H244823   3.567   4.785  15.525 -1.7348 -1.4204 -1.1091
 7778TIP3   OH244824   3.177   4.650  11.839 -0.2932 -0.4626  0.1031
 7778TIP3    H144825   3.185   4.568  11.887  0.6773 -0.5101 -0.1300
 7778TIP3    H244826   3.151   4.714  11.905  1.3924 -0.4536  0.7819
 7779TIP3   OH244827   5.276   2.266   5.627  0.2220 -0.1476 -0.0046
 7779TIP3    H144828   5.319   2.198   5.575  1.8113  1.3439 -0.6793
 7779TIP3    H244829   5.310   2.251   5.716 -0.2579 -0.8817  0.0637
 7780TIP3   OH244830   6.034   5.458   0.661 -0.3498  0.2139 -0.3415
 7780TIP3    H144831   6.069   5.440   0.574 -0.6240 -0.6071 -0.2848
 7780TIP3    H244832   6.107   5.497   0.709 -0.3667  1.1910 -1.1131
 7781TIP3   OH244833   3.442   0.568  13.360 -0.0513  0.1687  0.0596
 7781TIP3    H144834   3.488   0.542  13.280  0.7203 -0.6001  0.7294
 7781TIP3    H244835   3.376   0.630  13.331  1.2366  1.0820 -0.9789
 7782TIP3   OH244836   2.484   3.094  14.946 -0.0430 -0.0416 -0.2633
 7782TIP3    H144837   2.416   3.031  14.923 -1.4374 -0.0716  3.6637
 7782TIP3    H244838   2.444   3.180  14.932 -0.0371 -0.0438 -0.2941
 7783TIP3   OH244839   4.654   0.424  11.338  0.0598  0.3851  0.6717
 7783TIP3    H144840   4.587   0.439  11.271 -0.7848 -1.9981  0.9564
 7783TIP3    H244841   4.605   0.423  11.420  0.7142  0.4821  1.0674
 7784TIP3   OH244842   5.952   5.631   1.101 -0.0705  0.3421  0.0372
 7784TIP3    H144843   5.996   5.715   1.096  0.2921  0.2033  0.8161
 7784TIP3    H244844   5.881   5.637   1.037  0.8809  0.6748 -0.9995
 7785TIP3   OH244845   5.877   4.627  15.065 -0.3982  0.3600  0.0032
 7785TIP3    H144846   5.848   4.562  15.129  0.7238 -0.4228 -0.2440
 7785TIP3    H244847   5.853   4.711  15.102 -0.2022 -0.1157  1.2307
 7786TIP3   OH244848   2.814   0.749   2.430 -0.3224 -0.2172 -0.2544
 7786TIP3    H144849   2.749   0.818   2.415 -2.1137 -1.6515  0.5979
 7786TIP3    H244850   2.866   0.747   2.350 -2.4677 -0.1953 -1.7126
 7787TIP3   OH244851   3.210   4.891  11.704 -0.5313  0.2695  0.1702
 7787TIP3    H144852   3.123   4.890  11.666 -0.5658 -2.3796  0.1768
 7787TIP3    H244853   3.216   4.808  11.751  2.8143 -0.6885 -1.7726
 7788TIP3   OH244854   5.470   5.786   0.357 -0.1450  0.2164 -0.2552
 7788TIP3    H144855   5.447   5.699   0.389  0.2784 -0.5245 -1.9379
 7788TIP3    H244856   5.558   5.802   0.392 -1.7020  1.6026  3.2622
 7789TIP3   OH244857   6.249   5.876  17.253 -0.0376  0.5322 -0.1407
 7789TIP3    H144858   6.174   5.933  17.268 -0.4071 -0.1175  0.5435
 7789TIP3    H244859   6.230   5.832  17.170 -0.2834  0.5690 -0.1044
 7790TIP3   OH244860   4.277   4.561  11.563  0.3645  0.5185 -0.0413
 7790TIP3    H144861   4.245   4.627  11.625 -2.8237 -2.1921  1.4053
 7790TIP3    H244862   4.247   4.591  11.478 -0.7628  1.1315  0.5607
 7791TIP3   OH244863   6.059   1.353   4.658 -0.0161 -0.4109  0.1047
 7791TIP3    H144864   5.965   1.366   4.671 -0.0174  0.6181 -0.8575
 7791TIP3    H244865   6.066   1.271   4.609 -0.5103  0.3216 -1.2106
 7792TIP3   OH244866   6.266   1.939   2.929  0.4100 -0.4281 -0.1621
 7792TIP3    H144867   6.180   1.950   2.970  0.6525 -0.7129  0.4317
 7792TIP3    H244868   6.315   2.018   2.953  0.6822 -0.7739  0.4243
 7793TIP3   OH244869   2.185   6.517   4.854 -0.4446 -0.1884  0.2216
 7793TIP3    H144870   2.243   6.586   4.889  0.8236 -1.0416 -0.1833
 7793TIP3    H244871   2.163   6.546   4.766  3.2853 -2.1599 -1.4575
 7794TIP3   OH244872   5.733   2.177  15.617  0.4121  0.4790  0.2882
 7794TIP3    H144873   5.806   2.239  15.624 -0.3797  1.3465  0.9016
 7794TIP3    H244874   5.671   2.204  15.684 -0.7143  0.0440 -0.5469
 7795TIP3   OH244875   0.650   5.569  11.755 -0.2810  0.1374  0.2282
 7795TIP3    H144876   0.709   5.578  11.680 -1.3489  1.1966 -0.4974
 7795TIP3    H244877   0.563   5.575  11.717 -0.8331  1.2067  1.6388
 7796TIP3   OH244878   1.142   3.887   4.129  0.3474  0.5562 -0.9899
 7796TIP3    H144879   1.170   3.910   4.040 -0.4478 -0.5432 -1.5334
 7796TIP3    H244880   1.190   3.948   4.186  0.4491  1.6278 -2.2035
 7797TIP3   OH244881   3.302   0.454  16.152 -1.4616 -0.2190 -0.6991
 7797TIP3    H144882   3.295   0.474  16.058 -1.7921 -1.2274 -0.9014
 7797TIP3    H244883   3.273   0.534  16.196 -2.0570 -0.0024 -1.4661
 7798TIP3   OH244884   5.632   4.892   2.740  0.0914 -0.2617 -0.1773
 7798TIP3    H144885   5.581   4.972   2.748  1.4768  0.7147 -0.8768
 7798TIP3    H244886   5.614   4.860   2.652 -1.3707 -1.3592  0.5175
 7799TIP3   OH244887   2.130   3.872  13.443 -0.5564 -0.5345  0.0689
 7799TIP3    H144888   2.081   3.845  13.520 -1.1241  1.6876  0.5276
 7799TIP3    H244889   2.065   3.915  13.387 -0.2027 -2.3208 -1.7888
 7800TIP3   OH244890   5.063   1.091   4.843 -0.4301 -0.2644 -0.3958
 7800TIP3    H144891   5.054   1.090   4.938 -2.2031 -0.1461 -0.5589
 7800TIP3    H244892   5.084   1.181   4.821 -2.6254  0.2818 -0.3368
 7801TIP3   OH244893   6.362   2.146  13.577  0.0414 -0.3267  0.6253
 7801TIP3    H144894   6.357   2.069  13.521  3.3611 -0.2008  0.0878
 7801TIP3    H244895   6.359   2.220  13.517  0.9876 -0.1436  0.7890
 7802TIP3   OH244896   0.961   6.079  14.169 -0.4062 -0.1747 -0.1491
 7802TIP3    H144897   0.918   6.022  14.106  0.4676  1.4764 -2.3201
 7802TIP3    H244898   0.984   6.022  14.242 -1.0820 -2.2099 -1.4890
 7803TIP3   OH244899   5.697   5.527  11.487 -0.7100  0.2916 -0.3239
 7803TIP3    H144900   5.766   5.485  11.539 -1.4844 -1.5179 -0.7281
 7803TIP3    H244901   5.621   5.527  11.544 -0.4219  2.1837  0.0778
 7804TIP3   OH244902   1.985   4.387   5.586 -0.6455  0.2133  0.2338
 7804TIP3    H144903   1.915   4.435   5.630 -1.4658 -0.5442 -0.2288
 7804TIP3    H244904   1.946   4.303   5.563  0.4796 -0.2931  0.1479
 7805TIP3   OH244905   1.017   3.479   2.776  0.0287 -0.6580 -0.3246
 7805TIP3    H144906   0.923   3.468   2.790 -0.2616  0.7030 -1.0476
 7805TIP3    H244907   1.034   3.569   2.805  0.8391 -0.4107 -1.5618
 7806TIP3   OH244908   6.675   3.113   1.748 -0.1629 -0.0980  0.4084
 7806TIP3    H144909   6.758   3.078   1.717 -0.2582 -0.4280  0.5302
 7806TIP3    H244910   6.635   3.153   1.671  0.1838  0.2089  0.3846
 7807TIP3   OH244911   0.672   5.743   6.122  0.0686  0.3816  0.1067
 7807TIP3    H144912   0.762   5.730   6.151 -0.3033 -1.6270  0.4205
 7807TIP3    H244913   0.637   5.808   6.184  1.7700  2.5331 -1.0976
 7808TIP3   OH244914   5.534   6.458   4.481  0.5349 -0.2015  0.2173
 7808TIP3    H144915   5.515   6.398   4.553  2.0598 -1.4326 -0.3772
 7808TIP3    H244916   5.474   6.531   4.494 -0.3080 -1.1576  1.8192
 7809TIP3   OH244917   4.230   6.273  15.827  0.4968  0.6121 -0.3422
 7809TIP3    H144918   4.275   6.330  15.890 -0.4996 -0.3811  1.2989
 7809TIP3    H244919   4.143   6.312  15.817 -0.2381 -0.6586  0.8967
 7810TIP3   OH244920   0.492   6.323  16.721 -0.6264 -0.1553 -0.1192
 7810TIP3    H144921   0.441   6.405  16.724  0.4888  0.4857  1.7711
 7810TIP3    H244922   0.428   6.255  16.742 -1.3406  0.3306 -0.6774
 7811TIP3   OH244923   5.400   4.060   1.172  0.6679  0.0746  0.4058
 7811TIP3    H144924   5.391   3.965   1.165  0.8162  0.0889  0.0021
 7811TIP3    H244925   5.385   4.092   1.083  0.4431  0.4427  0.5786
 7812TIP3   OH244926   5.894   2.981   2.815  0.1187 -0.6757  0.5317
 7812TIP3    H144927   5.918   2.941   2.731  0.0155  0.0808  0.1420
 7812TIP3    H244928   5.967   3.040   2.836  1.0212 -2.2204  1.8779
 7813TIP3   OH244929   5.185   3.730  16.344 -0.1969 -0.2832 -0.1428
 7813TIP3    H144930   5.163   3.637  16.351 -0.9277 -0.1020  0.0508
 7813TIP3    H244931   5.186   3.747  16.250 -0.6350 -0.3611 -0.1650
 7814TIP3   OH244932   0.592   4.900  15.713 -0.4876  0.0805 -0.0245
 7814TIP3    H144933   0.549   4.922  15.630 -2.5857 -0.7542  0.8159
 7814TIP3    H244934   0.612   4.984  15.753 -1.5287  0.4851 -0.3412
 7815TIP3   OH244935   5.838   5.451   1.615 -0.0616  0.0970 -0.3972
 7815TIP3    H144936   5.750   5.485   1.626  0.6487  1.4998  1.2051
 7815TIP3    H244937   5.832   5.392   1.539 -1.9883  1.4724 -1.3644
 7816TIP3   OH244938   5.519   6.698  13.913  0.7244  0.5591  0.0547
 7816TIP3    H144939   5.473   6.741  13.985 -1.0028 -1.0674 -0.0304
 7816TIP3    H244940   5.587   6.759  13.887  1.9556  0.7914  3.6568
 7817TIP3   OH244941   0.003   2.841  16.689  0.6855 -0.4250 -0.3910
 7817TIP3    H144942  -0.006   2.757  16.644  1.6777 -0.7608  0.0237
 7817TIP3    H244943  -0.048   2.902  16.636  0.6812 -1.1040 -1.1822
 7818TIP3   OH244944   6.458   6.757   5.379 -0.3150 -0.3541 -0.2452
 7818TIP3    H144945   6.363   6.742   5.379 -0.6974  1.8114 -0.9715
 7818TIP3    H244946   6.485   6.739   5.469 -1.5351 -0.3616  0.1316
 7819TIP3   OH244947   3.335   4.729  16.189 -0.0244 -0.2493 -0.1027
 7819TIP3    H144948   3.300   4.763  16.106 -1.9929 -0.7551  0.4944
 7819TIP3    H244949   3.276   4.658  16.212  1.1367 -0.7934  1.2195
 7820TIP3   OH244950   1.441   0.630   5.961 -0.1843  0.5486 -0.3684
 7820TIP3    H144951   1.415   0.704   5.906  1.1541  0.4314 -1.1866
 7820TIP3    H244952   1.425   0.659   6.050  0.6062  1.9385 -0.6716
 7821TIP3   OH244953   5.350   3.296  15.999 -0.4030 -0.1882 -0.3134
 7821TIP3    H144954   5.340   3.202  15.984  1.3849 -1.1448  3.7579
 7821TIP3    H244955   5.395   3.329  15.921  0.3120 -3.0186 -1.1364
 7822TIP3   OH244956   4.915   6.415  16.731 -0.1328 -0.2563 -0.9995
 7822TIP3    H144957   4.990   6.474  16.743  0.1290 -0.8186  0.2248
 7822TIP3    H244958   4.840   6.474  16.718  0.4552  0.3123 -1.8817
 7823TIP3   OH244959   1.175   2.192  16.155 -0.2496  0.6657 -0.0880
 7823TIP3    H144960   1.257   2.233  16.183  0.9021 -0.3256 -1.9198
 7823TIP3    H244961   1.131   2.258  16.102  0.1742  0.5880 -0.5322
 7824TIP3   OH244962   4.593   3.361   0.805  0.3589 -0.0214  0.2230
 7824TIP3    H144963   4.540   3.435   0.776  0.6383  0.3285  0.5934
 7824TIP3    H244964   4.530   3.291   0.821  0.1172  0.0736 -0.3360
 7825TIP3   OH244965   3.138   3.045   2.233 -0.1048 -0.1933 -0.4179
 7825TIP3    H144966   3.112   3.133   2.261 -0.7490 -0.8094  0.9827
 7825TIP3    H244967   3.079   3.025   2.160 -0.9879 -0.0608  0.2495
 7826TIP3   OH244968   5.558   0.307  16.748 -0.2545  1.2593 -0.2331
 7826TIP3    H144969   5.555   0.402  16.755  3.2122  1.4279 -0.1009
 7826TIP3    H244970   5.553   0.275  16.838 -0.3747  1.3386 -0.2133
 7827TIP3   OH244971   5.684   0.969   4.516 -0.2947  0.3839 -0.2087
 7827TIP3    H144972   5.596   0.944   4.544 -0.4577  0.3079 -0.7815
 7827TIP3    H244973   5.707   1.042   4.573 -1.0029  0.8461 -0.5031
 7828TIP3   OH244974   3.767   1.989  12.613  0.6822 -0.0114  0.2203
 7828TIP3    H144975   3.773   1.893  12.609 -1.4488 -0.1327 -0.5942
 7828TIP3    H244976   3.812   2.019  12.534  1.0410 -0.3458  0.2952
 7829TIP3   OH244977   3.170   5.917   2.932  0.3460  0.4229 -0.3569
 7829TIP3    H144978   3.262   5.941   2.946 -0.0846  0.8374  2.0943
 7829TIP3    H244979   3.172   5.823   2.913  1.3524  0.6375 -1.3310
 7830TIP3   OH244980   0.751   3.449   4.509  0.2256 -0.0479 -0.3516
 7830TIP3    H144981   0.711   3.535   4.519  0.1798 -0.0348 -0.6476
 7830TIP3    H244982   0.735   3.425   4.418  0.4048 -0.2859 -0.3220
 7831TIP3   OH244983   3.221   5.066  15.820 -0.1786 -0.1871  0.1549
 7831TIP3    H144984   3.155   5.058  15.751 -1.3046  0.9109  1.0818
 7831TIP3    H244985   3.186   5.134  15.878  1.1269 -0.5556  1.3820
 7832TIP3   OH244986   0.647   4.724   4.153  0.2889 -0.5936  0.4400
 7832TIP3    H144987   0.701   4.778   4.095  1.1849 -1.5702  0.3435
 7832TIP3    H244988   0.615   4.785   4.220  0.8729  0.1511  0.0436
 7833TIP3   OH244989   4.810   5.512   3.256 -0.0230  0.2654 -0.0119
 7833TIP3    H144990   4.725   5.494   3.215  0.5490 -0.0542 -1.0637
 7833TIP3    H244991   4.872   5.516   3.183  1.5693 -3.3928  1.0202
 7834TIP3   OH244992   5.080   4.126   3.425 -0.1006  0.5275  0.3236
 7834TIP3    H144993   5.148   4.188   3.451 -0.2523  1.9169 -2.3706
 7834TIP3    H244994   5.126   4.045   3.407  0.2494  0.1546  2.8045
 7835TIP3   OH244995   6.336   0.816   0.535 -0.1539  0.9057 -0.1436
 7835TIP3    H144996   6.306   0.905   0.520  1.1377  0.9189 -2.9474
 7835TIP3    H244997   6.412   0.825   0.591 -1.7179  1.3262  1.9481
 7836TIP3   OH244998   3.887   0.790  13.696 -0.7568 -0.3028 -0.3061
 7836TIP3    H144999   3.967   0.825  13.655 -1.3208  1.1685 -0.1745
 7836TIP3    H245000   3.919   0.742  13.773 -0.0098  0.6526  0.0011
 7837TIP3   OH245001   4.096   0.986   0.105  0.1192  0.1653 -0.3401
 7837TIP3    H145002   4.085   0.989   0.200 -0.0635 -0.8066 -0.3276
 7837TIP3    H245003   4.167   0.923   0.091 -0.3757 -0.2746 -0.8915
 7838TIP3   OH245004   6.642   1.830   1.688  0.0009 -0.0261 -0.0330
 7838TIP3    H145005   6.567   1.773   1.671 -1.3981  1.1774  1.8381
 7838TIP3    H245006   6.681   1.795   1.767  0.8656 -0.1104 -0.4982
 7839TIP3   OH245007   0.612   1.205   2.100  0.5893 -0.4312  0.1458
 7839TIP3    H145008   0.605   1.294   2.068  1.9741 -0.7624 -1.1462
 7839TIP3    H245009   0.524   1.168   2.090  0.0194  0.7663  0.6818
 7840TIP3   OH245010   0.219   6.361  10.838 -0.3044 -0.4530  0.0083
 7840TIP3    H145011   0.214   6.317  10.922  1.1071  0.1895  0.4484
 7840TIP3    H245012   0.292   6.319  10.793  0.8139  1.1263  0.2841
 7841TIP3   OH245013   1.552   0.095   2.419  0.1764  0.2091 -0.4727
 7841TIP3    H145014   1.640   0.094   2.381  0.1690  2.3889 -0.6582
 7841TIP3    H245015   1.565   0.125   2.509 -0.2535 -0.6762 -0.1128
 7842TIP3   OH245016   4.954   3.154   0.784 -0.4924  0.7798  0.1380
 7842TIP3    H145017   5.002   3.073   0.798  1.1113  1.6521 -0.2169
 7842TIP3    H245018   4.892   3.159   0.857 -2.7141 -2.2446 -1.4374
 7843TIP3   OH245019   3.130   5.559  16.049  0.0167 -0.6222  0.3080
 7843TIP3    H145020   3.147   5.581  15.957 -0.9519 -2.6996 -0.4063
 7843TIP3    H245021   3.094   5.639  16.086  2.0104  0.7685 -0.6768
 7844TIP3   OH245022   0.841   3.427   4.780 -0.0357 -0.0976  0.4873
 7844TIP3    H145023   0.826   3.355   4.842  0.3430  0.6290  1.4525
 7844TIP3    H245024   0.803   3.397   4.698 -0.1197 -1.2902  0.9481
 7845TIP3   OH245025   2.098   4.316  13.310 -0.1671  0.7281 -0.0566
 7845TIP3    H145026   2.096   4.368  13.391 -0.7635  0.1312  0.3217
 7845TIP3    H245027   2.081   4.379  13.241  0.2461  1.2316  0.2977
 7846TIP3   OH245028   1.374   5.878   3.887  0.3419 -0.3110  0.4389
 7846TIP3    H145029   1.316   5.860   3.813 -0.2866 -1.6891  1.2543
 7846TIP3    H245030   1.364   5.802   3.944  1.8216  0.1425  1.3105
 7847TIP3   OH245031   2.685   0.168  12.150  0.7517  0.1660  0.2949
 7847TIP3    H145032   2.687   0.242  12.089  0.9705  0.3606  0.5364
 7847TIP3    H245033   2.611   0.187  12.208 -0.0515 -0.4969 -0.5004
 7848TIP3   OH245034   4.932   2.469   2.790 -0.0924 -0.1899 -0.2170
 7848TIP3    H145035   4.907   2.539   2.729 -1.1979  1.8973  2.5198
 7848TIP3    H245036   4.926   2.389   2.738  0.4686  1.6236 -3.2465
 7849TIP3   OH245037   6.291   4.620  13.118  0.0047 -0.4148 -0.5663
 7849TIP3    H145038   6.333   4.683  13.176  0.8308 -1.1363 -0.3858
 7849TIP3    H245039   6.238   4.675  13.059  0.4295  0.4247 -0.1799
 7850TIP3   OH245040   6.733   3.460  16.811  0.0693  1.0381  0.6151
 7850TIP3    H145041   6.676   3.416  16.748  0.5921 -1.7557  2.0142
 7850TIP3    H245042   6.813   3.479  16.761 -0.6257  1.5400 -0.3325
 7851TIP3   OH245043   0.001   3.964   0.624 -0.4534 -0.4770 -0.0843
 7851TIP3    H145044   0.054   4.016   0.564 -0.1906 -1.5096 -0.7521
 7851TIP3    H245045  -0.086   4.005   0.622 -0.6139 -0.8672 -1.6387
 7852TIP3   OH245046   3.735   2.187   4.964 -0.1231  0.6618 -0.5148
 7852TIP3    H145047   3.762   2.278   4.955  0.3033  0.6019  0.1321
 7852TIP3    H245048   3.648   2.191   5.002  0.0482  0.7927 -0.1345
 7853TIP3   OH245049   1.971   6.355  16.156  0.1901  0.6333 -0.1703
 7853TIP3    H145050   1.913   6.397  16.092  0.2418  1.4359  0.3110
 7853TIP3    H245051   2.044   6.416  16.165  0.1828  0.5217  0.6585
 7854TIP3   OH245052   3.329   5.244  12.635  0.8769  0.2692  0.3458
 7854TIP3    H145053   3.242   5.278  12.615  0.5474 -0.8000 -0.0700
 7854TIP3    H245054   3.333   5.160  12.589  1.6513 -0.2820  1.4007
 7855TIP3   OH245055   5.344   3.047   0.947 -0.2349 -0.5647 -0.4365
 7855TIP3    H145056   5.425   3.094   0.968  0.5599 -1.7651 -0.7471
 7855TIP3    H245057   5.330   2.988   1.021  0.9498 -2.6605 -1.8280
 7856TIP3   OH245058   1.700   2.040  11.781  1.0169  0.4396  0.0671
 7856TIP3    H145059   1.780   2.076  11.821  2.5113 -2.0355 -0.5714
 7856TIP3    H245060   1.732   1.987  11.708 -1.3350  0.4327 -1.0026
 7857TIP3   OH245061   3.524   1.726   4.002 -0.4853  0.4641  1.0269
 7857TIP3    H145062   3.441   1.771   4.020 -0.3884  0.6829  0.9195
 7857TIP3    H245063   3.540   1.675   4.081  1.2508  3.3899  2.6468
 7858TIP3   OH245064   1.775   3.830   2.573  0.2269 -0.3278 -0.2082
 7858TIP3    H145065   1.692   3.878   2.573  0.2087 -0.3575 -0.3185
 7858TIP3    H245066   1.810   3.844   2.485  0.1876 -0.5740 -0.2629
 7859TIP3   OH245067   6.164   3.090   1.923  0.2933  0.2207 -0.7869
 7859TIP3    H145068   6.085   3.100   1.976  0.4705 -0.1048 -0.4618
 7859TIP3    H245069   6.140   3.028   1.854  0.1793  0.3455 -0.8594
 7860TIP3   OH245070   2.017   1.670   3.025 -0.3189 -0.2096 -0.7213
 7860TIP3    H145071   2.066   1.613   2.966 -1.2094 -0.2710 -1.4121
 7860TIP3    H245072   2.070   1.675   3.105  0.0213 -1.5647 -0.8614
 7861TIP3   OH245073   3.432   5.219   5.927 -0.2135 -0.0786 -0.0260
 7861TIP3    H145074   3.489   5.294   5.912  0.5788 -0.2626  1.8534
 7861TIP3    H245075   3.428   5.211   6.023 -1.0162 -1.8721 -0.1819
 7862TIP3   OH245076   5.507   3.156  16.275 -0.0608 -0.0001 -0.2007
 7862TIP3    H145077   5.434   3.185  16.221 -0.5993  0.8520  0.9647
 7862TIP3    H245078   5.583   3.204  16.241 -0.7294  1.9492  0.9592
 7863TIP3   OH245079   4.809   0.054  12.538  0.0459 -0.6684  0.0945
 7863TIP3    H145080   4.848   0.009  12.612  0.2517 -0.0202  0.3885
 7863TIP3    H245081   4.715   0.054  12.556  0.0149 -1.2682 -0.0704
 7864TIP3   OH245082   5.297   4.031   3.145  0.4772  0.2025  0.1481
 7864TIP3    H145083   5.279   4.125   3.134 -0.7908 -0.0490  0.0622
 7864TIP3    H245084   5.266   4.010   3.233  0.3109 -0.2455 -0.0171
 7865TIP3   OH245085   3.771   1.876   0.304 -0.1274  0.2074  0.1636
 7865TIP3    H145086   3.834   1.819   0.261 -1.7911 -0.6572 -1.1624
 7865TIP3    H245087   3.733   1.822   0.373  0.4470  0.6918  0.8786
 7866TIP3   OH245088   1.054   0.020  13.744 -0.4338  0.5698  0.3462
 7866TIP3    H145089   1.094   0.107  13.738 -1.6788  0.9978 -4.1740
 7866TIP3    H245090   0.960   0.036  13.732 -0.4478 -1.5146 -3.0636
 7867TIP3   OH245091   2.990   5.114   2.217 -0.4894  0.2679 -0.1256
 7867TIP3    H145092   3.077   5.155   2.220 -0.5100  0.2382  2.8744
 7867TIP3    H245093   2.934   5.173   2.268 -1.7291 -0.8380 -0.1905
 7868TIP3   OH245094   3.390   5.105  11.624 -0.1246 -0.0707  0.0697
 7868TIP3    H145095   3.351   5.118  11.537 -1.0532 -0.4773  0.4188
 7868TIP3    H245096   3.348   5.025  11.657 -0.5464  0.6693  1.3293
 7869TIP3   OH245097   1.135   6.654  12.549 -0.0825 -0.3170 -0.5847
 7869TIP3    H145098   1.063   6.666  12.611  1.0626 -1.0921  0.9333
 7869TIP3    H245099   1.108   6.703  12.471 -1.7495  0.3030  0.3553
 7870TIP3   OH245100   3.380   6.171  12.330 -0.2858  0.0502  0.3088
 7870TIP3    H145101   3.462   6.125  12.345 -0.5099 -0.1713  0.8904
 7870TIP3    H245102   3.387   6.251  12.383 -0.4738 -0.0092  0.4257
 7871TIP3   OH245103   6.580   6.555   2.690 -0.3669 -0.5469  0.1888
 7871TIP3    H145104   6.675   6.554   2.686 -0.2341  0.9089  2.1494
 7871TIP3    H245105   6.555   6.639   2.650 -0.8643 -1.1656 -0.8097
 7872TIP3   OH245106   2.957   6.280   2.135 -0.2413  0.5091  0.1907
 7872TIP3    H145107   3.028   6.267   2.073  0.3508 -0.5553  1.0765
 7872TIP3    H245108   2.899   6.205   2.121  0.9949 -0.8965  2.3810
 7873TIP3   OH245109   5.782   5.438  16.113  0.5493 -0.2718 -0.4891
 7873TIP3    H145110   5.867   5.469  16.143  1.5244 -1.3502 -2.0370
 7873TIP3    H245111   5.721   5.508  16.136  2.0185  0.9370 -0.2156
 7874TIP3   OH245112   0.533   2.365   4.297  0.2445 -0.5618  0.0048
 7874TIP3    H145113   0.452   2.367   4.247  0.3950  1.3969 -0.2040
 7874TIP3    H245114   0.587   2.435   4.259  1.2300 -0.4966  1.4486
 7875TIP3   OH245115   2.763   4.530  11.853  0.1313  0.2597  0.4269
 7875TIP3    H145116   2.775   4.625  11.855  0.9349  0.1653  0.2517
 7875TIP3    H245117   2.765   4.503  11.945 -2.5251  0.6948  0.6514
 7876TIP3   OH245118   5.210   5.360  13.091  0.4153  0.2549 -0.4695
 7876TIP3    H145119   5.246   5.291  13.146  0.2122  1.4336  1.2060
 7876TIP3    H245120   5.286   5.400  13.049  0.5864 -0.5909 -0.9634
 7877TIP3   OH245121   4.462   5.390  16.488 -0.0320  0.1617 -0.2732
 7877TIP3    H145122   4.534   5.398  16.426  0.9401 -1.3184  0.6434
 7877TIP3    H245123   4.495   5.429  16.569 -0.2652 -0.4627  0.1291
 7878TIP3   OH245124   4.420   2.909  12.932  0.0783  0.1133  0.3011
 7878TIP3    H145125   4.340   2.871  12.968 -1.6363  1.2596 -2.1214
 7878TIP3    H245126   4.470   2.834  12.899 -0.8772 -0.4862  0.1825
 7879TIP3   OH245127   3.325   6.491   6.196  0.3525  0.2327 -0.0731
 7879TIP3    H145128   3.419   6.503   6.183  0.4242 -1.5290 -1.3995
 7879TIP3    H245129   3.299   6.565   6.251  2.1072  1.9037 -1.4022
 7880TIP3   OH245130   4.543   0.890   0.905  0.1223 -0.0654 -0.3967
 7880TIP3    H145131   4.536   0.977   0.943 -1.7972  0.2150 -1.3272
 7880TIP3    H245132   4.458   0.848   0.923 -0.0095 -0.7185 -2.3568
 7881TIP3   OH245133   0.565   1.541   5.544  0.1712  0.6113 -0.5300
 7881TIP3    H145134   0.586   1.574   5.632 -2.2584 -0.0876  0.3377
 7881TIP3    H245135   0.621   1.464   5.534 -1.8210 -1.1832  1.7176
 7882TIP3   OH245136   1.796   5.728  11.632  0.2963  0.0536  0.6249
 7882TIP3    H145137   1.873   5.724  11.575 -0.3177 -1.2301 -0.1400
 7882TIP3    H245138   1.767   5.818  11.628  0.3540  0.0088 -0.9675
 7883TIP3   OH245139   0.003   5.070  13.653 -0.3453  0.7005  0.4090
 7883TIP3    H145140  -0.018   4.978  13.666  1.6854  0.3739  1.4810
 7883TIP3    H245141  -0.075   5.106  13.610 -1.0538 -1.5503 -0.2749
 7884TIP3   OH245142   4.865   1.480  13.063 -0.6885  0.4187 -0.4255
 7884TIP3    H145143   4.912   1.561  13.083 -0.5678  0.4870 -0.9696
 7884TIP3    H245144   4.923   1.433  13.002  0.0650 -0.9211  1.2847
 7885TIP3   OH245145   5.971   2.644  14.885  0.3410 -0.7327  0.0539
 7885TIP3    H145146   5.946   2.552  14.893  2.2992 -1.1849  1.3176
 7885TIP3    H245147   6.038   2.645  14.816  1.0287 -0.4165  0.7204
 7886TIP3   OH245148   0.857   5.963   1.612  0.0174  0.2188 -0.2195
 7886TIP3    H145149   0.832   6.039   1.560  1.3934 -0.1594 -1.4764
 7886TIP3    H245150   0.878   5.999   1.699  1.3129  1.3710 -0.9887
 7887TIP3   OH245151   2.808   1.208  13.218  0.7305 -0.0107 -0.4400
 7887TIP3    H145152   2.818   1.213  13.123 -1.8754 -0.7660 -0.7893
 7887TIP3    H245153   2.843   1.122  13.241  1.2630  0.1276 -0.7289
 7888TIP3   OH245154   4.516   2.259  10.380 -0.3493  0.0215  0.2153
 7888TIP3    H145155   4.592   2.239  10.435 -0.2681  0.5614  0.3020
 7888TIP3    H245156   4.514   2.354  10.376 -0.6147 -0.0091 -0.3635
 7889TIP3   OH245157   4.415   5.724   0.252 -0.2380  0.0872  0.5419
 7889TIP3    H145158   4.418   5.819   0.238 -0.1786  0.0846  0.5425
 7889TIP3    H245159   4.335   5.711   0.304  0.2531  0.2364  1.3396
 7890TIP3   OH245160   0.631   5.819  12.804  0.3026  0.3114  0.3756
 7890TIP3    H145161   0.698   5.836  12.737  2.4036  0.7128  2.5043
 7890TIP3    H245162   0.677   5.771  12.872 -1.4128  1.1948  2.2218
 7891TIP3   OH245163   4.847   3.257  13.532 -0.6460 -0.1880  0.7445
 7891TIP3    H145164   4.755   3.230  13.524 -0.5375 -0.8143  1.5249
 7891TIP3    H245165   4.892   3.207  13.463 -1.0108  0.7463 -0.1895
 7892TIP3   OH245166   4.421   2.937   3.466  0.3589 -0.2097  0.2428
 7892TIP3    H145167   4.501   2.985   3.445  0.1177 -0.9732 -2.6746
 7892TIP3    H245168   4.350   2.997   3.442  0.0697 -1.3359 -1.8525
 7893TIP3   OH245169   5.349   0.395  16.162  0.5190 -0.4031  0.2725
 7893TIP3    H145170   5.266   0.382  16.207  1.0066 -1.3209  0.9367
 7893TIP3    H245171   5.405   0.437  16.227  0.3241  0.9689 -0.4414
 7894TIP3   OH245172   6.640   0.699   4.664 -0.0246 -0.7069 -0.1989
 7894TIP3    H145173   6.631   0.785   4.623 -0.7333  0.0596  1.4771
 7894TIP3    H245174   6.552   0.663   4.664  0.1771 -1.2003 -0.4071
 7895TIP3   OH245175   3.875   0.861  10.634 -0.1967  0.1265 -0.1773
 7895TIP3    H145176   3.864   0.948  10.672 -0.3978  0.0158  0.0181
 7895TIP3    H245177   3.797   0.813  10.661  0.2366 -0.3211  0.2788
 7896TIP3   OH245178   1.252   4.520  15.815  0.1499 -1.1659  0.4691
 7896TIP3    H145179   1.329   4.495  15.764 -0.2136  1.7511 -1.6324
 7896TIP3    H245180   1.182   4.464  15.782  0.6603 -1.5614  0.0556
 7897TIP3   OH245181   5.738   1.717  12.507  0.0116 -0.0117 -0.0257
 7897TIP3    H145182   5.710   1.792  12.455  3.8696  1.2091 -0.5686
 7897TIP3    H245183   5.756   1.648  12.443 -1.7606 -0.8135  0.3177
 7898TIP3   OH245184   6.308   1.462   0.127  0.0283  0.2122 -0.6047
 7898TIP3    H145185   6.386   1.468   0.181  0.4004  2.8627 -1.3565
 7898TIP3    H245186   6.340   1.457   0.038 -0.6310  0.8296 -0.8865
 7899TIP3   OH245187   2.503   0.212  13.253 -0.2807 -0.5769 -0.1859
 7899TIP3    H145188   2.444   0.141  13.231  0.1576 -0.6703 -1.0611
 7899TIP3    H245189   2.588   0.185  13.218  0.0908 -0.0466  0.2873
 7900TIP3   OH245190   5.168   6.058   6.483 -0.0420  0.1143  0.0253
 7900TIP3    H145191   5.120   6.036   6.563  1.1991 -0.7200  0.5417
 7900TIP3    H245192   5.148   6.150   6.468  0.2885  0.4705  1.6902
 7901TIP3   OH245193   0.479   2.650   1.376  0.0052 -0.1027  0.0430
 7901TIP3    H145194   0.431   2.724   1.411 -0.7349 -0.1821 -0.7921
 7901TIP3    H245195   0.432   2.626   1.296  0.4553 -1.2299  0.1018
 7902TIP3   OH245196   6.230   0.539  16.545 -0.7085 -0.0853 -0.5118
 7902TIP3    H145197   6.248   0.620  16.592  0.3654 -0.2101 -0.6906
 7902TIP3    H245198   6.308   0.486  16.558 -0.3727 -0.1165 -2.4309
 7903TIP3   OH245199   2.780   5.831  16.445  0.0148 -0.6252 -0.0599
 7903TIP3    H145200   2.798   5.925  16.451  0.0232 -0.6542  0.3798
 7903TIP3    H245201   2.865   5.789  16.452 -0.1499 -0.7437  1.6838
 7904TIP3   OH245202   4.051   2.781   3.786 -0.3610 -0.0752 -0.3025
 7904TIP3    H145203   4.004   2.711   3.741 -2.1130  1.4684 -0.9070
 7904TIP3    H245204   4.105   2.822   3.719  0.7570 -0.8844  0.0774
 7905TIP3   OH245205   6.480   2.071   0.523 -0.2512  0.6582  0.2737
 7905TIP3    H145206   6.443   2.011   0.458 -0.0538  0.9489 -0.1072
 7905TIP3    H245207   6.478   2.157   0.481  0.3378  0.7662  0.4616
 7906TIP3   OH245208   3.492   4.164   4.178  0.4389  0.3351 -0.4069
 7906TIP3    H145209   3.433   4.141   4.106 -0.3266 -0.1386  0.3606
 7906TIP3    H245210   3.512   4.081   4.220  1.0643  0.5868 -0.2012
 7907TIP3   OH245211   2.209   2.805  11.352  0.3939 -0.2783  0.3301
 7907TIP3    H145212   2.260   2.764  11.421 -0.6213 -1.2598  0.4978
 7907TIP3    H245213   2.192   2.735  11.289  0.5592  0.4023 -0.4857
 7908TIP3   OH245214   1.728   5.873  14.620  0.4926 -0.6168 -0.5945
 7908TIP3    H145215   1.718   5.873  14.715  0.6220  0.2862 -0.5762
 7908TIP3    H245216   1.792   5.805  14.602 -0.2927 -1.4965 -0.1197
 7909TIP3   OH245217   0.119   4.050   3.948  0.5584 -0.0234 -0.2982
 7909TIP3    H145218   0.127   4.145   3.945 -1.9719  0.2161 -0.7754
 7909TIP3    H245219   0.172   4.019   3.875  1.0859  1.0503 -0.3763
 7910TIP3   OH245220   5.524   3.017  15.368  0.5790 -0.1670  0.9729
 7910TIP3    H145221   5.517   2.927  15.397  0.4130  0.0329  1.5674
 7910TIP3    H245222   5.611   3.046  15.398  0.9631 -0.3646  0.0917
 7911TIP3   OH245223   0.879   6.301  13.264  0.1952 -0.0925  0.4043
 7911TIP3    H145224   0.867   6.253  13.346  0.2123  1.8949  1.6030
 7911TIP3    H245225   0.917   6.385  13.290 -0.7935  1.0041 -1.5115
 7912TIP3   OH245226   3.465   6.635  14.822  0.0374 -0.3394  0.2179
 7912TIP3    H145227   3.550   6.677  14.828 -0.8298  1.4702  0.0080
 7912TIP3    H245228   3.438   6.646  14.731 -0.0001 -1.7735  0.0336
 7913TIP3   OH245229   3.803   1.091   6.694 -0.0743  0.3775 -0.5579
 7913TIP3    H145230   3.748   1.156   6.738 -1.7149 -0.9998 -0.5545
 7913TIP3    H245231   3.886   1.095   6.741 -1.0871  0.4804  1.2584
 7914TIP3   OH245232   2.202   2.206  12.646 -0.1124 -0.4379  0.4047
 7914TIP3    H145233   2.162   2.232  12.563 -0.0205 -1.7575 -0.0695
 7914TIP3    H245234   2.133   2.162  12.694 -0.7670  2.1799  1.9595
 7915TIP3   OH245235   2.661   4.569   2.172  0.4539 -0.6215  0.2601
 7915TIP3    H145236   2.730   4.534   2.228 -0.0443  0.8233  1.8195
 7915TIP3    H245237   2.585   4.512   2.189  0.5808 -0.7767  0.3093
 7916TIP3   OH245238   2.133   5.381  13.175  0.2336 -0.3120 -0.2607
 7916TIP3    H145239   2.189   5.423  13.241 -0.1914 -0.9386  0.5126
 7916TIP3    H245240   2.099   5.303  13.219 -0.9268 -0.1585 -0.8689
 7917TIP3   OH245241   2.985   5.123   5.875 -0.2117  0.2766 -0.0642
 7917TIP3    H145242   3.038   5.132   5.954  0.0567  0.9244 -0.3243
 7917TIP3    H245243   2.899   5.095   5.908 -0.0586  0.3969  0.4449
 7918TIP3   OH245244   3.605   1.283  14.886  0.4569 -0.5067  0.0491
 7918TIP3    H145245   3.644   1.211  14.935 -1.6970 -1.6958  0.1245
 7918TIP3    H245246   3.597   1.250  14.796 -0.3488 -0.3105  0.0353
 7919TIP3   OH245247   2.762   0.722   5.962 -0.0263 -0.0120 -0.2460
 7919TIP3    H145248   2.826   0.686   5.902 -0.2428 -0.8163 -0.0030
 7919TIP3    H245249   2.796   0.703   6.049  0.7860  2.0244 -0.0735
 7920TIP3   OH245250   1.507   1.712  15.071  0.5103  0.5636  0.0111
 7920TIP3    H145251   1.501   1.791  15.124 -1.5410  0.9082 -0.6937
 7920TIP3    H245252   1.480   1.739  14.983  0.5281 -0.7407 -0.4096
 7921TIP3   OH245253   1.616   5.277  13.492  0.0955 -0.1196  0.5379
 7921TIP3    H145254   1.648   5.285  13.582  1.3841 -1.3626  0.1990
 7921TIP3    H245255   1.553   5.349  13.483  1.2531  1.0879  1.8643
 7922TIP3   OH245256   6.129   3.633   3.180 -0.1053  0.0921  0.1116
 7922TIP3    H145257   6.175   3.684   3.247  0.6644  0.6594 -0.8437
 7922TIP3    H245258   6.075   3.698   3.134  1.3126  0.1630 -1.4839
 7923TIP3   OH245259   0.792   2.336  12.717 -0.2207  0.0201  0.2550
 7923TIP3    H145260   0.870   2.385  12.742 -0.4044  0.5676 -0.2445
 7923TIP3    H245261   0.786   2.266  12.782  1.4605 -0.8513 -0.4901
 7924TIP3   OH245262   0.506   4.815  13.643 -0.1269  0.2070  0.4433
 7924TIP3    H145263   0.570   4.748  13.620 -0.3092  0.6692 -1.4850
 7924TIP3    H245264   0.514   4.880  13.574  0.9186  2.8285  2.9272
 7925TIP3   OH245265   1.751   5.067  11.903  0.8718 -0.1570  0.0454
 7925TIP3    H145266   1.675   5.118  11.929  0.2769 -1.1614  0.2971
 7925TIP3    H245267   1.728   5.031  11.818  0.0348 -2.4710  1.1893
 7926TIP3   OH245268   0.279   6.258   5.325  0.1689  0.0357 -0.0952
 7926TIP3    H145269   0.237   6.326   5.272 -1.5363 -0.9115 -0.0011
 7926TIP3    H245270   0.207   6.217   5.373  1.3823 -0.7583  1.0904
 7927TIP3   OH245271   4.037   5.116   1.707  0.7426 -0.3610  0.3564
 7927TIP3    H145272   4.064   5.029   1.680  0.1543 -0.3807 -0.1755
 7927TIP3    H245273   4.022   5.164   1.625  0.4194  0.0338  0.6375
 7928TIP3   OH245274   6.444   5.672   4.413  0.5187  0.3393 -0.8244
 7928TIP3    H145275   6.413   5.587   4.444  1.0933  0.3118 -0.3184
 7928TIP3    H245276   6.384   5.735   4.452  0.1170  0.1706 -1.1682
 7929TIP3   OH245277   1.002   4.189  16.376  0.3997  0.6781  0.2960
 7929TIP3    H145278   1.030   4.198  16.467 -0.7446  1.9711  0.5318
 7929TIP3    H245279   1.050   4.113  16.343  4.4722  3.0378  0.5528
 7930TIP3   OH245280   0.232   2.908   2.155 -0.0203 -0.3435 -0.4841
 7930TIP3    H145281   0.206   2.909   2.063 -2.0756 -0.7299  0.0538
 7930TIP3    H245282   0.205   2.994   2.189 -1.9296 -1.2584  0.4095
 7931TIP3   OH245283   5.442   3.421  14.358  0.0991  0.0778  0.7872
 7931TIP3    H145284   5.420   3.512  14.338 -2.4515 -0.8451 -0.7958
 7931TIP3    H245285   5.450   3.420  14.454  1.6311  2.2376  0.7372
 7932TIP3   OH245286   1.690   3.872  13.808 -0.1572  0.2653 -0.0940
 7932TIP3    H145287   1.684   3.786  13.850 -1.5492  0.8980  1.0303
 7932TIP3    H245288   1.712   3.932  13.879 -2.4676  1.3357 -0.2393
 7933TIP3   OH245289   2.960   4.319  16.315  0.3378 -0.0230  0.1922
 7933TIP3    H145290   3.011   4.372  16.254 -1.4720  1.4434 -0.0786
 7933TIP3    H245291   2.892   4.280  16.260 -0.0516 -0.3616  0.9182
 7934TIP3   OH245292   2.019   5.232   6.291 -0.0049  0.1093  0.2691
 7934TIP3    H145293   2.098   5.266   6.333 -0.4187 -0.5112  1.5853
 7934TIP3    H245294   2.051   5.168   6.228  0.6366  1.1839 -0.5177
 7935TIP3   OH245295   0.623   1.695   3.233  0.2254 -0.3879  0.5885
 7935TIP3    H145296   0.681   1.710   3.158 -3.6415  0.2762 -2.4476
 7935TIP3    H245297   0.619   1.600   3.241 -0.3183 -0.5222 -0.9584
 7936TIP3   OH245298   1.598   5.391  14.716 -0.2021  0.3870 -0.2816
 7936TIP3    H145299   1.620   5.480  14.742 -1.2078  0.5889 -0.1110
 7936TIP3    H245300   1.603   5.391  14.621  1.1429  0.2691 -0.2155
 7937TIP3   OH245301   5.121   2.518   5.546 -0.2651 -0.4735 -0.3364
 7937TIP3    H145302   5.093   2.565   5.467  0.5459  1.7213  0.6314
 7937TIP3    H245303   5.216   2.535   5.550  0.2084 -2.9741 -0.4460
 7938TIP3   OH245304   2.753   5.726  11.937  0.0539  0.4489 -0.2699
 7938TIP3    H145305   2.834   5.705  11.890  0.3259  1.9629 -0.5052
 7938TIP3    H245306   2.684   5.718  11.870  0.1273  0.1021 -0.3039
 7939TIP3   OH245307   2.700   4.112   5.046 -0.2164  0.1470 -0.4821
 7939TIP3    H145308   2.610   4.129   5.071 -0.9380 -1.3995 -1.8824
 7939TIP3    H245309   2.735   4.057   5.116 -0.8741 -0.6037 -0.7397
 7940TIP3   OH245310   3.860   2.786   6.139 -0.3299 -0.0441  0.9547
 7940TIP3    H145311   3.941   2.782   6.190  0.6240 -1.1948 -0.5912
 7940TIP3    H245312   3.791   2.799   6.204  1.0572  0.6813  2.3232
 7941TIP3   OH245313   3.474   2.267   3.412 -0.3752  0.0313  0.1004
 7941TIP3    H145314   3.383   2.286   3.435 -0.3166  0.0527  0.3129
 7941TIP3    H245315   3.472   2.178   3.378 -0.4433 -0.0355  0.2804
 7942TIP3   OH245316   0.891   4.706   5.258 -0.0380 -0.1241  0.1234
 7942TIP3    H145317   0.813   4.745   5.298  0.3256 -1.8648  2.6035
 7942TIP3    H245318   0.878   4.612   5.267  0.9217 -0.5259 -2.2692
 7943TIP3   OH245319   2.826   4.514   3.489 -0.0024  0.5200 -0.3101
 7943TIP3    H145320   2.835   4.515   3.394  1.7898  3.6387 -0.1923
 7943TIP3    H245321   2.753   4.455   3.506 -0.6812  0.3142 -3.6482
 7944TIP3   OH245322   1.381   5.499  16.789  0.1666  0.1655  0.0433
 7944TIP3    H145323   1.456   5.443  16.810 -1.3648 -2.0021 -0.1470
 7944TIP3    H245324   1.386   5.512  16.694 -0.6757 -1.4599 -0.2407
 7945TIP3   OH245325   0.072   6.614   3.728  0.3291  0.4249  0.3856
 7945TIP3    H145326   0.097   6.617   3.820  0.4533  0.3187  0.3547
 7945TIP3    H245327   0.108   6.694   3.690  2.1074 -0.5454 -0.0419
 7946TIP3   OH245328   2.009   3.259   1.975 -0.1796  0.0339 -0.0100
 7946TIP3    H145329   1.918   3.285   1.962 -0.1224  1.1786  1.7117
 7946TIP3    H245330   2.061   3.327   1.932 -0.1154  0.3561  0.5691
 7947TIP3   OH245331   3.833   1.562   2.964  0.5479  0.2431 -0.3160
 7947TIP3    H145332   3.804   1.556   2.873  1.5629 -2.4541 -0.5025
 7947TIP3    H245333   3.839   1.656   2.981  0.2742  0.7855 -3.0021
 7948TIP3   OH245334   6.103   3.739   4.897 -0.1931  0.5226  0.3504
 7948TIP3    H145335   6.193   3.725   4.927  0.2843  0.7502 -0.9681
 7948TIP3    H245336   6.059   3.655   4.915  0.2707  0.4100  0.9962
 7949TIP3   OH245337   6.355   4.611  15.728 -0.0147  0.1526 -0.2150
 7949TIP3    H145338   6.356   4.702  15.758  1.2875  1.1956 -3.1692
 7949TIP3    H245339   6.271   4.601  15.684 -0.0895  0.0016 -0.0322
 7950TIP3   OH245340   3.122   4.319  15.714 -0.0692 -0.2837 -0.6034
 7950TIP3    H145341   3.128   4.413  15.728  0.2924 -0.2738 -0.8309
 7950TIP3    H245342   3.211   4.291  15.691  0.2770 -1.0174  1.4806
 7951TIP3   OH245343   1.543   5.092   0.979  0.2249 -0.2008 -0.5825
 7951TIP3    H145344   1.456   5.078   0.942 -1.0655  2.0247  1.5104
 7951TIP3    H245345   1.559   5.186   0.970  1.7233 -0.3265  0.5690
 7952TIP3   OH245346   0.073   3.190  12.510  0.1662  0.3464 -0.4351
 7952TIP3    H145347   0.125   3.183  12.590 -2.3439 -1.3985  1.1104
 7952TIP3    H245348   0.105   3.270  12.468  1.4323  1.3997  2.3898
 7953TIP3   OH245349   5.029   6.294   2.172  0.2601  0.5511 -0.1091
 7953TIP3    H145350   4.960   6.280   2.107  1.3310  1.0079 -1.3911
 7953TIP3    H245351   5.004   6.374   2.217 -0.8237 -0.1093  0.4893
 7954TIP3   OH245352   5.059   6.427  14.008 -0.3278 -0.1477  0.2882
 7954TIP3    H145353   5.034   6.501  14.063 -1.0739 -1.5739  1.9332
 7954TIP3    H245354   5.120   6.377  14.062 -2.3241 -2.4537  0.4864
 7955TIP3   OH245355   3.848   2.729  10.723 -0.3457  0.0499 -0.1626
 7955TIP3    H145356   3.822   2.770  10.805  0.0054 -0.3557  0.1586
 7955TIP3    H245357   3.835   2.796  10.656 -1.1893  0.1870  0.1398
 7956TIP3   OH245358   4.270   1.661  11.778  0.2770 -0.0968  0.6119
 7956TIP3    H145359   4.238   1.685  11.691 -0.8723 -0.8056  0.8254
 7956TIP3    H245360   4.289   1.567  11.771 -1.5031 -0.5626  1.5921
 7957TIP3   OH245361   5.340   6.349  11.682  0.1071 -0.2511  0.0996
 7957TIP3    H145362   5.344   6.295  11.603 -2.2825 -2.3316  1.2980
 7957TIP3    H245363   5.387   6.298  11.749  0.8510  0.8003  0.3938
 7958TIP3   OH245364   0.637   0.964  11.765 -0.4960 -0.5327  0.2751
 7958TIP3    H145365   0.620   1.053  11.794  0.3434 -0.8038  1.6517
 7958TIP3    H245366   0.601   0.909  11.835  0.9035 -1.2156  0.4640
 7959TIP3   OH245367   3.053   1.188  15.576 -0.7720  0.1604  0.6015
 7959TIP3    H145368   3.024   1.263  15.525 -0.1151 -0.4780 -0.7311
 7959TIP3    H245369   2.999   1.191  15.655 -0.7342  2.0405  0.5817
 7960TIP3   OH245370   3.985   1.688  11.700 -0.1927  0.0920 -0.0556
 7960TIP3    H145371   3.971   1.596  11.678  1.1099  0.1058 -1.0163
 7960TIP3    H245372   4.029   1.685  11.785  1.9637 -0.2792 -1.1586
 7961TIP3   OH245373   0.365   5.327   5.341 -0.0164 -0.5502 -0.7974
 7961TIP3    H145374   0.402   5.339   5.428 -1.6484 -2.0558  0.1433
 7961TIP3    H245375   0.309   5.403   5.329  0.8450  0.0808 -0.8868
 7962TIP3   OH245376   2.594   4.037  15.648 -0.5255 -0.6773 -0.2126
 7962TIP3    H145377   2.617   3.977  15.719 -1.5362  0.4767  1.1079
 7962TIP3    H245378   2.668   4.098  15.645 -1.9378  1.2167  2.0310
 7963TIP3   OH245379   1.668   6.205   1.224 -0.3336  0.1843  0.1923
 7963TIP3    H145380   1.636   6.124   1.264  1.1298 -0.3077  0.3732
 7963TIP3    H245381   1.759   6.212   1.252 -0.2977  1.6304 -0.2493
 7964TIP3   OH245382   5.721   3.718   0.830  0.0761 -0.0356  0.0756
 7964TIP3    H145383   5.816   3.706   0.822  0.4233 -0.0706  3.3632
 7964TIP3    H245384   5.698   3.669   0.909 -2.5026  0.9033 -0.0604
 7965TIP3   OH245385   3.247   0.982  17.187  0.0660 -0.2559  0.1357
 7965TIP3    H145386   3.343   0.977  17.188  0.0728  0.1943  1.3189
 7965TIP3    H245387   3.220   0.905  17.136  1.1469  1.2114 -2.7768
 7966TIP3   OH245388   1.701   4.042   1.007 -0.0292 -0.1861 -0.4462
 7966TIP3    H145389   1.727   4.049   1.100 -0.5765  0.1734 -0.3187
 7966TIP3    H245390   1.782   4.058   0.959  0.2171 -0.1630 -0.0289
 7967TIP3   OH245391   6.534   3.231  15.925  0.1061 -0.1271  0.4142
 7967TIP3    H145392   6.611   3.267  15.969  0.5487  0.5870 -0.9084
 7967TIP3    H245393   6.564   3.148  15.890  0.3181  0.2143 -0.2176
 7968TIP3   OH245394   6.169   1.129   5.677 -0.0959  0.1661  0.6281
 7968TIP3    H145395   6.253   1.116   5.633 -0.4562  1.6588 -0.5298
 7968TIP3    H245396   6.178   1.213   5.722 -0.8138  0.1052  0.8950
 7969TIP3   OH245397   3.890   5.221   5.495  0.4627 -0.3158  0.5940
 7969TIP3    H145398   3.890   5.218   5.591 -0.8504 -0.1596  0.6052
 7969TIP3    H245399   3.959   5.284   5.474  0.2234  0.2558  1.4597
 7970TIP3   OH245400   0.635   3.707   4.894  0.8445 -0.1448 -0.2047
 7970TIP3    H145401   0.591   3.788   4.871 -0.2665 -0.6418  0.1552
 7970TIP3    H245402   0.651   3.664   4.810  1.1573  0.3004 -0.3738
 7971TIP3   OH245403   4.782   1.018  13.509 -0.0956 -0.3888  0.0472
 7971TIP3    H145404   4.763   0.928  13.534 -1.1885 -0.2222 -0.1613
 7971TIP3    H245405   4.696   1.056  13.489  0.4043  0.5476 -0.3481
 7972TIP3   OH245406   2.972   1.809  11.867 -0.2791 -0.0108  0.7556
 7972TIP3    H145407   3.016   1.746  11.923  1.9269  0.6051 -0.2298
 7972TIP3    H245408   2.921   1.756  11.805  1.0416 -0.8240  0.3508
 7973TIP3   OH245409   6.499   2.945  13.059 -0.0238  0.4984  0.0324
 7973TIP3    H145410   6.481   2.975  13.148 -1.4797 -0.2499  0.0026
 7973TIP3    H245411   6.487   2.850  13.062  1.8209  0.2273 -0.5217
 7974TIP3   OH245412   0.008   1.436  15.772  0.1352  0.0277 -0.1053
 7974TIP3    H145413  -0.047   1.491  15.715  0.0898 -1.6932 -1.7866
 7974TIP3    H245414  -0.032   1.349  15.767  1.0540 -0.4953  1.3401
 7975TIP3   OH245415   1.995   5.060   4.264  0.1597 -0.7565  0.7910
 7975TIP3    H145416   1.990   4.975   4.219  0.0794 -1.8696  2.8068
 7975TIP3    H245417   1.906   5.076   4.296  0.1285  0.2029  0.2320
 7976TIP3   OH245418   5.693   1.778   2.219  0.4220  0.5186 -0.2937
 7976TIP3    H145419   5.609   1.807   2.184  0.7993  0.6474 -1.0961
 7976TIP3    H245420   5.687   1.795   2.313 -1.5210 -2.0036  0.1216
 7977TIP3   OH245421   6.079   4.737   0.999  0.0308 -0.1656 -0.1597
 7977TIP3    H145422   6.119   4.651   0.990 -0.2816 -0.3847  0.5122
 7977TIP3    H245423   6.010   4.725   1.065  0.8318  0.8768  0.8950
 7978TIP3   OH245424   3.338   5.623   3.606  0.3302  0.9478  0.0617
 7978TIP3    H145425   3.360   5.574   3.686  0.3595  0.8307 -0.0186
 7978TIP3    H245426   3.420   5.661   3.578  0.7067 -0.5823 -0.9876
 7979TIP3   OH245427   1.433   5.791  16.098  0.1057  0.3608 -0.0918
 7979TIP3    H145428   1.417   5.700  16.124  1.7045  0.2495  0.5706
 7979TIP3    H245429   1.504   5.820  16.155 -1.2218  2.4265  0.5397
 7980TIP3   OH245430   4.272   5.455  11.773 -0.1614 -0.6905  0.9594
 7980TIP3    H145431   4.215   5.397  11.723  1.0994 -1.7030  0.6740
 7980TIP3    H245432   4.253   5.542  11.739 -0.2369 -1.2258 -0.3784
 7981TIP3   OH245433   2.015   4.101  16.436 -0.4209 -0.2165  0.0059
 7981TIP3    H145434   2.031   4.174  16.496 -0.7195  0.6026 -0.9107
 7981TIP3    H245435   1.920   4.099  16.425 -0.6360 -2.1286  1.7347
 7982TIP3   OH245436   5.006   4.534  13.088  0.1610 -0.5753 -0.2223
 7982TIP3    H145437   4.933   4.536  13.026  2.0681  1.9926 -2.5129
 7982TIP3    H245438   5.080   4.502  13.036  1.8054  1.6507  0.6950
 7983TIP3   OH245439   1.328   1.892  12.914 -0.5717 -0.1972  0.1797
 7983TIP3    H145440   1.350   1.803  12.938 -0.7843 -0.3430 -0.1543
 7983TIP3    H245441   1.386   1.947  12.966 -1.9040 -0.4566  1.9785
 7984TIP3   OH245442   4.549   3.252   5.912 -0.4262  0.4101  0.0466
 7984TIP3    H145443   4.595   3.171   5.932 -0.7442  0.5885  1.6052
 7984TIP3    H245444   4.604   3.321   5.950  0.1131  0.9901 -1.7260
 7985TIP3   OH245445   4.811   1.989  12.914  0.4024  0.3424  0.9111
 7985TIP3    H145446   4.779   2.074  12.944  0.0919  1.0631 -1.4016
 7985TIP3    H245447   4.734   1.945  12.879  1.3558  1.0449 -2.2747
 7986TIP3   OH245448   0.014   2.977   3.704 -0.5159  0.4340  0.4443
 7986TIP3    H145449   0.077   2.980   3.632 -0.6741 -0.0233  0.2834
 7986TIP3    H245450  -0.042   3.053   3.690 -0.6664  0.2384 -0.0327
 7987TIP3   OH245451   1.478   3.756  14.603  0.3915  1.0547 -0.5224
 7987TIP3    H145452   1.433   3.676  14.576  0.6766  0.8977 -0.5388
 7987TIP3    H245453   1.411   3.823  14.601 -0.3135  0.4413  1.3682
 7988TIP3   OH245454   1.566   3.006  13.159  0.2376  0.4065 -0.2106
 7988TIP3    H145455   1.617   2.969  13.087 -0.6893 -0.4366 -0.4465
 7988TIP3    H245456   1.622   2.995  13.236 -0.1415 -1.7858 -0.2241
 7989TIP3   OH245457   4.352   5.546   1.936 -0.0119 -0.3343  0.6788
 7989TIP3    H145458   4.312   5.506   1.859  3.3149 -2.6166  0.0331
 7989TIP3    H245459   4.361   5.639   1.913 -0.9439 -0.6066 -0.8336
 7990TIP3   OH245460   0.843   2.464   5.915  0.3311  0.1780  0.2729
 7990TIP3    H145461   0.839   2.438   5.823 -0.0082  1.4989 -0.0849
 7990TIP3    H245462   0.795   2.395   5.961 -1.4570  0.6787 -0.7933
 7991TIP3   OH245463   5.725   3.590   1.521  0.3692 -0.2619 -0.8098
 7991TIP3    H145464   5.650   3.645   1.498  0.4893  0.6146  0.8132
 7991TIP3    H245465   5.797   3.623   1.468  0.0306  0.0486 -1.0753
 7992TIP3   OH245466   0.955   6.266  12.434  0.0121 -0.5110 -0.4679
 7992TIP3    H145467   0.984   6.177  12.458  1.7874  0.4857  1.2754
 7992TIP3    H245468   1.030   6.322  12.455 -1.3971  1.5202 -0.7157
 7993TIP3   OH245469   0.537   4.505  10.694  0.1566 -0.4232  0.3193
 7993TIP3    H145470   0.546   4.481  10.602 -0.1092 -2.6494  0.8357
 7993TIP3    H245471   0.627   4.522  10.723  0.1310  1.3774 -0.6118
 7994TIP3   OH245472   5.614   0.840   1.358  0.3038  0.0412  0.4546
 7994TIP3    H145473   5.693   0.886   1.330  1.0799 -1.7924 -0.4961
 7994TIP3    H245474   5.563   0.829   1.277 -0.9251  1.1609  1.0515
 7995TIP3   OH245475   1.877   4.594  16.640  0.5658  0.0260 -0.7201
 7995TIP3    H145476   1.816   4.663  16.614  0.1262 -0.0466  0.1239
 7995TIP3    H245477   1.962   4.639  16.648  0.1639  0.6036  0.4271
 7996TIP3   OH245478   5.637   5.774  11.101  0.6646  0.7126  0.0536
 7996TIP3    H145479   5.567   5.726  11.055  0.8356  0.0983  0.4318
 7996TIP3    H245480   5.592   5.848  11.142  0.5092  1.2839 -1.1266
 7997TIP3   OH245481   5.445   2.748  16.304 -0.0132  0.0731 -0.2398
 7997TIP3    H145482   5.495   2.677  16.344 -2.4914 -0.9465  1.1679
 7997TIP3    H245483   5.480   2.828  16.343  1.6126 -0.4704 -0.5375
 7998TIP3   OH245484   2.070   6.741  14.563 -0.0018  0.6558 -0.0804
 7998TIP3    H145485   2.119   6.807  14.513 -1.0165  2.3284  1.0799
 7998TIP3    H245486   2.025   6.689  14.496  1.5071  0.5631 -1.0455
 7999TIP3   OH245487   6.507   5.350  14.577 -0.3791 -0.2537  0.4967
 7999TIP3    H145488   6.539   5.302  14.654 -1.3542 -1.3612  0.2293
 7999TIP3    H245489   6.585   5.388  14.538  0.3408 -1.1189  1.0740
 8000TIP3   OH245490   2.399   4.779   1.592  0.8358  0.4781 -0.5570
 8000TIP3    H145491   2.427   4.730   1.670 -1.4640  1.4491  0.9335
 8000TIP3    H245492   2.346   4.716   1.542  0.9266  0.3581 -0.5021
 8001TIP3   OH245493   2.308   4.435  13.767  0.0259  0.1775  0.0535
 8001TIP3    H145494   2.265   4.514  13.734  1.7200  1.1346  0.1275
 8001TIP3    H245495   2.314   4.378  13.690 -2.9704 -0.7393  0.4022
 8002TIP3   OH245496   5.380   1.265   1.915 -0.2975 -0.0729 -0.0065
 8002TIP3    H145497   5.410   1.208   1.844  0.9088 -0.9492  1.1632
 8002TIP3    H245498   5.418   1.351   1.895  0.5934 -0.4778 -0.0767
 8003TIP3   OH245499   2.852   0.680   3.278  0.0623  0.7754 -0.4024
 8003TIP3    H145500   2.836   0.641   3.364  0.2763  0.8630 -0.3226
 8003TIP3    H245501   2.773   0.729   3.258 -1.4142 -2.0221 -1.7794
 8004TIP3   OH245502   3.346   1.957  17.243 -0.2835 -0.3456  0.4232
 8004TIP3    H145503   3.265   1.993  17.279  0.2623  0.9641  0.3966
 8004TIP3    H245504   3.400   1.938  17.320 -0.5140 -0.9522  0.4307
 8005TIP3   OH245505   1.176   5.625   5.058 -0.0358 -0.2038 -0.0347
 8005TIP3    H145506   1.086   5.607   5.085 -0.1576  0.8126  0.2506
 8005TIP3    H245507   1.223   5.544   5.075 -0.7483 -0.5111  0.4888
 8006TIP3   OH245508   5.416   2.911   5.307 -0.1593  0.3170 -0.2153
 8006TIP3    H145509   5.332   2.953   5.325  0.2830  1.5359 -0.9510
 8006TIP3    H245510   5.430   2.925   5.213  0.3485 -0.8317 -0.3106
 8007TIP3   OH245511   2.719   3.072  13.524  0.1934 -0.2563 -0.2126
 8007TIP3    H145512   2.669   3.089  13.604 -0.5799 -2.1866 -0.2621
 8007TIP3    H245513   2.693   3.143  13.465  0.1285  0.7079  0.9382
 8008TIP3   OH245514   1.046   4.551   2.689 -0.2485  0.2020  0.2897
 8008TIP3    H145515   0.982   4.552   2.617  0.3019  1.5614 -0.1888
 8008TIP3    H245516   1.015   4.481   2.746 -0.2612 -1.4577 -1.6665
 8009TIP3   OH245517   6.681   2.745  15.135  0.0841 -0.0568 -0.2738
 8009TIP3    H145518   6.612   2.752  15.201 -0.4011 -1.9839 -0.5391
 8009TIP3    H245519   6.713   2.654  15.143  2.0013  0.5438 -0.7319
 8010TIP3   OH245520   1.895   1.364   3.314 -0.2355 -0.4635  0.4588
 8010TIP3    H145521   1.884   1.335   3.405 -1.5068  1.3537  0.9139
 8010TIP3    H245522   1.985   1.396   3.309 -0.1320 -0.6655  1.0454
 8011TIP3   OH245523   1.249   0.391  12.716 -0.3398  0.4165 -0.0692
 8011TIP3    H145524   1.226   0.299  12.718 -0.8063  0.5256 -0.3647
 8011TIP3    H245525   1.171   0.436  12.748  0.6189  0.5782  2.1704
 8012TIP3   OH245526   4.825   1.258  12.116 -0.9826  0.0595 -0.1981
 8012TIP3    H145527   4.836   1.182  12.173 -0.9203 -0.1098 -0.4383
 8012TIP3    H245528   4.884   1.324  12.152  0.2377 -0.5759 -1.0036
 8013TIP3   OH245529   0.014   3.124   0.489 -0.4943 -0.4478  0.0376
 8013TIP3    H145530   0.058   3.046   0.455  0.0361 -0.0549 -0.1830
 8013TIP3    H245531   0.083   3.190   0.495 -0.8972 -0.0563  0.4282
 8014TIP3   OH245532   2.071   5.562   4.569  0.8052  0.2233  0.5139
 8014TIP3    H145533   2.079   5.597   4.480 -0.2852  0.5641  0.5452
 8014TIP3    H245534   2.069   5.467   4.558  4.5004  0.0791  0.4750
 8015TIP3   OH245535   5.456   3.153  10.941  0.6471 -0.2791  0.1840
 8015TIP3    H145536   5.394   3.225  10.948  0.1468 -0.6506 -0.3479
 8015TIP3    H245537   5.517   3.166  11.014  1.0840  1.1768 -0.4158
 8016TIP3   OH245538   5.283   4.803  16.981 -0.2514  0.1964 -0.2055
 8016TIP3    H145539   5.279   4.815  17.076  1.5828  2.9667 -0.4379
 8016TIP3    H245540   5.348   4.733  16.968  0.0057  0.3001  0.5351
 8017TIP3   OH245541   1.233   1.114  15.646 -0.0049 -0.3780  0.4625
 8017TIP3    H145542   1.234   1.177  15.573 -1.6167  0.5448  1.2007
 8017TIP3    H245543   1.287   1.155  15.713  0.7159 -0.7947  0.1403
 8018TIP3   OH245544   0.848   0.444  11.756 -0.0954  0.2040 -0.3636
 8018TIP3    H145545   0.877   0.442  11.665 -0.5609 -1.6532 -0.5057
 8018TIP3    H245546   0.843   0.351  11.781  1.3411  0.7165  1.9619
 8019TIP3   OH245547   2.359   0.058  12.696  0.2914 -0.2834 -0.2147
 8019TIP3    H145548   2.368  -0.035  12.675  1.9993 -0.1223 -0.3277
 8019TIP3    H245549   2.415   0.102  12.631 -1.1458  0.8896 -0.6734
 8020TIP3   OH245550   0.302   3.489  16.138 -0.9176 -0.4366  0.0229
 8020TIP3    H145551   0.231   3.487  16.203 -1.4690 -0.7985 -0.5893
 8020TIP3    H245552   0.362   3.421  16.167  0.2596  1.2702  1.7490
 8021TIP3   OH245553   0.321   0.652  10.943 -0.1259  0.5438 -0.6840
 8021TIP3    H145554   0.301   0.745  10.956 -2.3253 -0.1007  0.8080
 8021TIP3    H245555   0.286   0.631  10.857  0.8736  1.2085 -1.2646
 8022TIP3   OH245556   6.693   2.738  12.036  0.7551  0.1213  0.0841
 8022TIP3    H145557   6.678   2.811  11.976  1.9515  0.1116 -0.2522
 8022TIP3    H245558   6.637   2.756  12.112 -0.4662  0.3407 -0.8560
 8023TIP3   OH245559   3.794   6.803   4.670  0.1542  0.0450 -0.3054
 8023TIP3    H145560   3.744   6.873   4.629 -2.2941 -1.4747 -0.0601
 8023TIP3    H245561   3.823   6.748   4.597 -1.0267 -0.6420 -0.2635
 8024TIP3   OH245562   2.409   5.676   4.360 -0.2213 -0.3536 -0.1717
 8024TIP3    H145563   2.324   5.639   4.336 -0.9255 -0.1498  1.9440
 8024TIP3    H245564   2.468   5.600   4.365 -0.7496 -0.7364  0.3115
 8025TIP3   OH245565   2.385   4.585   2.857  0.1963 -0.6078  0.1639
 8025TIP3    H145566   2.419   4.498   2.837  1.2432  0.1672 -1.5569
 8025TIP3    H245567   2.462   4.636   2.882 -0.4101 -0.1809  1.1870
 8026TIP3   OH245568   4.560   3.370  16.018  0.3501  0.0654  0.2199
 8026TIP3    H145569   4.537   3.447  15.965  2.2812 -1.6249 -3.2396
 8026TIP3    H245570   4.480   3.318  16.020  0.3430 -0.0160 -1.4068
 8027TIP3   OH245571   0.530   5.908  13.729  0.1486 -0.2129 -0.0168
 8027TIP3    H145572   0.488   5.852  13.663 -1.3702 -0.8423  1.4275
 8027TIP3    H245573   0.460   5.927  13.791  1.7743 -0.3537  1.8850
 8028TIP3   OH245574   6.092   2.853   3.727  0.5429 -0.2772 -0.3103
 8028TIP3    H145575   6.176   2.839   3.685  0.7306 -0.7483  0.2221
 8028TIP3    H245576   6.043   2.908   3.665  1.3873  0.3434 -0.4272
 8029TIP3   OH245577   0.441   3.293  16.244 -0.6710 -0.1996  0.0109
 8029TIP3    H145578   0.422   3.270  16.335  0.7734 -0.5870  0.2202
 8029TIP3    H245579   0.534   3.274  16.233 -0.9634 -0.7465 -1.7240
 8030TIP3   OH245580   2.617   6.740   4.790  0.0822 -0.1152  0.1907
 8030TIP3    H145581   2.531   6.699   4.782 -0.7164  1.7828 -1.4348
 8030TIP3    H245582   2.669   6.700   4.720  0.3782 -0.8798  0.8393
 8031TIP3   OH245583   5.141   1.553   0.145  0.1861  0.0812  0.0459
 8031TIP3    H145584   5.215   1.508   0.106 -0.9978 -1.4209 -0.5290
 8031TIP3    H245585   5.089   1.484   0.185 -0.1060  1.2935  1.7964
 8032TIP3   OH245586   1.547   0.175   0.254  0.4979 -0.2523 -0.1552
 8032TIP3    H145587   1.481   0.137   0.312  1.1099  0.7303  1.2181
 8032TIP3    H245588   1.499   0.240   0.202 -0.2114 -1.6972 -1.3224
 8033TIP3   OH245589   4.388   5.126  16.542  0.1928  0.3654 -0.2485
 8033TIP3    H145590   4.431   5.202  16.504  1.2755 -0.4367 -0.6500
 8033TIP3    H245591   4.305   5.119  16.493  0.8509  0.2951 -1.3727
 8034TIP3   OH245592   1.681   0.276  12.432  0.1456 -0.2344 -0.5157
 8034TIP3    H145593   1.684   0.180  12.429 -1.7224 -0.4477  2.3810
 8034TIP3    H245594   1.593   0.296  12.464  0.9484  2.4269  0.1713
 8035TIP3   OH245595   1.331   6.674  15.303  0.3581  0.1559  0.3209
 8035TIP3    H145596   1.392   6.601  15.295  0.1256 -0.1774  1.5845
 8035TIP3    H245597   1.382   6.751  15.275  0.8121 -0.3766 -0.3368
 8036TIP3   OH245598   0.456   5.683  16.212 -0.1059 -0.5293  0.3089
 8036TIP3    H145599   0.551   5.685  16.225  0.0256 -0.0799 -0.6881
 8036TIP3    H245600   0.435   5.771  16.181 -0.8053 -0.7327  0.2084
 8037TIP3   OH245601   4.910   0.284  11.285 -0.2618  0.0073 -0.6370
 8037TIP3    H145602   4.976   0.306  11.351  0.6203  0.7507 -1.7376
 8037TIP3    H245603   4.831   0.329  11.314 -0.9233 -2.6148  1.8471
 8038TIP3   OH245604   3.858   5.371   3.144 -0.4938  0.9949 -0.5130
 8038TIP3    H145605   3.819   5.422   3.214  0.2223 -0.1546  0.7375
 8038TIP3    H245606   3.800   5.384   3.069 -1.2879  2.1876  0.3048
 8039TIP3   OH245607   5.812   1.752  16.114  0.4152 -0.2010 -0.8164
 8039TIP3    H145608   5.809   1.838  16.156 -0.4701 -0.4590 -0.3440
 8039TIP3    H245609   5.788   1.769  16.023 -3.3847 -0.4272  0.0717
 8040TIP3   OH245610   5.768   5.719  15.060  0.0671  0.0833  0.1394
 8040TIP3    H145611   5.823   5.778  15.110 -0.1408  0.0272  0.4400
 8040TIP3    H245612   5.689   5.708  15.113  0.2764 -0.7866  0.2852
 8041TIP3   OH245613   2.094   0.759   1.783  0.0285 -0.2581  0.2113
 8041TIP3    H145614   2.119   0.691   1.845  1.7114  0.5272  0.4153
 8041TIP3    H245615   2.156   0.751   1.711 -1.7908 -1.0292 -1.2989
 8042TIP3   OH245616   3.779   1.603   4.463  0.6552  0.2251 -0.1523
 8042TIP3    H145617   3.767   1.615   4.558 -0.1103 -1.4876 -0.0133
 8042TIP3    H245618   3.866   1.638   4.445  1.3927 -0.7353  1.4368
 8043TIP3   OH245619   3.388   4.354   2.771 -0.0829  0.1045  0.1929
 8043TIP3    H145620   3.327   4.302   2.823  1.9213 -2.4528  0.1014
 8043TIP3    H245621   3.455   4.381   2.834 -0.7517  2.0212  0.0939
 8044TIP3   OH245622   4.333   4.954  12.628 -0.2209 -0.5721 -0.5945
 8044TIP3    H145623   4.257   4.911  12.588 -1.2921  0.5417  0.1927
 8044TIP3    H245624   4.371   5.006  12.558 -2.5022  1.9255 -0.0758
 8045TIP3   OH245625   6.456   0.439  13.364 -0.2154 -0.8442  0.0463
 8045TIP3    H145626   6.428   0.368  13.307 -1.4564 -0.1693 -0.1914
 8045TIP3    H245627   6.464   0.399  13.451 -2.6963 -0.8873  0.2838
 8046TIP3   OH245628   2.877   5.637  13.399  0.2432 -0.3928  0.3364
 8046TIP3    H145629   2.930   5.711  13.372  0.5372 -1.1806 -1.2866
 8046TIP3    H245630   2.791   5.653  13.361  0.1648 -0.6186  0.4146
 8047TIP3   OH245631   1.281   4.350   0.000 -0.1783 -0.3784 -0.7631
 8047TIP3    H145632   1.310   4.402  -0.074 -0.7022 -0.7078 -1.2033
 8047TIP3    H245633   1.356   4.295   0.022  0.1436  0.0729 -0.7299
 8048TIP3   OH245634   4.817   6.650  11.138 -0.3760 -0.0775  0.1445
 8048TIP3    H145635   4.767   6.577  11.176  1.7556 -0.7256  1.8052
 8048TIP3    H245636   4.796   6.725  11.194  0.7356 -0.4232  1.0344
 8049TIP3   OH245637   4.925   1.100  13.033 -0.3252 -0.0847  0.1241
 8049TIP3    H145638   4.909   1.017  13.078 -2.1078  0.3776  0.3526
 8049TIP3    H245639   4.994   1.142  13.084 -0.4718 -0.7526  0.8804
 8050TIP3   OH245640   0.281   4.528  13.817  0.0438  0.7180  0.6396
 8050TIP3    H145641   0.308   4.611  13.857  0.9460  0.2760  0.9676
 8050TIP3    H245642   0.265   4.550  13.726 -1.9979  1.7292  1.2169
 8051TIP3   OH245643   6.710   5.572   1.442  0.2317 -0.1549 -0.1343
 8051TIP3    H145644   6.643   5.505   1.457  1.1708 -1.0862  0.0195
 8051TIP3    H245645   6.728   5.607   1.530  0.5456 -0.4939 -0.0638
 8052TIP3   OH245646   3.504   1.601   2.861 -0.0525  0.2818  0.3773
 8052TIP3    H145647   3.565   1.669   2.834  0.7571 -0.4728  0.2674
 8052TIP3    H245648   3.421   1.625   2.821 -0.1261  1.9469  1.4841
 8053TIP3   OH245649   5.340   0.127  13.308 -0.1186 -0.2635 -0.7236
 8053TIP3    H145650   5.251   0.090  13.300  0.4999 -1.7800 -0.8007
 8053TIP3    H245651   5.351   0.140  13.402 -1.2867  2.1817 -0.8762
 8054TIP3   OH245652   4.441   0.515   4.100 -0.2197 -0.2490  0.3749
 8054TIP3    H145653   4.458   0.439   4.044 -0.0832  0.2477 -0.2555
 8054TIP3    H245654   4.391   0.575   4.045 -0.4497  0.0556  0.9200
 8055TIP3   OH245655   6.593   1.259   1.884  0.0842 -0.3056 -0.5358
 8055TIP3    H145656   6.584   1.323   1.954  0.7809 -0.7367 -0.0473
 8055TIP3    H245657   6.536   1.186   1.910  1.0066 -0.8365  0.0165
 8056TIP3   OH245658   6.335   3.138  15.056  0.1629  0.0474  0.7007
 8056TIP3    H145659   6.320   3.076  15.127 -1.6460 -0.4805 -0.1120
 8056TIP3    H245660   6.263   3.201  15.063 -0.0795 -0.0527 -0.6902
 8057TIP3   OH245661   5.409   1.394   5.976  0.1422  0.0405  0.3977
 8057TIP3    H145662   5.455   1.383   6.059  0.9802  0.7647  0.0396
 8057TIP3    H245663   5.317   1.407   6.001  0.2566 -0.6209  1.1567
 8058TIP3   OH245664   2.159   5.438  13.786  0.1010 -0.1909 -0.1465
 8058TIP3    H145665   2.136   5.427  13.694 -0.3678 -0.5150  0.0080
 8058TIP3    H245666   2.248   5.472  13.785 -0.6109  1.7273 -0.7809
 8059TIP3   OH245667   3.750   3.407  16.218 -0.6492  0.3708  0.0065
 8059TIP3    H145668   3.817   3.398  16.150 -2.0047  0.5556 -1.3734
 8059TIP3    H245669   3.735   3.501  16.224 -2.8189  0.1718 -1.7283
 8060TIP3   OH245670   3.197   1.294  10.605  0.1461  0.0824  0.0297
 8060TIP3    H145671   3.255   1.225  10.571 -2.5266 -1.8511 -0.7986
 8060TIP3    H245672   3.186   1.354  10.531 -2.1339 -1.7568 -1.1831
 8061TIP3   OH245673   1.494   1.964   5.438 -0.2765 -0.0841 -0.7962
 8061TIP3    H145674   1.541   1.948   5.520  0.7968 -0.4918 -1.4798
 8061TIP3    H245675   1.416   1.908   5.444 -0.9038  0.9102  0.5244
 8062TIP3   OH245676   0.021   5.452   3.358 -0.2116  0.0461  0.2954
 8062TIP3    H145677   0.096   5.448   3.299 -0.4172  0.9095 -0.0235
 8062TIP3    H245678   0.034   5.531   3.410  0.0500 -0.7910  1.5329
 8063TIP3   OH245679   1.624   3.702  14.352 -0.0778  0.4805  0.2271
 8063TIP3    H145680   1.556   3.671  14.292 -0.0061 -0.7751  0.7897
 8063TIP3    H245681   1.583   3.698  14.439  0.2179  1.1532  0.4054
 8064TIP3   OH245682   4.831   1.602  16.956  0.1419  0.3831 -0.1403
 8064TIP3    H145683   4.878   1.655  17.021 -2.4614 -1.9891  3.8706
 8064TIP3    H245684   4.752   1.653  16.937 -0.9018 -0.6062  1.4419
 8065TIP3   OH245685   4.242   6.775  15.368  0.8323 -0.0690  0.1821
 8065TIP3    H145686   4.162   6.729  15.393  0.9935 -0.3911  0.1057
 8065TIP3    H245687   4.264   6.829  15.444 -0.7472  1.8140 -0.6375
 8066TIP3   OH245688   3.506   5.037   1.013 -0.5890  0.5700 -0.3117
 8066TIP3    H145689   3.525   5.023   1.106 -0.6256  1.0008 -0.2381
 8066TIP3    H245690   3.446   4.966   0.989  0.9008 -0.6625 -0.4830
 8067TIP3   OH245691   3.231   6.402  15.062 -0.1532  0.2407  0.0492
 8067TIP3    H145692   3.262   6.374  15.148 -0.8992 -1.4231 -0.2071
 8067TIP3    H245693   3.306   6.387  15.004 -0.6290 -1.5172 -0.1328
 8068TIP3   OH245694   3.580   1.210   3.790 -0.1573 -0.4133  0.2263
 8068TIP3    H145695   3.654   1.258   3.828 -0.0261 -0.1780 -0.3115
 8068TIP3    H245696   3.509   1.222   3.852 -0.1208  0.4820  0.1073
 8069TIP3   OH245697   1.987   1.674  15.936 -0.1623 -0.1561  0.2508
 8069TIP3    H145698   1.966   1.735  15.865 -1.0437 -1.6190 -0.7708
 8069TIP3    H245699   1.934   1.596  15.917  0.4383 -0.9843  1.9005
 8070TIP3   OH245700   6.373   4.395   0.814  0.5230 -0.0298  0.2353
 8070TIP3    H145701   6.448   4.406   0.873  0.1065  0.4965  0.6715
 8070TIP3    H245702   6.299   4.429   0.863 -0.0988 -1.0392  0.0102
 8071TIP3   OH245703   3.076   2.933  12.815 -0.0936  0.3542  0.4490
 8071TIP3    H145704   3.012   2.927  12.887  0.2401  2.8655  1.0075
 8071TIP3    H245705   3.161   2.927  12.859  0.1104  1.8968  0.3113
 8072TIP3   OH245706   1.760   2.007   3.129 -0.5834 -0.4879  0.3055
 8072TIP3    H145707   1.832   2.032   3.072 -0.7713 -0.4348  0.0896
 8072TIP3    H245708   1.775   1.914   3.147 -0.1898 -0.3585  0.6621
 8073TIP3   OH245709   4.637   6.597  12.089  0.1639 -0.1418  0.3356
 8073TIP3    H145710   4.672   6.647  12.015  0.1097  1.5307  1.4162
 8073TIP3    H245711   4.585   6.527  12.049 -2.2965  2.4689 -1.1963
 8074TIP3   OH245712   5.312   1.758   0.390 -0.1375 -0.7722  0.1236
 8074TIP3    H145713   5.351   1.812   0.321 -0.7700  1.6962  1.6323
 8074TIP3    H245714   5.239   1.714   0.348 -0.9623  1.2638 -0.6533
 8075TIP3   OH245715   1.126   0.242   3.199  0.2242 -0.3239 -0.3118
 8075TIP3    H145716   1.142   0.328   3.236 -2.6761 -0.0370  0.3408
 8075TIP3    H245717   1.068   0.198   3.262  3.6772 -3.7642  0.7103
 8076TIP3   OH245718   5.366   1.821  15.359 -0.5893  0.0279 -0.3528
 8076TIP3    H145719   5.292   1.809  15.419  1.4031 -0.9696  2.0355
 8076TIP3    H245720   5.374   1.915  15.349 -2.2851  0.1401 -0.7703
 8077TIP3   OH245721   4.355   0.554   5.794  0.0411  0.1434 -0.3592
 8077TIP3    H145722   4.338   0.540   5.887  1.9563  0.1097 -0.0013
 8077TIP3    H245723   4.370   0.648   5.786 -0.0653  0.1377 -0.6302
 8078TIP3   OH245724   5.688   5.614  15.617 -0.1427 -0.2273 -0.2198
 8078TIP3    H145725   5.762   5.606  15.555 -0.0601 -1.2622  0.0018
 8078TIP3    H245726   5.729   5.609  15.703 -0.4127 -0.2057 -0.0917
 8079TIP3   OH245727   3.946   3.471  14.957 -0.4453  0.4699 -0.0987
 8079TIP3    H145728   3.916   3.414  15.027 -0.4361  1.0211  0.3534
 8079TIP3    H245729   4.036   3.443  14.940 -1.1142 -1.0475 -1.3137
 8080TIP3   OH245730   1.375   1.906  16.499 -0.2682 -0.1918 -0.2473
 8080TIP3    H145731   1.412   1.964  16.433 -0.9375  1.1875  0.5715
 8080TIP3    H245732   1.442   1.839  16.513  0.3107  0.1070 -1.5467
 8081TIP3   OH245733   3.624   0.577  11.417 -0.0884  0.0170  0.4403
 8081TIP3    H145734   3.616   0.672  11.429 -0.8466  0.2590 -1.7484
 8081TIP3    H245735   3.709   0.564  11.375  0.1846 -0.3059  1.0914
 8082TIP3   OH245736   4.133   3.405   1.232 -0.1449  0.5210  0.0070
 8082TIP3    H145737   4.103   3.459   1.305 -1.4175  1.8754 -1.4858
 8082TIP3    H245738   4.136   3.316   1.267 -0.5565  1.1813  1.7499
 8083TIP3   OH245739   0.774   2.867  14.972 -0.0989 -0.3971 -0.1766
 8083TIP3    H145740   0.790   2.807  14.898 -2.9476  0.3335 -1.4409
 8083TIP3    H245741   0.680   2.883  14.970  0.0537  1.1030  2.5292
 8084TIP3   OH245742   5.252   0.197   2.977  0.0749  0.0422 -0.1612
 8084TIP3    H145743   5.218   0.112   3.003  0.7841  0.2013  1.3064
 8084TIP3    H245744   5.174   0.253   2.971 -0.1846 -0.2064  0.8347
 8085TIP3   OH245745   0.281   5.775  10.872 -0.3535 -0.5017  1.0692
 8085TIP3    H145746   0.314   5.847  10.925  0.0152  1.2459 -1.4341
 8085TIP3    H245747   0.190   5.798  10.854 -0.1562 -0.4836  0.0339
 8086TIP3   OH245748   0.773   5.520  10.455  0.0785 -0.8850  0.1954
 8086TIP3    H145749   0.827   5.591  10.422  1.4351 -1.4589  1.1094
 8086TIP3    H245750   0.835   5.464  10.503 -1.0825 -2.3215  0.0249
 8087TIP3   OH245751   0.871   1.509   0.002 -0.3021 -0.0602 -0.4048
 8087TIP3    H145752   0.903   1.488   0.090 -1.2774 -0.4182 -0.1215
 8087TIP3    H245753   0.949   1.511  -0.052  0.1045 -1.8778  0.0710
 8088TIP3   OH245754   3.893   2.376  12.641 -0.1865  0.1328  0.0861
 8088TIP3    H145755   3.804   2.378  12.607  0.8308  2.8091 -2.7282
 8088TIP3    H245756   3.895   2.442  12.710 -0.1247  0.9170 -0.6554
 8089TIP3   OH245757   1.891   3.961   3.356 -0.2450  0.1213 -0.1812
 8089TIP3    H145758   1.976   3.954   3.399 -0.2613 -0.5865 -0.2653
 8089TIP3    H245759   1.905   3.925   3.269 -0.9399 -1.1373  0.2252
 8090TIP3   OH245760   2.885   0.508  13.621 -0.0052 -0.6736 -0.0613
 8090TIP3    H145761   2.850   0.548  13.700  0.6228 -0.3386  0.0475
 8090TIP3    H245762   2.812   0.456  13.586  0.4132 -2.7184  1.9944
 8091TIP3   OH245763   2.923   0.475   3.862  0.5701 -0.3548 -0.3556
 8091TIP3    H145764   2.964   0.511   3.941 -1.4144  0.0235  0.5195
 8091TIP3    H245765   2.988   0.488   3.793 -0.1370  5.2543 -0.1916
 8092TIP3   OH245766   3.981   0.993  14.762  0.5329 -0.2926 -0.4907
 8092TIP3    H145767   3.993   1.087  14.751  1.4132 -0.4803 -1.1989
 8092TIP3    H245768   3.890   0.977  14.734  0.0661  0.4760  0.5643
 8093TIP3   OH245769   5.565   1.644  11.272  0.7729 -0.2873 -0.0584
 8093TIP3    H145770   5.613   1.563  11.291  1.0264 -0.2598 -0.5823
 8093TIP3    H245771   5.558   1.646  11.177 -0.7951 -0.5909  0.0275
 8094TIP3   OH245772   0.422   2.825  14.705  0.5961 -0.2794 -0.0098
 8094TIP3    H145773   0.488   2.894  14.705  0.5914 -0.1505  3.5014
 8094TIP3    H245774   0.349   2.862  14.655  1.5048  1.3326 -0.1925
 8095TIP3   OH245775   3.971   4.845   5.972 -0.1809  0.0870 -0.3548
 8095TIP3    H145776   4.003   4.833   6.062 -0.3633  0.1892 -0.2780
 8095TIP3    H245777   3.921   4.926   5.975 -2.8124 -1.5225  0.1552
 8096TIP3   OH245778   0.459   3.141   2.534  0.4507  0.4250 -0.1305
 8096TIP3    H145779   0.456   3.046   2.547  0.6794  0.3962 -0.2766
 8096TIP3    H245780   0.458   3.151   2.438  0.3205  0.5725 -0.1124
 8097TIP3   OH245781   0.191   5.154  13.822  0.6231  0.0522 -0.1653
 8097TIP3    H145782   0.181   5.238  13.778 -0.2659 -0.2830 -0.6154
 8097TIP3    H245783   0.153   5.090  13.761 -1.1545 -0.3522  1.3221
 8098TIP3   OH245784   4.809   6.228   0.495  0.1604 -0.0986 -0.0651
 8098TIP3    H145785   4.896   6.210   0.531  0.6327  2.0352 -0.0905
 8098TIP3    H245786   4.814   6.319   0.464 -1.8105 -0.2400 -0.8686
 8099TIP3   OH245787   2.519   5.297   5.643 -0.6432 -0.8824 -0.8980
 8099TIP3    H145788   2.477   5.355   5.580 -2.1624 -2.2082 -1.1450
 8099TIP3    H245789   2.477   5.317   5.727  0.8856  0.3903 -0.4087
 8100TIP3   OH245790   4.637   6.259   2.439  0.7233 -0.4029  0.3263
 8100TIP3    H145791   4.605   6.334   2.388  4.6011  0.2009 -1.3868
 8100TIP3    H245792   4.606   6.182   2.392  1.8036  0.1693 -1.3841
 8101TIP3   OH245793   3.613   2.127   6.184  0.2245  0.1740 -0.4496
 8101TIP3    H145794   3.542   2.174   6.228 -0.5448 -1.8425  0.5347
 8101TIP3    H245795   3.658   2.080   6.254  0.8181 -0.7419 -1.4316
 8102TIP3   OH245796   5.013   0.018   0.395  0.1313 -0.3443  0.4868
 8102TIP3    H145797   4.918   0.023   0.391  0.1065 -1.8411 -1.6003
 8102TIP3    H245798   5.043   0.073   0.324  0.7870 -0.8658  0.3546
 8103TIP3   OH245799   0.120   1.470   0.501  0.0083 -0.5110 -0.4199
 8103TIP3    H145800   0.133   1.376   0.515  0.8288 -0.1300  1.5429
 8103TIP3    H245801   0.203   1.501   0.465  0.5068 -0.1768  0.9739
 8104TIP3   OH245802   4.974   0.724   2.266 -0.2934 -0.1220 -0.1960
 8104TIP3    H145803   5.058   0.763   2.291 -1.2254  2.2440 -0.6267
 8104TIP3    H245804   4.939   0.688   2.348 -1.3398  3.7494  1.1354
 8105TIP3   OH245805   2.707   0.157   5.157  0.4821 -0.2251  0.3442
 8105TIP3    H145806   2.644   0.215   5.114  1.1254  0.4171  0.2568
 8105TIP3    H245807   2.754   0.115   5.085  1.0215  0.2583  0.4112
 8106TIP3   OH245808   1.201   5.770  15.885  0.5697 -0.0276 -0.1122
 8106TIP3    H145809   1.201   5.829  15.810  0.1718  0.2796  0.1351
 8106TIP3    H245810   1.118   5.786  15.929  0.7112 -0.3621  0.2770
 8107TIP3   OH245811   3.125   3.293   5.461  0.2197 -0.6303 -0.7024
 8107TIP3    H145812   3.211   3.253   5.449 -0.2140 -2.1765  1.0594
 8107TIP3    H245813   3.085   3.242   5.532 -2.0546  0.2104 -1.3410
 8108TIP3   OH245814   0.451   6.451  17.016  0.1004  0.5275 -0.1488
 8108TIP3    H145815   0.543   6.451  16.990 -0.0156  0.3474 -0.5573
 8108TIP3    H245816   0.402   6.449  16.934 -0.2627 -0.0527  0.0769
 8109TIP3   OH245817   0.694   6.443   2.894 -0.7199  0.0548  0.3977
 8109TIP3    H145818   0.750   6.404   2.828  0.3080  1.5475  0.3599
 8109TIP3    H245819   0.607   6.448   2.853 -0.6509 -1.3232  0.0876
 8110TIP3   OH245820   3.917   5.915   4.044 -0.5048 -0.2467  0.8859
 8110TIP3    H145821   4.000   5.952   4.074 -0.9153  1.6686 -0.2488
 8110TIP3    H245822   3.931   5.896   3.952 -1.0358 -0.7826  0.9136
 8111TIP3   OH245823   6.817   2.422   5.721  0.1320 -0.1924 -0.5088
 8111TIP3    H145824   6.744   2.474   5.688  1.1113  1.5611  0.0478
 8111TIP3    H245825   6.783   2.333   5.723 -1.4913  0.3659 -1.7169
 8112TIP3   OH245826   4.927   4.971  11.302 -0.1546 -0.1840 -0.2151
 8112TIP3    H145827   4.926   5.061  11.336  0.1492 -0.0182 -0.6325
 8112TIP3    H245828   4.844   4.934  11.331  0.9716 -0.7229  2.4563
 8113TIP3   OH245829   3.180   0.632   5.584  0.4542  0.2414  0.2022
 8113TIP3    H145830   3.103   0.575   5.591  0.5361  0.2335  1.2465
 8113TIP3    H245831   3.143   0.720   5.570  0.2388  0.2502  0.7897
 8114TIP3   OH245832   1.659   5.232   1.378  0.0681  0.4482  0.0263
 8114TIP3    H145833   1.721   5.179   1.327 -0.1823  2.3835 -2.3570
 8114TIP3    H245834   1.573   5.208   1.344 -0.1490  1.3134 -0.0366
 8115TIP3   OH245835   1.826   3.392  15.145 -0.5602 -0.5536 -0.3600
 8115TIP3    H145836   1.916   3.420  15.133 -0.8336  0.2930 -0.4687
 8115TIP3    H245837   1.787   3.397  15.058 -0.8098 -0.5607 -0.2507
 8116TIP3   OH245838   0.401   4.047  12.964 -0.4598 -0.1728  0.4416
 8116TIP3    H145839   0.467   4.113  12.985  2.1917 -3.9109  4.5271
 8116TIP3    H245840   0.436   4.000  12.889  0.2095 -0.3891  0.8915
 8117TIP3   OH245841   2.461   6.299   1.754 -0.2519 -0.1962 -0.5011
 8117TIP3    H145842   2.490   6.365   1.816 -0.3412 -0.1757 -0.4799
 8117TIP3    H245843   2.429   6.350   1.679 -1.5260 -0.1753  0.0453
 8118TIP3   OH245844   5.229   5.420   3.134  0.1914  0.0945 -0.3511
 8118TIP3    H145845   5.248   5.511   3.160 -0.2851  0.6103 -1.7396
 8118TIP3    H245846   5.311   5.389   3.094  0.6939 -0.4544  1.0877
 8119TIP3   OH245847   1.251   5.986   0.892  0.1183  0.0876  0.4527
 8119TIP3    H145848   1.279   5.898   0.915  0.7865  0.3804  0.7705
 8119TIP3    H245849   1.163   5.975   0.856  0.3877 -0.7570  0.0604
 8120TIP3   OH245850   3.236   1.037  13.767  0.2026 -0.2378  0.6321
 8120TIP3    H145851   3.158   0.985  13.788 -0.6066  1.0706  0.9525
 8120TIP3    H245852   3.294   0.976  13.721 -0.6494 -1.4577  1.1317
 8121TIP3   OH245853   2.521   6.417   6.107  0.0088  0.2355  0.2205
 8121TIP3    H145854   2.560   6.501   6.085  0.3569  0.1128  0.3784
 8121TIP3    H245855   2.576   6.352   6.063  0.1629  0.0457  0.6995
 8122TIP3   OH245856   4.658   5.011   4.940  0.2695 -0.1896 -0.3368
 8122TIP3    H145857   4.685   5.007   5.032 -1.6026  0.7283  0.2913
 8122TIP3    H245858   4.683   5.099   4.912  0.2161 -0.2246 -0.4938
 8123TIP3   OH245859   2.971   5.140  12.808  0.1202 -0.2853  0.0673
 8123TIP3    H145860   2.995   5.224  12.769 -0.2685  0.0436  0.5220
 8123TIP3    H245861   2.889   5.158  12.855 -0.5145 -1.1711 -0.6836
 8124TIP3   OH245862   6.519   4.100   4.730  0.2681 -0.7738  0.1567
 8124TIP3    H145863   6.594   4.112   4.671  0.7339 -0.7433  0.7555
 8124TIP3    H245864   6.545   4.030   4.789  0.3606  0.1239  1.2101
 8125TIP3   OH245865   3.151   2.839  11.180  0.3886 -0.1743  0.4603
 8125TIP3    H145866   3.151   2.816  11.087 -0.9777 -1.0803  0.6745
 8125TIP3    H245867   3.086   2.909  11.187 -0.0545 -0.6264  0.8574
 8126TIP3   OH245868   1.012   2.414   2.599 -0.0152  0.5783  0.1716
 8126TIP3    H145869   0.921   2.438   2.583  0.0452  0.4512 -0.3680
 8126TIP3    H245870   1.057   2.436   2.518  0.6397  1.6557  0.8216
 8127TIP3   OH245871   5.256   4.940   1.506  0.0218  0.5627  0.6393
 8127TIP3    H145872   5.225   4.881   1.575  0.2419 -0.1202  0.1665
 8127TIP3    H245873   5.329   4.892   1.465 -0.2374  0.8726 -0.1936
 8128TIP3   OH245874   5.049   0.751  11.699 -0.4412 -0.3052 -0.1731
 8128TIP3    H145875   5.085   0.808  11.767 -0.1547 -1.7467  0.9102
 8128TIP3    H245876   5.125   0.723  11.648 -0.7785  1.6271 -1.7689
 8129TIP3   OH245877   6.215   1.734   3.686 -0.1244  0.3631  0.1186
 8129TIP3    H145878   6.154   1.748   3.758 -1.8008 -1.1432 -0.9810
 8129TIP3    H245879   6.302   1.746   3.726 -1.0584  0.7713  2.0953
 8130TIP3   OH245880   0.876   5.689  17.246 -0.3317  0.6878 -0.2324
 8130TIP3    H145881   0.965   5.685  17.211 -0.0930 -0.2283  0.4668
 8130TIP3    H245882   0.859   5.783  17.258  0.2226  0.9087 -1.1569
 8131TIP3   OH245883   3.643   2.513  15.851  0.3078  0.0761 -0.3893
 8131TIP3    H145884   3.706   2.441  15.838  0.1540 -0.1551  0.1384
 8131TIP3    H245885   3.698   2.591  15.861  0.4954 -0.0451 -0.4607
 8132TIP3   OH245886   2.631   0.563   1.138  0.4891  0.6389 -0.2627
 8132TIP3    H145887   2.713   0.586   1.182  0.5329 -0.3232  0.1825
 8132TIP3    H245888   2.564   0.617   1.182  0.6433  0.2276  0.4953
 8133TIP3   OH245889   6.325   2.466  10.984 -0.3273  0.1717 -0.2041
 8133TIP3    H145890   6.300   2.548  10.941  1.6922  1.5133  1.0491
 8133TIP3    H245891   6.411   2.445  10.948 -0.7916 -1.3478 -0.4365
 8134TIP3   OH245892   3.987   2.953   1.593  0.0775  0.2767 -0.0571
 8134TIP3    H145893   3.906   2.947   1.644 -0.1006 -1.8740 -0.5219
 8134TIP3    H245894   3.958   2.957   1.502  0.4897 -1.7934 -0.2991
 8135TIP3   OH245895   2.277   4.032   1.946 -0.2373  0.0257  0.6108
 8135TIP3    H145896   2.279   4.114   1.996  0.8780  0.7737 -0.6305
 8135TIP3    H245897   2.224   4.052   1.869  0.7602 -0.1495 -0.1346
 8136TIP3   OH245898   0.739   2.594  16.994 -0.0929  0.4905  0.4752
 8136TIP3    H145899   0.795   2.561  17.065  0.3809  0.7826  0.2366
 8136TIP3    H245900   0.800   2.617  16.924 -0.6683 -1.1846 -0.6042
 8137TIP3   OH245901   2.318   0.108   3.289  0.6132  0.0405 -0.1114
 8137TIP3    H145902   2.264   0.109   3.369  0.1715  2.1243 -0.4165
 8137TIP3    H245903   2.260   0.072   3.222  0.2919  0.2536  0.0489
 8138TIP3   OH245904   4.143   6.644   2.296  0.1591  0.0681  0.0662
 8138TIP3    H145905   4.214   6.707   2.313  0.6593 -0.3137 -0.6068
 8138TIP3    H245906   4.097   6.638   2.380 -0.4169  1.9830 -0.0798
 8139TIP3   OH245907   5.021   0.847  16.900  0.2749  0.0376  0.2513
 8139TIP3    H145908   5.030   0.832  16.994 -1.2900 -2.6342  0.0410
 8139TIP3    H245909   4.967   0.926  16.893  0.7158  0.4702  1.5859
 8140TIP3   OH245910   3.671   3.928  13.776 -0.0209  0.4195  0.5615
 8140TIP3    H145911   3.701   4.018  13.785  0.5778  0.4516 -1.6324
 8140TIP3    H245912   3.696   3.903  13.688 -1.3938 -1.4574  0.6855
 8141TIP3   OH245913   2.143   5.375   0.825 -0.2389 -0.2219  0.0556
 8141TIP3    H145914   2.225   5.329   0.810 -0.4581 -1.1898  1.7365
 8141TIP3    H245915   2.157   5.426   0.905 -0.7310  0.9270 -0.5680
 8142TIP3   OH245916   5.198   1.851   2.604 -0.0335  0.1055  0.6979
 8142TIP3    H145917   5.180   1.915   2.534 -2.0950 -1.1198  0.0756
 8142TIP3    H245918   5.273   1.801   2.571  0.4360  1.0088  0.3742
 8143TIP3   OH245919   2.366   2.349   3.180  0.2737  0.5468  0.5084
 8143TIP3    H145920   2.375   2.257   3.204 -0.4104  0.1964 -0.5590
 8143TIP3    H245921   2.306   2.385   3.246 -1.4376 -0.3650 -0.5047
 8144TIP3   OH245922   2.514   3.645   5.716  0.7873 -0.2399 -0.8198
 8144TIP3    H145923   2.603   3.620   5.690  1.5519  0.0882  1.3795
 8144TIP3    H245924   2.519   3.739   5.733  0.2623 -0.3872  0.2168
 8145TIP3   OH245925   6.284   0.378   1.812  0.0754 -0.3921  0.4815
 8145TIP3    H145926   6.282   0.303   1.871  0.0562 -1.4026 -0.7648
 8145TIP3    H245927   6.356   0.359   1.752 -0.8239 -0.1153 -0.7140
 8146TIP3   OH245928   0.160   1.989   1.334 -0.4223 -0.2748  0.7705
 8146TIP3    H145929   0.087   1.990   1.395 -0.2417 -0.6736  0.9919
 8146TIP3    H245930   0.142   2.062   1.274 -0.5773  0.1442  1.3223
 8147TIP3   OH245931   4.134   0.015   0.073 -0.1948  0.2654  0.5064
 8147TIP3    H145932   4.196   0.047   0.139  0.4120 -1.4354  0.8005
 8147TIP3    H245933   4.065  -0.028   0.125  1.0664 -2.4512  0.0416
 8148TIP3   OH245934   5.282   5.074  14.658  0.1539  0.0929  0.1937
 8148TIP3    H145935   5.365   5.088  14.703  0.3744  1.5482 -0.6570
 8148TIP3    H245936   5.299   4.999  14.601  1.3276  1.2954 -1.0600
 8149TIP3   OH245937   5.710   4.373   5.138  0.3830  0.1943 -0.1974
 8149TIP3    H145938   5.619   4.361   5.165 -0.2390  0.1103 -2.2510
 8149TIP3    H245939   5.705   4.430   5.061  2.1388  0.9255  0.2170
 8150TIP3   OH245940   1.408   5.085  13.886 -0.1986 -0.3143 -0.2982
 8150TIP3    H145941   1.377   5.073  13.976  1.1806  0.6099  0.3151
 8150TIP3    H245942   1.409   5.180  13.874  1.8468 -0.3355 -0.4821
 8151TIP3   OH245943   0.039   3.294   5.069 -0.6673 -0.4494  0.0284
 8151TIP3    H145944  -0.011   3.213   5.073 -0.0664 -0.8308 -0.0174
 8151TIP3    H245945   0.131   3.265   5.070 -0.4435  0.2789  1.0366
 8152TIP3   OH245946   2.326   0.269   4.571 -0.1788  0.3083  0.0788
 8152TIP3    H145947   2.319   0.267   4.475  2.8265 -0.9250 -0.1517
 8152TIP3    H245948   2.259   0.206   4.600 -0.8052  0.3399 -1.2230
 8153TIP3   OH245949   5.424   5.242  17.136  0.1801 -0.5504  0.6061
 8153TIP3    H145950   5.454   5.290  17.213  1.4991 -0.3258 -0.0365
 8153TIP3    H245951   5.372   5.305  17.086 -1.2285 -0.8869  1.6351
 8154TIP3   OH245952   2.656   5.351   3.907 -0.0383  0.5695  0.0681
 8154TIP3    H145953   2.744   5.374   3.876  0.2531  0.4548  0.7813
 8154TIP3    H245954   2.606   5.334   3.828  0.5662  0.7135 -0.3506
 8155TIP3   OH245955   4.049   1.162  16.934  0.2602 -0.3389 -0.2578
 8155TIP3    H145956   4.027   1.116  17.014  1.3073  1.4680  1.1004
 8155TIP3    H245957   4.093   1.242  16.963 -0.8134  1.1514 -2.5574
 8156TIP3   OH245958   0.148   4.225   0.509  0.5194 -0.0592  0.6717
 8156TIP3    H145959   0.181   4.281   0.580 -0.9583  1.4031  0.2537
 8156TIP3    H245960   0.053   4.239   0.511  0.3036 -1.3115 -0.5184
 8157TIP3   OH245961   4.017   0.737   0.667  0.0491  0.3773  0.2442
 8157TIP3    H145962   4.102   0.708   0.634 -0.0667 -0.5065  0.7053
 8157TIP3    H245963   3.975   0.777   0.591  1.5045  2.2699  0.4095
 8158TIP3   OH245964   0.293   0.330   0.563 -0.0009  0.0127 -0.7446
 8158TIP3    H145965   0.358   0.336   0.493  1.7824  1.0924  0.9289
 8158TIP3    H245966   0.261   0.420   0.573 -0.0886 -0.0911 -0.0665
 8159TIP3   OH245967   4.951   1.571   5.337 -0.2925  0.0195  0.8636
 8159TIP3    H145968   4.964   1.541   5.247  1.4366  0.0810  1.0712
 8159TIP3    H245969   4.895   1.648   5.328  0.9338  0.8067 -0.2999
 8160TIP3   OH245970   1.217   4.817   4.112 -0.4774 -0.4589 -0.1078
 8160TIP3    H145971   1.268   4.736   4.115 -1.4232 -1.0091  2.1561
 8160TIP3    H245972   1.225   4.847   4.021  0.5897 -2.6170 -0.7628
 8161TIP3   OH245973   1.755   4.479  12.577 -0.1508  0.3368 -0.0414
 8161TIP3    H145974   1.790   4.556  12.532 -2.5334  0.9268 -0.9648
 8161TIP3    H245975   1.669   4.507  12.609 -0.0044 -1.1968  1.7670
 8162TIP3   OH245976   0.127   4.152  16.482  0.0337  0.0150  0.0671
 8162TIP3    H145977   0.135   4.147  16.387 -0.7686 -0.2494  0.0085
 8162TIP3    H245978   0.042   4.112  16.501 -0.3892  1.2179  0.7847
 8163TIP3   OH245979   1.614   1.555  12.675 -0.2167 -0.5566  0.1740
 8163TIP3    H145980   1.630   1.484  12.613  0.3047  0.2781 -0.6582
 8163TIP3    H245981   1.596   1.632  12.620  1.1351  0.3942  1.0359
 8164TIP3   OH245982   5.636   6.016   4.299 -0.6604 -0.6138  0.4313
 8164TIP3    H145983   5.693   6.046   4.229 -1.1726  1.0011  0.6900
 8164TIP3    H245984   5.623   5.922   4.282  1.2988 -0.7867 -0.1428
 8165TIP3   OH245985   2.995   5.164  12.150 -0.2088 -0.3813  0.3166
 8165TIP3    H145986   2.969   5.249  12.113 -0.1882 -1.5876 -2.5680
 8165TIP3    H245987   3.079   5.181  12.192 -0.1931  1.0420 -0.2576
 8166TIP3   OH245988   4.205   1.700   0.020  0.3498  0.4757 -1.0417
 8166TIP3    H145989   4.242   1.623   0.064 -1.1689  0.6287  0.5532
 8166TIP3    H245990   4.262   1.772   0.047 -0.7738  0.6345  1.0516
 8167TIP3   OH245991   4.469   3.591   2.872  0.7095  0.1477  0.4570
 8167TIP3    H145992   4.534   3.637   2.926  1.3144  0.7114 -0.7381
 8167TIP3    H245993   4.437   3.520   2.929  0.7315  1.2274  1.8380
 8168TIP3   OH245994   1.456   0.241   4.734  0.1193  0.3391 -0.1999
 8168TIP3    H145995   1.483   0.156   4.770 -1.9902  0.2345  1.1901
 8168TIP3    H245996   1.445   0.224   4.640  0.0214 -0.8479  0.0153
 8169TIP3   OH245997   1.816   2.080   0.885  0.3087 -0.1527  0.1338
 8169TIP3    H145998   1.899   2.043   0.855  0.7312  0.6886  0.2504
 8169TIP3    H245999   1.749   2.025   0.845  0.9418 -1.2918  0.6369
 8170TIP3   OH246000   1.465   2.492  13.820 -0.0410  0.6334 -0.0252
 8170TIP3    H146001   1.494   2.560  13.881  3.3400  0.6743 -1.5750
 8170TIP3    H246002   1.481   2.529  13.733 -0.0593 -1.3543 -0.9020
 8171TIP3   OH246003   2.671   6.697  12.755  0.4265 -0.2721  0.2305
 8171TIP3    H146004   2.750   6.732  12.714  0.2876  0.3159  0.4565
 8171TIP3    H246005   2.600   6.722  12.695  0.2246  0.5853  0.8206
 8172TIP3   OH246006   3.185   5.618  15.773 -0.5074 -0.1613 -0.4411
 8172TIP3    H146007   3.141   5.545  15.730 -0.5239 -0.8241  0.6890
 8172TIP3    H246008   3.115   5.679  15.794 -0.8326 -1.0127  0.9568
 8173TIP3   OH246009   2.377   4.752   0.336 -0.4701 -0.7446 -0.4043
 8173TIP3    H146010   2.342   4.749   0.247  1.3292 -0.0300 -1.1625
 8173TIP3    H246011   2.392   4.845   0.353 -0.5078 -0.9028  0.5359
 8174TIP3   OH246012   6.699   1.734   3.595  0.1854  0.1636  0.1355
 8174TIP3    H146013   6.717   1.692   3.679  1.7740 -0.3511 -0.4410
 8174TIP3    H246014   6.612   1.701   3.571  0.3131 -0.7963  0.9125
 8175TIP3   OH246015   3.457   3.975  12.892 -0.2693 -0.1560  0.4767
 8175TIP3    H146016   3.445   3.880  12.890  0.2146 -0.2175  0.4001
 8175TIP3    H246017   3.425   4.005  12.807 -2.4003 -0.0069  1.3048
 8176TIP3   OH246018   2.112   0.708  13.101  0.1418 -0.0855  0.3518
 8176TIP3    H146019   2.125   0.636  13.162  2.2882 -1.2730 -1.4330
 8176TIP3    H246020   2.200   0.741  13.084 -0.4801  0.6225 -1.6023
 8177TIP3   OH246021   5.986   2.968  12.240  0.0460 -0.5366  0.1753
 8177TIP3    H146022   6.007   2.895  12.181 -1.9592 -1.7995  0.9892
 8177TIP3    H246023   6.019   2.940  12.325 -0.0041 -0.1162  0.3331
 8178TIP3   OH246024   3.681   0.180  16.163  0.0477  0.0427 -0.6110
 8178TIP3    H146025   3.722   0.181  16.250 -1.3646 -1.1397  0.0818
 8178TIP3    H246026   3.676   0.087  16.140 -2.0158  0.1735 -0.7833
 8179TIP3   OH246027   2.361   3.694  13.816  0.1462 -0.1051  0.3699
 8179TIP3    H146028   2.423   3.765  13.836  0.0320  0.3927 -0.9796
 8179TIP3    H246029   2.337   3.708  13.724 -1.6607 -0.5369  0.7529
 8180TIP3   OH246030   3.551   6.101   0.764  0.1086 -0.7586  0.6295
 8180TIP3    H146031   3.546   6.174   0.703 -1.9769  1.5324  3.4161
 8180TIP3    H246032   3.618   6.126   0.827 -0.4053 -1.3937  1.4397
 8181TIP3   OH246033   2.680   1.640  15.995  0.5796 -0.1304 -0.5308
 8181TIP3    H146034   2.686   1.676  15.906 -0.6536  1.8753  0.1655
 8181TIP3    H246035   2.763   1.663  16.036  1.7279 -2.2745 -1.5651
 8182TIP3   OH246036   3.112   0.929  10.613  0.5082 -0.3991  0.2994
 8182TIP3    H146037   3.193   0.980  10.607  0.0684  0.3406  0.5420
 8182TIP3    H246038   3.042   0.995  10.613 -0.0862 -1.0260  0.1933
 8183TIP3   OH246039   6.302   1.752   0.967  0.5442 -0.8450  0.5241
 8183TIP3    H146040   6.390   1.748   1.003  1.1847 -1.8662 -1.1263
 8183TIP3    H246041   6.281   1.662   0.941 -1.0800 -0.6629  1.1355
 8184TIP3   OH246042   5.691   2.368   5.210 -0.0089 -0.6309  0.3030
 8184TIP3    H146043   5.738   2.307   5.267 -0.9714 -1.7159 -0.0449
 8184TIP3    H246044   5.626   2.409   5.267  0.8441  0.3361  0.6127
 8185TIP3   OH246045   2.511   5.281   4.158  0.0377  0.2029  0.4362
 8185TIP3    H146046   2.578   5.258   4.093  1.0124 -0.3098  1.5981
 8185TIP3    H246047   2.551   5.258   4.242 -2.2813 -1.7818  1.0441
 8186TIP3   OH246048   0.325   0.262  15.645 -0.1466  0.0973  0.5654
 8186TIP3    H146049   0.392   0.305  15.592  0.7684 -0.8843  0.9016
 8186TIP3    H246050   0.316   0.318  15.723  0.5450  0.0433  0.6853
 8187TIP3   OH246051   1.102   2.581  11.405 -0.1976 -0.2460 -0.3185
 8187TIP3    H146052   1.084   2.546  11.493 -1.1183  1.3285  0.1453
 8187TIP3    H246053   1.194   2.608  11.409 -0.3561  0.2220  0.3143
 8188TIP3   OH246054   2.633   1.437   3.873 -0.3938 -0.1725 -0.0217
 8188TIP3    H146055   2.629   1.447   3.778  1.1173 -1.1744 -0.2071
 8188TIP3    H246056   2.684   1.513   3.903 -0.1260 -0.3223 -0.0987
 8189TIP3   OH246057   0.999   0.703   2.696 -0.4140  0.1915 -0.1957
 8189TIP3    H146058   1.083   0.678   2.658  0.6332  2.3054  0.6696
 8189TIP3    H246059   1.013   0.700   2.791 -0.9392  1.7250 -0.0518
 8190TIP3   OH246060   6.333   0.153   4.130 -0.1956 -0.5693  0.0332
 8190TIP3    H146061   6.270   0.138   4.060 -1.6463 -1.4933  1.5129
 8190TIP3    H246062   6.302   0.232   4.174 -0.1476 -0.8354  0.5544
 8191TIP3   OH246063   4.817   2.112   5.277 -0.3903  0.1428  0.2675
 8191TIP3    H146064   4.872   2.144   5.349 -0.1553  1.1134 -0.3412
 8191TIP3    H246065   4.816   2.017   5.288  0.1452  0.2401  1.1932
 8192TIP3   OH246066   0.548   1.038  12.178  0.0032 -0.0244  0.9719
 8192TIP3    H146067   0.638   1.007  12.178  0.5938  1.6494  0.6319
 8192TIP3    H246068   0.514   1.013  12.092  0.4972  0.3594  0.6639
 8193TIP3   OH246069   2.555   0.538  13.658 -0.3915  0.4104 -0.4585
 8193TIP3    H146070   2.473   0.495  13.682  0.4956  1.2605  4.5802
 8193TIP3    H246071   2.594   0.479  13.594 -3.7867 -1.1999 -1.1811
 8194TIP3   OH246072   0.953   3.384  16.277 -0.1942 -0.6981 -0.3504
 8194TIP3    H146073   0.940   3.372  16.183 -2.9097  0.0131 -0.0991
 8194TIP3    H246074   0.902   3.314  16.317  0.1858 -0.4205  0.6368
 8195TIP3   OH246075   0.340   0.812  16.336  0.2775  0.0397  0.0969
 8195TIP3    H146076   0.327   0.725  16.374  2.3363 -0.7217 -0.8570
 8195TIP3    H246077   0.257   0.833  16.295 -0.4744 -1.1562  0.9680
 8196TIP3   OH246078   2.076   3.696  11.801  0.5060  0.2007  0.4598
 8196TIP3    H146079   2.003   3.648  11.760 -0.6751  2.3116 -0.0053
 8196TIP3    H246080   2.047   3.787  11.801  2.1496  0.7476  2.5170
 8197TIP3   OH246081   0.517   5.531  12.992  0.3874 -0.2979  0.4258
 8197TIP3    H146082   0.605   5.562  13.013 -0.0625  0.8359  0.6532
 8197TIP3    H246083   0.509   5.542  12.897  0.6558 -0.8360  0.3393
 8198TIP3   OH246084   0.082   2.800  15.394 -0.1566 -0.7644 -0.2869
 8198TIP3    H146085   0.125   2.853  15.461  1.9523 -1.1774 -1.2479
 8198TIP3    H246086  -0.007   2.833  15.390  0.5231  1.2623  0.6259
 8199TIP3   OH246087   3.631   4.873  14.025  0.7400 -0.2099 -0.0399
 8199TIP3    H146088   3.726   4.866  14.026  0.6443 -1.7135 -0.0246
 8199TIP3    H246089   3.613   4.955  13.979  2.0123 -0.6904 -1.4183
 8200TIP3   OH246090   6.084   6.732   3.656  0.2047 -0.5649 -0.3903
 8200TIP3    H146091   6.179   6.717   3.649  0.4828  0.7216  0.4236
 8200TIP3    H246092   6.060   6.770   3.571  0.9310  1.5915  0.3253
 8201TIP3   OH246093   5.397   6.044   4.504  0.0085 -0.0725  0.2468
 8201TIP3    H146094   5.386   5.950   4.490 -1.5119 -0.2130  2.2120
 8201TIP3    H246095   5.491   6.059   4.493  0.5536 -2.1554  1.8332
 8202TIP3   OH246096   5.595   3.475  14.125  0.0521  0.3832 -0.4563
 8202TIP3    H146097   5.586   3.436  14.212  1.1577  1.6218  0.2406
 8202TIP3    H246098   5.528   3.543  14.122  0.9642  1.3341  0.0249
 8203TIP3   OH246099   6.206   1.289  13.228  0.2085  0.6951 -0.1776
 8203TIP3    H146100   6.152   1.251  13.158 -0.8177  1.7485  0.0306
 8203TIP3    H246101   6.296   1.285  13.193 -0.1305 -0.0124 -0.9992
 8204TIP3   OH246102   2.600   4.018   1.756 -0.1671  0.5629 -0.1957
 8204TIP3    H146103   2.549   4.066   1.691 -0.5167 -0.5381 -0.7476
 8204TIP3    H246104   2.677   3.988   1.707  0.3744  1.1340  0.3109
 8205TIP3   OH246105   6.579   2.414  16.184  0.5531 -0.1441  0.3147
 8205TIP3    H146106   6.665   2.456  16.174 -0.2651  1.4960  0.1276
 8205TIP3    H246107   6.555   2.390  16.094  0.9813 -0.9621  0.4118
 8206TIP3   OH246108   2.021   4.257  11.522 -0.1340 -0.3524  0.4187
 8206TIP3    H146109   2.021   4.352  11.532 -1.4990 -0.3845  0.8379
 8206TIP3    H246110   2.107   4.236  11.486  0.8247  0.8678  1.9505
 8207TIP3   OH246111   1.516   4.367   2.594  0.1593 -0.1857 -0.3701
 8207TIP3    H146112   1.537   4.327   2.510 -0.4720 -1.5323  0.0994
 8207TIP3    H246113   1.424   4.344   2.609 -1.2457  4.0957 -1.5731
 8208TIP3   OH246114   1.563   4.631   5.684  0.1700  0.2474 -0.4552
 8208TIP3    H146115   1.515   4.666   5.609 -0.6062  0.1499 -0.0101
 8208TIP3    H246116   1.495   4.606   5.746  0.8364  1.6788  0.8875
 8209TIP3   OH246117   3.872   5.875  12.743 -0.2666 -0.1882 -0.3588
 8209TIP3    H146118   3.881   5.892  12.836  2.8068 -1.5710 -0.3200
 8209TIP3    H246119   3.887   5.960  12.701  1.5822 -0.1598  0.3184
 8210TIP3   OH246120   5.997   3.642  16.618  0.4242 -0.6138  0.0951
 8210TIP3    H146121   6.054   3.666  16.691  1.8570  0.1296 -1.2510
 8210TIP3    H246122   6.009   3.548  16.608 -3.1453 -1.6098  3.6249
 8211TIP3   OH246123   5.580   5.662   5.415  0.1431  0.0047 -0.2796
 8211TIP3    H146124   5.652   5.598   5.412 -0.7227 -0.9820 -0.1476
 8211TIP3    H246125   5.577   5.690   5.506  1.1805  1.0109 -0.5334
 8212TIP3   OH246126   4.554   3.940  16.354  0.4046  0.3332 -0.2446
 8212TIP3    H146127   4.564   3.907  16.443  0.4282  1.4016  0.1638
 8212TIP3    H246128   4.588   3.870  16.298 -1.1073 -1.0257  0.4860
 8213TIP3   OH246129   4.588   2.906  11.913  0.0930  0.2675 -0.0980
 8213TIP3    H146130   4.657   2.860  11.961 -0.1859 -0.1804 -0.1260
 8213TIP3    H246131   4.635   2.970  11.859  0.5204 -0.3276 -0.4394
 8214TIP3   OH246132   0.040   6.706   1.895  0.3070  0.1660  0.6028
 8214TIP3    H146133   0.029   6.622   1.938  0.1468  0.6871  1.6066
 8214TIP3    H246134  -0.021   6.765   1.940  2.0076  1.3555  1.4544
 8215TIP3   OH246135   1.586   0.515  11.752 -0.0156  0.1434 -0.0897
 8215TIP3    H146136   1.626   0.550  11.672  0.3575 -1.4481 -0.6197
 8215TIP3    H246137   1.539   0.437  11.723  3.1949 -2.6068  1.7689
 8216TIP3   OH246138   4.287   5.057   0.795  0.3670  0.6923 -0.0680
 8216TIP3    H146139   4.238   4.977   0.814  2.1924 -0.4831 -0.1962
 8216TIP3    H246140   4.233   5.104   0.731 -0.5062 -0.6472 -0.3256
 8217TIP3   OH246141   2.347   0.749  14.021  0.1510 -0.5906  0.3034
 8217TIP3    H146142   2.420   0.714  13.970 -0.1660 -2.3253  1.0096
 8217TIP3    H246143   2.367   0.726  14.112 -0.2490  0.7772  0.7535
 8218TIP3   OH246144   2.740   3.193   2.105  0.0210  0.5303  0.1040
 8218TIP3    H146145   2.783   3.268   2.146 -0.6714  1.5387 -0.9763
 8218TIP3    H246146   2.654   3.226   2.079 -0.9541 -1.1114  1.1176
 8219TIP3   OH246147   3.706   4.776  15.438  0.2155 -0.3792 -0.0088
 8219TIP3    H146148   3.793   4.751  15.469  1.6349  2.1115 -1.7859
 8219TIP3    H246149   3.704   4.871  15.447 -1.6104 -0.2235 -1.7723
 8220TIP3   OH246150   1.625   5.508   0.522  0.1559  0.1323  0.2416
 8220TIP3    H146151   1.580   5.547   0.447 -0.7615  0.2532  0.8470
 8220TIP3    H246152   1.679   5.439   0.484 -1.0360 -0.4401 -0.4367
 8221TIP3   OH246153   5.303   1.562   3.082  0.1602  0.3118 -0.1032
 8221TIP3    H146154   5.388   1.605   3.095 -0.0970  0.7876 -0.0002
 8221TIP3    H246155   5.323   1.486   3.027  0.2871  1.7939 -2.1785
 8222TIP3   OH246156   2.335   4.590   1.806 -0.3226  0.7554  0.5428
 8222TIP3    H146157   2.369   4.514   1.758 -2.5021 -0.2537  0.5355
 8222TIP3    H246158   2.350   4.568   1.898 -0.9783  0.2828  0.5425
 8223TIP3   OH246159   5.098   6.038  16.241  0.4058  0.2536 -0.6645
 8223TIP3    H146160   5.181   6.085  16.252 -0.6981  2.0809  0.1434
 8223TIP3    H246161   5.096   6.015  16.148  2.0203 -0.2173 -0.6034
 8224TIP3   OH246162   1.825   1.723  15.169  0.2516  0.0105  0.0079
 8224TIP3    H146163   1.816   1.628  15.153 -1.8372 -0.0991  1.7358
 8224TIP3    H246164   1.819   1.762  15.082  3.1253 -1.5512 -0.9617
 8225TIP3   OH246165   6.520   4.327  10.062  0.6914  0.0867  0.0914
 8225TIP3    H146166   6.513   4.240  10.101  0.7211 -0.6424 -1.4903
 8225TIP3    H246167   6.459   4.325   9.987  0.8109  1.3622 -0.0547
 8226TIP3   OH246168   0.992   3.651   3.180  0.7140  0.2891 -0.2577
 8226TIP3    H146169   1.023   3.562   3.195  2.4665  0.4873 -2.3279
 8226TIP3    H246170   1.067   3.707   3.201 -0.1481  1.2214  0.3728
 8227TIP3   OH246171   3.987   1.195   5.668  0.1184  0.4731  0.6732
 8227TIP3    H146172   3.899   1.159   5.669 -0.0522  0.8932  0.6908
 8227TIP3    H246173   4.039   1.131   5.619 -0.2106  0.2671  0.5962
 8228TIP3   OH246174   1.351   0.145  11.436 -0.0951  0.1566 -0.3360
 8228TIP3    H146175   1.348   0.087  11.359 -2.2224 -1.9183  1.2502
 8228TIP3    H246176   1.263   0.182  11.442 -0.0393  0.0546  1.2785
 8229TIP3   OH246177   2.000   6.058  13.964  0.1502 -0.1136 -0.2774
 8229TIP3    H146178   2.016   6.121  14.035 -0.1607 -0.1739 -0.1556
 8229TIP3    H246179   2.016   6.108  13.884  1.1883 -0.2337 -0.1512
 8230TIP3   OH246180   1.504   0.477   4.433 -0.8735  0.2636  0.2345
 8230TIP3    H146181   1.575   0.531   4.400 -1.0884  0.6316  0.3748
 8230TIP3    H246182   1.489   0.412   4.364 -1.4270  1.1226 -0.4563
 8231TIP3   OH246183   4.856   4.434   0.921  0.1863 -0.4240  0.0371
 8231TIP3    H146184   4.859   4.339   0.914  0.1701 -0.5243  1.2147
 8231TIP3    H246185   4.770   4.458   0.887  0.0798 -0.8542 -0.0000
 8232TIP3   OH246186   4.809   0.135  14.527 -0.0669  0.5886 -0.0174
 8232TIP3    H146187   4.779   0.173  14.444  0.2597  1.2692  0.1739
 8232TIP3    H246188   4.878   0.073  14.501  2.2385  3.0749 -0.0309
 8233TIP3   OH246189   3.463   6.081  14.134 -0.5392  0.2894  0.5785
 8233TIP3    H146190   3.488   6.036  14.214  1.1871 -0.2290 -0.2246
 8233TIP3    H246191   3.514   6.038  14.065 -1.3779  1.2594 -0.6744
 8234TIP3   OH246192   6.372   2.306  13.341 -0.0663 -0.0249 -0.0194
 8234TIP3    H146193   6.465   2.283  13.346  0.1348  0.3064 -1.6793
 8234TIP3    H246194   6.361   2.338  13.251 -1.8589 -0.3758  0.0664
 8235TIP3   OH246195   4.549   2.093  16.035 -0.1229  0.2190 -0.2785
 8235TIP3    H146196   4.600   2.143  16.099 -0.3516  1.2854 -0.9188
 8235TIP3    H246197   4.510   2.022  16.086  1.7069 -0.3942  0.2856
 8236TIP3   OH246198   3.401   6.346  11.124  0.2766 -0.2657 -0.5224
 8236TIP3    H146199   3.388   6.278  11.058 -1.3948  1.3053 -1.8621
 8236TIP3    H246200   3.322   6.342  11.179 -0.0436  0.9167 -0.9006
 8237TIP3   OH246201   0.999   4.621  11.663 -0.1824 -0.1458  0.3451
 8237TIP3    H146202   0.940   4.696  11.667  0.9318  0.7733 -0.0865
 8237TIP3    H246203   1.050   4.627  11.744 -1.2506 -1.4257  1.1277
 8238TIP3   OH246204   2.882   0.172  15.107 -0.3957  0.5405  0.2433
 8238TIP3    H146205   2.842   0.087  15.091 -1.8748  1.3535 -0.4797
 8238TIP3    H246206   2.974   0.153  15.124 -0.4025 -1.0623 -1.4364
 8239TIP3   OH246207   6.693   5.582  16.339  0.4678  0.5926  0.2424
 8239TIP3    H146208   6.741   5.621  16.266  1.1517  1.1627  0.9914
 8239TIP3    H246209   6.742   5.503  16.360 -0.0423  0.1302 -0.2595
 8240TIP3   OH246210   0.970   4.352   3.554 -0.1898  0.4371 -0.1716
 8240TIP3    H146211   0.978   4.389   3.466  0.9716 -1.0328 -0.7022
 8240TIP3    H246212   0.896   4.291   3.548 -0.2899  0.5447 -0.0465
 8241TIP3   OH246213   5.516   2.174   3.781  0.6146 -0.1117  0.4467
 8241TIP3    H146214   5.563   2.151   3.861 -0.6325  0.3155  1.3361
 8241TIP3    H246215   5.555   2.257   3.753 -0.2876  0.7803  1.7681
 8242TIP3   OH246216   1.535   6.512   1.667  0.0477  0.8724 -0.0300
 8242TIP3    H146217   1.454   6.517   1.618  0.2217  0.3232 -0.3811
 8242TIP3    H246218   1.540   6.421   1.697  0.7141  0.8024 -0.3318
 8243TIP3   OH246219   0.092   1.886  17.275  0.4448 -0.5396  0.3075
 8243TIP3    H146220   0.185   1.877  17.297  0.5313 -1.7368 -0.4717
 8243TIP3    H246221   0.086   1.968  17.227  1.4995 -1.5476 -1.6140
 8244TIP3   OH246222   4.977   4.181   1.726  0.1896  0.0994 -0.0643
 8244TIP3    H146223   4.964   4.207   1.634 -1.0677  0.4737  0.2100
 8244TIP3    H246224   5.071   4.189   1.739  0.2977  0.7658 -1.1229
 8245TIP3   OH246225   0.896   1.670  12.000 -0.4159  0.0188 -0.3024
 8245TIP3    H146226   0.854   1.601  11.949 -1.0288  1.2124 -1.4418
 8245TIP3    H246227   0.988   1.642  12.006 -0.9537 -1.6322  0.5489
 8246TIP3   OH246228   4.115   1.866  16.136  0.0605 -0.1026  0.1663
 8246TIP3    H146229   4.040   1.921  16.159  0.3121 -0.6439  2.3521
 8246TIP3    H246230   4.078   1.796  16.083 -0.7254  0.4495 -0.0312
 8247TIP3   OH246231   3.296   6.594   1.281  0.3616 -0.2809  0.1577
 8247TIP3    H146232   3.219   6.550   1.247  0.6978  0.3661 -1.5010
 8247TIP3    H246233   3.349   6.525   1.320 -0.7454 -0.8180  0.7170
 8248TIP3   OH246234   4.394   3.715  14.445 -0.1214 -0.1315  0.4928
 8248TIP3    H146235   4.411   3.783  14.380 -0.3618 -0.3974  0.1487
 8248TIP3    H246236   4.351   3.762  14.517  1.4769  0.4203  1.1037
 8249TIP3   OH246237   6.716   2.454  15.124 -0.4847 -0.4549 -0.2047
 8249TIP3    H146238   6.664   2.407  15.059  0.3574 -1.5004 -0.1356
 8249TIP3    H246239   6.794   2.400  15.136  0.4484  0.9077 -0.0318
 8250TIP3   OH246240   6.161   0.357  16.320  0.0654  0.4747 -0.0993
 8250TIP3    H146241   6.154   0.389  16.410  1.2426  2.0509 -0.5589
 8250TIP3    H246242   6.243   0.393  16.288  0.0668 -0.7710 -1.5454
 8251TIP3   OH246243   4.109   2.433   4.004  0.0773 -0.0374  0.0939
 8251TIP3    H146244   4.138   2.356   3.955 -0.2855 -1.1733  1.6456
 8251TIP3    H246245   4.182   2.495   3.994  0.6491 -0.8083 -0.6461
 8252TIP3   OH246246   5.189   3.271  14.327  0.0052  0.0735  1.0610
 8252TIP3    H146247   5.276   3.311  14.331 -0.7349  2.3231 -2.3653
 8252TIP3    H246248   5.193   3.199  14.389  3.6999  1.2525  2.3775
 8253TIP3   OH246249   2.748   1.867  13.403  0.6214  0.0162 -0.3015
 8253TIP3    H146250   2.772   1.958  13.387 -0.9480  0.2671 -1.3405
 8253TIP3    H246251   2.742   1.861  13.499 -2.0030  1.7617 -0.3042
 8254TIP3   OH246252   4.834   0.839   0.630  0.5390  0.0886  0.4571
 8254TIP3    H146253   4.806   0.881   0.711 -0.8601  0.4773 -0.2131
 8254TIP3    H246254   4.762   0.854   0.569  0.6389 -1.9945 -0.2371
 8255TIP3   OH246255   3.010   5.416   4.308  0.2295  0.0852  0.0734
 8255TIP3    H146256   3.082   5.467   4.345  0.0040 -0.4641  1.2943
 8255TIP3    H246257   2.932   5.469   4.327 -0.0826 -0.9799  1.9162
 8256TIP3   OH246258   3.027   5.143  13.512 -0.0174 -0.4020  0.0199
 8256TIP3    H146259   3.120   5.127  13.528 -0.4240 -2.4033  0.5082
 8256TIP3    H246260   2.982   5.079  13.566 -1.6886  0.1944 -0.6297
 8257TIP3   OH246261   3.535   0.703   0.603  0.1824 -0.2538 -0.5897
 8257TIP3    H146262   3.477   0.779   0.613 -0.1594 -0.5330 -0.4534
 8257TIP3    H246263   3.543   0.667   0.691  0.8047 -0.0409 -0.5570
 8258TIP3   OH246264   4.575   1.305  12.718  0.3057  0.0831 -0.8720
 8258TIP3    H146265   4.580   1.316  12.813  0.6368  0.0755 -0.8879
 8258TIP3    H246266   4.498   1.250  12.704 -1.0614  1.9136 -0.7638
 8259TIP3   OH246267   1.951   4.001   2.802 -0.2360 -0.2977 -0.1406
 8259TIP3    H146268   1.911   3.999   2.889 -0.3297  2.4922 -0.0625
 8259TIP3    H246269   1.883   3.967   2.744 -0.2294 -2.0338  0.8262
 8260TIP3   OH246270   3.457   6.524   5.361 -0.4606 -0.4823  0.2117
 8260TIP3    H146271   3.533   6.476   5.327 -0.4343 -1.3067  1.3911
 8260TIP3    H246272   3.383   6.492   5.310 -0.6049 -2.5621  1.6261
 8261TIP3   OH246273   0.789   6.609  15.424 -0.3767  0.1182  0.5096
 8261TIP3    H146274   0.811   6.516  15.427  0.2626  0.2576  0.1753
 8261TIP3    H246275   0.778   6.628  15.330  1.8648  0.9241  0.3900
 8262TIP3   OH246276   4.815   1.182  10.809 -0.0482 -0.0838 -0.4641
 8262TIP3    H146277   4.847   1.126  10.739 -0.0646 -1.1367  0.3673
 8262TIP3    H246278   4.720   1.180  10.800 -0.0267  0.3752 -0.8566
 8263TIP3   OH246279   1.148   3.039  12.194 -0.0007 -0.0001  0.4299
 8263TIP3    H146280   1.212   2.969  12.200 -1.0702 -0.9608  0.6693
 8263TIP3    H246281   1.176   3.103  12.260 -0.6309 -1.5037  2.1723
 8264TIP3   OH246282   3.186   3.092  17.050 -0.4697  0.1943  0.3234
 8264TIP3    H146283   3.116   3.124  17.107 -0.5589 -0.6521  0.6900
 8264TIP3    H246284   3.251   3.162  17.050 -0.6773  0.3932  1.1046
 8265TIP3   OH246285   4.643   4.292   1.139  0.1314  0.0898 -0.4946
 8265TIP3    H146286   4.675   4.249   1.218 -0.0273 -1.1132 -1.0708
 8265TIP3    H246287   4.552   4.263   1.132  0.1827  0.0992 -1.1881
 8266TIP3   OH246288   5.530   2.036  17.106  0.2345 -0.0656 -0.9248
 8266TIP3    H146289   5.488   2.121  17.124 -0.0949 -0.3191 -0.4952
 8266TIP3    H246290   5.496   1.978  17.173 -1.3044 -1.1335 -2.5980
 8267TIP3   OH246291   0.217   1.829   1.114 -0.4884  0.1623 -0.0472
 8267TIP3    H146292   0.169   1.753   1.147 -1.5311  1.0690  0.5832
 8267TIP3    H246293   0.233   1.883   1.191  1.3985 -0.0215 -0.2837
 8268TIP3   OH246294   3.093   6.429   1.178  0.5315  0.2528  0.1883
 8268TIP3    H146295   3.003   6.447   1.151 -0.0144 -0.7323  1.3119
 8268TIP3    H246296   3.096   6.334   1.188  1.5985  0.3209  0.5145
 8269TIP3   OH246297   4.921   5.191   5.472  0.3056  0.6184 -0.4280
 8269TIP3    H146298   4.871   5.263   5.436 -1.1022 -0.3820 -0.5030
 8269TIP3    H246299   4.949   5.141   5.395 -1.5764 -0.7765 -0.2363
 8270TIP3   OH246300   1.513   0.368  13.279  0.4212 -0.5941  0.1762
 8270TIP3    H146301   1.566   0.308  13.227 -1.2443 -1.8558 -0.1237
 8270TIP3    H246302   1.530   0.454  13.241 -1.1255 -1.5524 -2.8150
 8271TIP3   OH246303   3.679   1.864   0.956 -0.1206  0.2995  0.7819
 8271TIP3    H146304   3.743   1.865   1.027  0.3914 -1.0042  0.3485
 8271TIP3    H246305   3.706   1.937   0.899 -0.9062  1.7492  2.2113
 8272TIP3   OH246306   5.716   3.795  15.248  0.0761  0.0349  0.5424
 8272TIP3    H146307   5.723   3.890  15.235  0.7939 -0.1615 -0.5307
 8272TIP3    H246308   5.767   3.757  15.177 -0.3481 -1.1684  0.8684
 8273TIP3   OH246309   2.241   5.482   3.578  0.1249  0.3048 -0.0181
 8273TIP3    H146310   2.159   5.493   3.626 -0.6664 -1.0391 -1.0327
 8273TIP3    H246311   2.220   5.507   3.488  0.8054 -0.1331 -0.3023
 8274TIP3   OH246312   3.447   3.836   3.749  0.1217 -0.3843  0.2311
 8274TIP3    H146313   3.506   3.886   3.805  0.0853 -0.7645  0.5997
 8274TIP3    H246314   3.362   3.843   3.792  0.2875 -1.5096  0.7497
 8275TIP3   OH246315   3.503   5.642   0.489 -1.0832 -0.2542  0.2143
 8275TIP3    H146316   3.514   5.549   0.512 -0.6147  0.2093  1.9060
 8275TIP3    H246317   3.434   5.641   0.423 -1.2585 -1.7896  0.3851
 8276TIP3   OH246318   3.798   2.201   0.071 -0.0910  0.3145  0.2600
 8276TIP3    H146319   3.712   2.225   0.104 -0.7020  1.6801 -2.1999
 8276TIP3    H246320   3.780   2.145  -0.004  1.2637 -2.7164  2.0854
 8277TIP3   OH246321   4.006   3.676  12.652 -0.1006  0.5426  0.2042
 8277TIP3    H146322   3.929   3.701  12.704 -0.2707 -0.8040  0.6064
 8277TIP3    H246323   4.067   3.640  12.716  0.1071 -0.1430 -0.3736
 8278TIP3   OH246324   6.735   0.733   0.574  0.1569 -0.1802  0.5700
 8278TIP3    H146325   6.670   0.753   0.641  1.4052 -0.1195  1.7794
 8278TIP3    H246326   6.724   0.803   0.509 -2.3893 -1.3463 -0.3183
 8279TIP3   OH246327   2.820   6.486   6.823  0.0816  0.8769 -0.1606
 8279TIP3    H146328   2.754   6.508   6.889  0.5600  0.3203  0.5080
 8279TIP3    H246329   2.789   6.405   6.784 -0.1598  1.1630 -0.5682
 8280TIP3   OH246330   0.925   0.861   0.348  0.0558  0.7644 -0.1826
 8280TIP3    H146331   1.006   0.912   0.341  0.5042 -0.0501 -1.0518
 8280TIP3    H246332   0.954   0.770   0.350 -0.7535  0.5194  1.1225
 8281TIP3   OH246333   4.182   2.506  13.848 -0.3915  0.1703  0.5686
 8281TIP3    H146334   4.092   2.536  13.863 -0.8073 -0.1088 -1.2254
 8281TIP3    H246335   4.211   2.555  13.770  0.5106 -0.7761  0.2889
 8282TIP3   OH246336   6.354   1.530  13.735 -0.4745  0.1189 -0.6699
 8282TIP3    H146337   6.261   1.532  13.758 -0.6808 -0.3869 -1.4234
 8282TIP3    H246338   6.356   1.489  13.648  0.0844  3.6453 -2.4250
 8283TIP3   OH246339   1.541   5.936  16.322 -1.2361  0.0069 -0.2734
 8283TIP3    H146340   1.578   6.013  16.280  0.7329 -0.0385  1.2711
 8283TIP3    H246341   1.617   5.882  16.343 -2.4180 -1.3311  0.6314
 8284TIP3   OH246342   4.242   6.381  16.474 -0.3940 -0.7075  0.0521
 8284TIP3    H146343   4.307   6.334  16.526  0.8458 -0.7275 -1.4710
 8284TIP3    H246344   4.160   6.334  16.490  0.5490 -2.5228 -0.3307
 8285TIP3   OH246345   4.336   5.892  14.637  0.0762 -0.0210 -0.3070
 8285TIP3    H146346   4.298   5.820  14.688 -0.1089 -0.4465 -1.0420
 8285TIP3    H246347   4.308   5.971  14.683  2.3696 -0.4593  1.9918
 8286TIP3   OH246348   2.994   2.736  16.788 -0.0665 -0.2137  0.2450
 8286TIP3    H146349   2.938   2.811  16.766  0.6393  0.0664 -0.6616
 8286TIP3    H246350   2.961   2.704  16.872 -0.4550  1.0424  0.5779
 8287TIP3   OH246351   4.871   2.740   3.832  0.0601 -0.1068  0.4822
 8287TIP3    H146352   4.784   2.771   3.807 -0.0429  0.5515  1.6048
 8287TIP3    H246353   4.888   2.781   3.917  0.5759 -1.9245  1.2898
 8288TIP3   OH246354   2.299   6.352   6.262  0.0947 -0.8136  0.7045
 8288TIP3    H146355   2.362   6.379   6.195 -1.0576 -1.1000 -0.5185
 8288TIP3    H246356   2.261   6.434   6.294 -1.3137 -0.7740 -0.9569
 8289TIP3   OH246357   0.850   2.831   1.635 -0.1671 -0.3170  0.0861
 8289TIP3    H146358   0.792   2.853   1.708  0.3793 -0.4343  0.5533
 8289TIP3    H246359   0.792   2.829   1.559 -0.3291  2.2921  0.0951
 8290TIP3   OH246360   4.056   2.709  14.967 -0.4255  0.1623  0.1246
 8290TIP3    H146361   4.085   2.628  15.008 -1.4399  0.2653  1.0905
 8290TIP3    H246362   4.015   2.758  15.038 -2.3469  0.2920 -1.0276
 8291TIP3   OH246363   6.618   2.904  12.776  0.5111 -0.7029  0.3541
 8291TIP3    H146364   6.566   2.964  12.830  0.1306  1.2895 -2.1506
 8291TIP3    H246365   6.560   2.830  12.759 -0.5069  0.1933 -0.0740
 8292TIP3   OH246366   6.001   3.045  11.175 -0.5989  0.1304 -0.7739
 8292TIP3    H146367   6.047   3.129  11.183 -0.4312 -0.1054  1.0614
 8292TIP3    H246368   5.914   3.062  11.212 -0.8247 -0.3077 -1.1054
 8293TIP3   OH246369   0.628   6.350  13.547 -0.6628 -0.2360 -0.1648
 8293TIP3    H146370   0.715   6.382  13.569 -0.3440 -1.1618 -0.0611
 8293TIP3    H246371   0.602   6.401  13.470 -0.0526  0.0776 -0.1649
 8294TIP3   OH246372   0.155   6.443  12.974  0.4415 -0.4583  0.8945
 8294TIP3    H146373   0.248   6.462  12.985  0.3030  0.1237  1.0423
 8294TIP3    H246374   0.115   6.472  13.056 -0.3287  2.2285 -0.3841
 8295TIP3   OH246375   0.288   4.345  12.352  0.2988 -0.7603  0.1300
 8295TIP3    H146376   0.261   4.413  12.291  1.6287 -1.7301 -1.6130
 8295TIP3    H246377   0.354   4.387  12.407  0.5975 -0.4431 -0.4651
 8296TIP3   OH246378   5.507   3.852  16.981  0.3804 -0.2278  0.0517
 8296TIP3    H146379   5.483   3.865  17.073  1.7488  1.9368  0.1361
 8296TIP3    H246380   5.602   3.846  16.981  0.3906 -0.2722 -1.2289
 8297TIP3   OH246381   6.619   6.724  17.272  0.0722 -0.4165 -0.7957
 8297TIP3    H146382   6.701   6.682  17.245  0.1236  0.8723 -2.7891
 8297TIP3    H246383   6.602   6.788  17.203 -0.5546  2.0968  1.6195
 8298TIP3   OH246384   4.419   5.954  14.383  0.1618  0.6491  0.1550
 8298TIP3    H146385   4.509   5.987  14.384  0.8908 -1.2516  0.0627
 8298TIP3    H246386   4.402   5.929  14.474  0.7807 -1.6554 -0.3313
 8299TIP3   OH246387   3.735   6.078   1.809 -0.1097 -0.0914 -0.1958
 8299TIP3    H146388   3.756   6.003   1.754  1.9528 -0.1407  0.6335
 8299TIP3    H246389   3.746   6.154   1.752  0.4242 -0.2503 -0.3075
 8300TIP3   OH246390   3.890   4.143  16.621  0.4748  0.7505  0.1447
 8300TIP3    H146391   3.819   4.167  16.561 -0.4339  0.4446  1.0759
 8300TIP3    H246392   3.952   4.094  16.567 -1.1639 -0.9979 -0.2105
 8301TIP3   OH246393   6.550   5.102  14.768 -0.1970  0.1825  0.1599
 8301TIP3    H146394   6.624   5.047  14.795  0.0438  0.6876  0.5184
 8301TIP3    H246395   6.521   5.145  14.848  0.5886  1.7662 -0.3771
 8302TIP3   OH246396   2.851   3.780  16.009  0.2059 -0.1582  0.4205
 8302TIP3    H146397   2.818   3.694  16.033 -0.5808  0.3570  1.1945
 8302TIP3    H246398   2.801   3.803  15.931  1.6970 -1.1709 -0.8790
 8303TIP3   OH246399   1.047   5.990   4.060  0.0325  0.1964  0.2935
 8303TIP3    H146400   0.980   5.931   4.095 -0.9465  2.3848  2.2325
 8303TIP3    H246401   1.122   5.977   4.117  0.5953 -0.7693 -0.6456
 8304TIP3   OH246402   1.198   5.207  10.573 -0.7515  0.3617 -0.0315
 8304TIP3    H146403   1.239   5.286  10.607  3.0837  0.3136 -4.0721
 8304TIP3    H246404   1.254   5.135  10.603 -1.0211 -0.2713 -1.0079
 8305TIP3   OH246405   2.430   0.172   6.479  0.9779 -0.2745  0.0358
 8305TIP3    H146406   2.395   0.087   6.503  3.4289 -1.1879  0.5626
 8305TIP3    H246407   2.394   0.233   6.544 -3.0708 -0.3253 -2.0197
 8306TIP3   OH246408   1.081   1.606   3.706  0.1578  0.1676 -0.5126
 8306TIP3    H146409   1.034   1.538   3.658  2.5393 -2.3737  0.6729
 8306TIP3    H246410   1.139   1.645   3.640 -0.7357  0.6293 -1.0359
 8307TIP3   OH246411   4.935   3.175  11.700 -0.0764  0.2609  0.1171
 8307TIP3    H146412   4.990   3.163  11.777  0.5187  1.1949 -0.1651
 8307TIP3    H246413   4.994   3.164  11.626 -0.4458  0.3972 -0.1995
 8308TIP3   OH246414   2.371   1.206  16.550 -0.2844 -0.0455  0.1912
 8308TIP3    H146415   2.385   1.290  16.505 -0.8989  0.8639  1.6855
 8308TIP3    H246416   2.424   1.144  16.500  1.5379  1.5480  0.0747
 8309TIP3   OH246417   2.598   6.218   2.095  0.1920  0.6467  0.3526
 8309TIP3    H146418   2.558   6.162   2.029 -1.4883 -0.0138  1.8664
 8309TIP3    H246419   2.571   6.307   2.071 -1.7703  0.2559  1.0394
 8310TIP3   OH246420   0.631   2.630  13.604 -0.2194 -0.4709 -0.1549
 8310TIP3    H146421   0.541   2.607  13.580 -0.4502  0.4616 -0.2118
 8310TIP3    H246422   0.645   2.715  13.563  0.9637 -0.9675 -0.7887
 8311TIP3   OH246423   1.948   4.408   2.031 -0.0170 -0.6425 -0.3053
 8311TIP3    H146424   1.896   4.487   2.017 -0.0564 -0.5014  0.5686
 8311TIP3    H246425   1.956   4.368   1.945 -1.4698 -0.5965 -0.4660
 8312TIP3   OH246426   6.737   1.460  13.846  0.0256  0.3365 -0.5197
 8312TIP3    H146427   6.737   1.505  13.930  0.5519 -0.0805 -0.2952
 8312TIP3    H246428   6.653   1.413  13.843 -0.3428  0.9933 -0.5764
 8313TIP3   OH246429   4.137   0.302  12.367  0.2918  0.0155  0.0963
 8313TIP3    H146430   4.187   0.361  12.310  0.4093  0.7938  0.9999
 8313TIP3    H246431   4.050   0.341  12.371 -0.8686 -2.0951 -2.6302
 8314TIP3   OH246432   1.940   2.575  16.683  0.2536 -0.1857 -0.3163
 8314TIP3    H146433   1.997   2.609  16.752 -1.1015  1.5697 -0.0267
 8314TIP3    H246434   1.990   2.588  16.602  0.9773 -0.2955  0.1049
 8315TIP3   OH246435   5.634   4.614   2.614 -0.0453  0.1111 -0.5264
 8315TIP3    H146436   5.636   4.536   2.558 -0.6810  0.0302 -0.4322
 8315TIP3    H246437   5.592   4.681   2.562  1.6217  0.7623 -1.0704
 8316TIP3   OH246438   2.215   2.746  13.543 -0.2855 -0.2448  0.2399
 8316TIP3    H146439   2.230   2.670  13.488  0.2688 -0.1209  0.2220
 8316TIP3    H246440   2.267   2.730  13.622 -1.0287 -0.3960  0.7036
 8317TIP3   OH246441   3.143   5.470  11.814  0.0718 -0.0507 -0.1411
 8317TIP3    H146442   3.127   5.385  11.855 -1.8531 -0.9656 -2.6060
 8317TIP3    H246443   3.175   5.448  11.726  1.3024  1.7935 -0.1707
 8318TIP3   OH246444   4.087   5.824   2.930  0.0309 -0.3094 -0.4278
 8318TIP3    H146445   4.052   5.772   3.003  0.6156  0.7869  0.6653
 8318TIP3    H246446   4.152   5.882   2.971  1.5522 -0.7901 -2.0771
 8319TIP3   OH246447   4.495   3.080  17.045  0.4662  0.0046 -0.1483
 8319TIP3    H146448   4.431   3.079  16.974  0.0973 -0.5457  0.1893
 8319TIP3    H246449   4.443   3.066  17.124  0.7342  1.6958  0.3438
 8320TIP3   OH246450   4.396   6.416   5.009  0.4324  0.4117 -0.4506
 8320TIP3    H146451   4.391   6.470   4.930 -1.3571  0.0976 -0.5693
 8320TIP3    H246452   4.457   6.463   5.066  1.5504  0.7623 -1.9205
 8321TIP3   OH246453   5.428   2.723  13.222  0.1150  0.1779 -0.4948
 8321TIP3    H146454   5.434   2.726  13.127  0.7816  2.0738 -0.4092
 8321TIP3    H246455   5.398   2.810  13.248 -0.0399 -0.3090  1.0298
 8322TIP3   OH246456   4.765   2.822  12.144  0.0998 -0.5934 -0.3611
 8322TIP3    H146457   4.842   2.812  12.088 -0.1087  0.5509 -0.8629
 8322TIP3    H246458   4.764   2.915  12.167  0.1382 -1.0165  1.4807
 8323TIP3   OH246459   0.567   6.147   2.834  0.6670  0.1081 -0.2278
 8323TIP3    H146460   0.627   6.219   2.817  2.3428 -1.1517  0.2266
 8323TIP3    H246461   0.606   6.072   2.789 -1.0897 -0.5254 -0.7553
 8324TIP3   OH246462   0.048   3.183  15.345 -0.1966  0.2081  0.2682
 8324TIP3    H146463  -0.013   3.220  15.408 -1.0980  1.4061 -1.2923
 8324TIP3    H246464   0.025   3.090  15.341 -1.1448  0.4336  0.5294
 8325TIP3   OH246465   6.295   5.718  11.683 -0.1628  0.2079  0.6592
 8325TIP3    H146466   6.334   5.650  11.737  1.3797 -0.0218 -0.7226
 8325TIP3    H246467   6.285   5.794  11.742 -2.1527 -1.2423  2.2807
 8326TIP3   OH246468   4.379   3.470   2.071  0.1824 -0.1704 -0.1251
 8326TIP3    H146469   4.408   3.390   2.026  1.4525  0.7450 -1.0008
 8326TIP3    H246470   4.309   3.504   2.016  1.8298  1.0247 -1.5788
 8327TIP3   OH246471   2.244   1.656  15.458 -0.4049 -0.4912 -0.4211
 8327TIP3    H146472   2.152   1.630  15.450 -0.5351 -0.9168  1.9026
 8327TIP3    H246473   2.244   1.721  15.529  0.8105  1.1258 -1.8595
 8328TIP3   OH246474   5.827   6.789  14.090  0.6276 -0.6595 -0.0407
 8328TIP3    H146475   5.826   6.840  14.171  0.4357 -0.5797 -0.0921
 8328TIP3    H246476   5.772   6.840  14.030  0.7032 -0.7612 -0.1949
 8329TIP3   OH246477   5.566   5.881   0.771 -0.3673 -0.7514  0.3686
 8329TIP3    H146478   5.574   5.797   0.725 -0.2752 -1.7591  2.1590
 8329TIP3    H246479   5.510   5.934   0.715  0.8618 -1.4431 -1.5682
 8330TIP3   OH246480   4.412   0.433  12.467  0.4280  0.4261 -0.1019
 8330TIP3    H146481   4.399   0.390  12.382 -1.4623  1.0867 -0.1617
 8330TIP3    H246482   4.412   0.362  12.530 -0.8322  0.1551 -0.3904
 8331TIP3   OH246483   5.792   6.387   3.182  0.2948 -0.2475 -0.0475
 8331TIP3    H146484   5.814   6.469   3.138  0.6297 -0.5324 -0.4126
 8331TIP3    H246485   5.723   6.348   3.129 -0.4048  0.1605  0.5462
 8332TIP3   OH246486   2.163   3.962   3.453 -0.4443  0.2411  0.4580
 8332TIP3    H146487   2.170   3.958   3.357 -0.4955 -0.4081  0.4780
 8332TIP3    H246488   2.199   4.047   3.476 -0.3502  0.3662 -0.1373
 8333TIP3   OH246489   6.080   2.305   3.035 -0.1297 -0.0939  0.2889
 8333TIP3    H146490   6.012   2.351   3.085  0.7600  1.2743  0.2528
 8333TIP3    H246491   6.053   2.318   2.944 -0.4025 -0.4694  0.3155
 8334TIP3   OH246492   5.792   3.529   3.839  0.3455 -0.7836 -0.6737
 8334TIP3    H146493   5.726   3.556   3.902  1.1996  0.9207 -0.4722
 8334TIP3    H246494   5.871   3.575   3.866  1.0489 -1.0596 -2.2178
 8335TIP3   OH246495   2.414   0.332   6.722 -0.1131  0.1900  0.1794
 8335TIP3    H146496   2.471   0.285   6.783 -1.9497  1.6550  3.1455
 8335TIP3    H246497   2.463   0.412   6.702  0.8783 -0.6945 -1.0063
 8336TIP3   OH246498   5.890   6.484   0.376 -0.4101 -0.5250  0.3715
 8336TIP3    H146499   5.850   6.439   0.302  1.4113 -1.7531  0.0923
 8336TIP3    H246500   5.980   6.502   0.347 -0.2323  0.5947  1.6043
 8337TIP3   OH246501   1.526   5.505   3.217  0.7769  0.7718  0.0047
 8337TIP3    H146502   1.505   5.570   3.150  0.7006  0.8512  0.1048
 8337TIP3    H246503   1.617   5.480   3.199  0.2557 -0.3795 -1.1124
 8338TIP3   OH246504   4.863   3.565  16.121  0.1618 -0.5802 -0.3744
 8338TIP3    H146505   4.834   3.544  16.032  0.2767  0.4254 -0.6571
 8338TIP3    H246506   4.898   3.483  16.155  2.3886 -0.4097 -2.1464
 8339TIP3   OH246507   1.462   6.720   1.965  0.1464  0.3252 -0.3397
 8339TIP3    H146508   1.459   6.634   1.923  2.2092  0.9616 -1.8960
 8339TIP3    H246509   1.554   6.747   1.958 -0.6703  3.1523 -0.9282
 8340TIP3   OH246510   1.320   0.758  13.933 -0.2334  0.0202  0.1074
 8340TIP3    H146511   1.260   0.718  13.870 -1.6525  0.1772  1.3202
 8340TIP3    H246512   1.263   0.789  14.003  1.2568  0.4471  1.1482
 8341TIP3   OH246513   6.631   5.590   2.416 -0.0225 -0.7184  0.1000
 8341TIP3    H146514   6.672   5.551   2.339  0.9535  1.2664 -0.4100
 8341TIP3    H246515   6.544   5.550   2.420  0.0188 -1.0353 -1.8692
 8342TIP3   OH246516   5.547   1.511   1.380  0.2410  0.0753 -0.1103
 8342TIP3    H146517   5.477   1.494   1.444 -0.0853  0.7348 -0.2799
 8342TIP3    H246518   5.627   1.512   1.431 -0.0020  0.4313  0.2667
 8343TIP3   OH246519   3.484   3.130   1.420 -1.3983  0.3975  0.2545
 8343TIP3    H146520   3.431   3.054   1.396  1.0074 -0.0587 -4.0072
 8343TIP3    H246521   3.435   3.205   1.389 -1.5161  0.2843  0.1683
 8344TIP3   OH246522   6.645   1.487  12.637 -0.2407 -0.7415 -0.3270
 8344TIP3    H146523   6.733   1.452  12.627 -0.8869 -2.7511  0.6903
 8344TIP3    H246524   6.638   1.555  12.570  1.4416 -1.8466 -1.6679
 8345TIP3   OH246525   3.268   3.394  12.709  0.2758  0.3204  0.7867
 8345TIP3    H146526   3.269   3.298  12.705  1.2634  0.3787 -1.0847
 8345TIP3    H246527   3.217   3.421  12.633  0.0409  1.2904  1.2782
 8346TIP3   OH246528   1.900   0.460  16.476 -0.5188  0.3034  0.0832
 8346TIP3    H146529   1.835   0.392  16.496 -0.8719  0.8206  0.7194
 8346TIP3    H246530   1.852   0.523  16.422 -0.8759  1.2575  1.4853
 8347TIP3   OH246531   2.706   5.721  15.900 -0.2414  0.1826  0.3546
 8347TIP3    H146532   2.671   5.652  15.956 -0.3211  1.3176  1.7442
 8347TIP3    H246533   2.658   5.712  15.818 -0.7751 -0.9395  0.7787
 8348TIP3   OH246534   6.007   6.665  15.043  0.8508 -0.3029 -0.2942
 8348TIP3    H146535   5.981   6.735  14.984  1.2510 -1.6851 -2.1662
 8348TIP3    H246536   5.946   6.671  15.117 -0.9754  0.1797 -1.8123
 8349TIP3   OH246537   1.004   6.654   1.558  0.1079 -0.0800  0.3568
 8349TIP3    H146538   0.977   6.562   1.555 -1.0381  0.2593  0.2529
 8349TIP3    H246539   0.923   6.703   1.572  0.4655  1.0381 -1.3041
 8350TIP3   OH246540   2.997   4.068   3.262 -0.8669 -0.4030  0.2393
 8350TIP3    H146541   2.953   4.019   3.193 -1.8374 -0.1447  0.6658
 8350TIP3    H246542   2.928   4.087   3.326 -0.3956  1.0688  0.3243
 8351TIP3   OH246543   2.186   4.976   0.910  0.0848  0.0426 -0.5148
 8351TIP3    H146544   2.240   4.897   0.913  1.7035  1.0770 -1.5819
 8351TIP3    H246545   2.225   5.028   0.840  0.2167  2.6180  1.4058
 8352TIP3   OH246546   5.024   5.283   0.462  0.2083  0.2205 -0.0063
 8352TIP3    H146547   5.102   5.298   0.409  2.4653  0.0616  3.1240
 8352TIP3    H246548   4.995   5.370   0.489  0.6282  0.1795  0.6019
 8353TIP3   OH246549   2.360   6.794  12.077 -0.3163 -0.4812  0.4920
 8353TIP3    H146550   2.268   6.819  12.086 -0.0305  1.7291 -1.9339
 8353TIP3    H246551   2.408   6.866  12.117  0.3948 -0.5153 -0.2873
 8354TIP3   OH246552   3.324   6.735   2.722  0.0561 -0.3184  0.6394
 8354TIP3    H146553   3.378   6.739   2.643 -0.3888  0.9519  0.3895
 8354TIP3    H246554   3.285   6.822   2.729 -1.7006 -1.1022  0.9886
 8355TIP3   OH246555   4.374   2.593  14.039  0.4765 -0.3573  0.2061
 8355TIP3    H146556   4.314   2.586  13.965 -2.1772  0.7895  2.1628
 8355TIP3    H246557   4.389   2.502  14.066 -0.3419 -0.6695 -0.3508
 8356TIP3   OH246558   2.357   6.167   0.403 -0.1612  0.3010 -0.3876
 8356TIP3    H146559   2.303   6.190   0.327 -1.1212 -1.7537 -0.3424
 8356TIP3    H246560   2.441   6.142   0.365 -0.4521 -0.1531 -0.7357
 8357TIP3   OH246561   2.450   5.317  13.141  0.2229  0.0591 -0.5695
 8357TIP3    H146562   2.423   5.261  13.068  1.6478 -1.7910  0.2840
 8357TIP3    H246563   2.519   5.372  13.105 -1.1086  1.2511 -1.3827
 8358TIP3   OH246564   5.200   4.713  10.908 -0.3377 -0.4102  0.3699
 8358TIP3    H146565   5.110   4.684  10.894  0.0605 -1.6304  0.2438
 8358TIP3    H246566   5.228   4.668  10.987  0.0811  0.1564  0.5464
 8359TIP3   OH246567   5.971   0.072   4.550  0.3643  0.5498 -0.1019
 8359TIP3    H146568   6.029  -0.004   4.543  1.6964  1.4832  0.5185
 8359TIP3    H246569   5.943   0.072   4.641 -2.0560 -0.9053 -0.8069
 8360TIP3   OH246570   4.869   2.096  13.280  0.2124  0.1800 -0.4845
 8360TIP3    H146571   4.945   2.039  13.291 -0.0557 -0.2025 -0.6125
 8360TIP3    H246572   4.799   2.038  13.251 -0.4152  0.3474  0.6414
 8361TIP3   OH246573   4.789   1.452   1.654  0.5640 -0.4244  0.2350
 8361TIP3    H146574   4.715   1.431   1.710  0.6790 -1.0752  0.1519
 8361TIP3    H246575   4.770   1.408   1.571  1.4343 -1.3094  0.4884
 8362TIP3   OH246576   0.832   3.780  12.679  0.5497  0.8421 -0.1904
 8362TIP3    H146577   0.788   3.854  12.723 -1.4460  0.6163 -1.7168
 8362TIP3    H246578   0.803   3.703  12.728  1.3078  0.9325  0.3931
 8363TIP3   OH246579   3.202   5.773   4.716  0.1027  0.1292 -0.3916
 8363TIP3    H146580   3.216   5.775   4.811 -0.1801  0.9561 -0.3627
 8363TIP3    H246581   3.119   5.727   4.705 -0.2834  0.7672 -0.1836
 8364TIP3   OH246582   6.305   0.068   4.647 -0.4440  0.3046 -0.1392
 8364TIP3    H146583   6.241   0.003   4.616 -1.1395  1.2911 -0.8142
 8364TIP3    H246584   6.311   0.053   4.741 -0.2658 -1.0225 -0.3441
 8365TIP3   OH246585   0.702   4.368   2.831 -0.3308 -0.3771  0.0228
 8365TIP3    H146586   0.637   4.308   2.867 -0.4869  0.6591  1.5313
 8365TIP3    H246587   0.784   4.341   2.873 -0.2229 -0.1803 -0.0609
 8366TIP3   OH246588   1.733   6.555   2.491  0.1625 -0.6368  0.0246
 8366TIP3    H146589   1.645   6.591   2.479  0.1680 -0.4397  0.5389
 8366TIP3    H246590   1.718   6.472   2.538  0.2404 -0.6745 -0.0179
 8367TIP3   OH246591   3.067   1.314   4.855 -0.5728 -0.2724  0.1660
 8367TIP3    H146592   3.064   1.397   4.808 -0.5333 -0.6995 -0.6059
 8367TIP3    H246593   3.026   1.251   4.795  3.9309 -1.8633 -1.4624
 8368TIP3   OH246594   4.708   6.780  15.914 -0.6926 -0.1245  0.1606
 8368TIP3    H146595   4.718   6.687  15.896 -2.7671 -0.5763  1.0998
 8368TIP3    H246596   4.704   6.785  16.010 -1.2612  0.8297  0.0974
 8369TIP3   OH246597   5.612   2.313   3.027 -0.0439  0.3266 -0.0535
 8369TIP3    H146598   5.621   2.221   3.004  0.6541 -0.1647  2.1192
 8369TIP3    H246599   5.525   2.338   2.995  0.2417 -0.7332 -1.7208
 8370TIP3   OH246600   6.125   6.463   5.371 -0.0886  0.5084 -0.3419
 8370TIP3    H146601   6.071   6.417   5.307 -1.4751 -0.0525  1.2051
 8370TIP3    H246602   6.102   6.555   5.359  0.4572  0.5261 -1.3661
 8371TIP3   OH246603   4.137   4.437  17.201 -0.4022  0.7595 -0.8062
 8371TIP3    H146604   4.130   4.497  17.275  0.1882  0.4001 -0.4587
 8371TIP3    H246605   4.049   4.436  17.163 -1.0036  0.1009  0.5495
 8372TIP3   OH246606   1.884   4.228   2.248  0.1196  0.4236  1.2433
 8372TIP3    H146607   1.967   4.181   2.257  0.6416  1.4128  1.7633
 8372TIP3    H246608   1.898   4.286   2.172 -0.7846 -0.7974  0.1285
 8373TIP3   OH246609   6.687   3.431   1.685  0.1181  0.1922 -0.5622
 8373TIP3    H146610   6.759   3.398   1.740 -1.0598  1.5072  1.8231
 8373TIP3    H246611   6.664   3.515   1.723 -2.8813 -0.3233 -1.1132
 8374TIP3   OH246612   1.263   6.103   3.215 -0.3837  0.7866  0.2425
 8374TIP3    H146613   1.243   6.010   3.202 -2.7297  1.0565  1.4811
 8374TIP3    H246614   1.184   6.138   3.257  0.2289  3.4785 -0.7617
 8375TIP3   OH246615   3.411   2.131   0.309 -0.7802  0.1405 -0.4692
 8375TIP3    H146616   3.474   2.118   0.379 -1.2175  1.6140  0.2002
 8375TIP3    H246617   3.460   2.176   0.240 -0.9401  0.7342 -0.1957
 8376TIP3   OH246618   3.520   3.606   3.088  1.0329 -0.1706  0.4275
 8376TIP3    H146619   3.546   3.580   3.177  0.7055  0.3820  0.6855
 8376TIP3    H246620   3.453   3.673   3.101  0.8024 -0.2675 -0.2395
 8377TIP3   OH246621   0.591   1.584   3.768  0.0967  0.1314  0.1033
 8377TIP3    H146622   0.680   1.616   3.783 -0.0029 -0.1477  1.3827
 8377TIP3    H246623   0.550   1.588   3.855 -0.7307 -0.9786 -0.2316
 8378TIP3   OH246624   1.644   0.887  16.516  0.7071  0.3802  0.5137
 8378TIP3    H146625   1.595   0.839  16.449 -0.5739 -0.5843  2.1311
 8378TIP3    H246626   1.727   0.840  16.524 -0.3205 -1.2413  1.6892
 8379TIP3   OH246627   0.447   4.424   4.430  0.1118  0.2258  0.0802
 8379TIP3    H146628   0.476   4.333   4.424  0.1575  0.2832 -0.7234
 8379TIP3    H246629   0.483   4.466   4.351 -1.6890  0.4200 -0.6776
 8380TIP3   OH246630   3.753   5.262   0.258 -0.6098 -0.3369 -0.1555
 8380TIP3    H146631   3.791   5.291   0.175  0.3533  1.0870  0.7678
 8380TIP3    H246632   3.770   5.333   0.318 -2.4690 -0.7985  0.9549
 8381TIP3   OH246633   5.941   1.061  13.206 -0.0822  0.1882  0.1433
 8381TIP3    H146634   6.015   1.055  13.267 -0.2505 -0.0923  0.3219
 8381TIP3    H246635   5.963   1.133  13.148  1.1425 -0.9969 -0.8914
 8382TIP3   OH246636   5.352   5.353  16.794 -0.1428  0.1162  0.2032
 8382TIP3    H146637   5.391   5.267  16.811 -0.1893 -0.1625 -1.0776
 8382TIP3    H246638   5.259   5.334  16.777 -0.4651  0.5824  1.3787
 8383TIP3   OH246639   4.920   2.107  15.284  0.0028  0.0805  0.1694
 8383TIP3    H146640   4.827   2.109  15.261 -0.4278  0.9026  1.8521
 8383TIP3    H246641   4.964   2.072  15.206 -1.6411  0.2711 -0.8659
 8384TIP3   OH246642   1.477   1.622   2.476  0.2008  0.0203  0.3507
 8384TIP3    H146643   1.498   1.626   2.569 -0.7935  2.5164  0.4799
 8384TIP3    H246644   1.392   1.577   2.472  0.5739 -0.7147  0.5778
 8385TIP3   OH246645   4.553   0.553   4.353 -0.1001  0.1248 -0.4390
 8385TIP3    H146646   4.535   0.532   4.261 -0.4304  0.6742 -0.4973
 8385TIP3    H246647   4.474   0.596   4.384 -0.4767 -1.1799  0.4672
 8386TIP3   OH246648   3.204   3.189   0.228  0.1455  0.2120  0.1503
 8386TIP3    H146649   3.170   3.111   0.271 -0.8068  1.4958  1.7944
 8386TIP3    H246650   3.286   3.160   0.187 -2.3177 -2.6821 -3.0375
 8387TIP3   OH246651   3.105   3.634   6.236  0.3800  0.2976 -0.0870
 8387TIP3    H146652   3.057   3.717   6.247 -0.9470 -0.4227 -0.3215
 8387TIP3    H246653   3.037   3.567   6.236  1.5567 -0.9450  1.6747
 8388TIP3   OH246654   0.192   4.350   5.201  0.1493  0.3022 -0.5938
 8388TIP3    H146655   0.101   4.324   5.212  0.3405 -0.3196 -0.4519
 8388TIP3    H246656   0.238   4.268   5.181  0.6453  0.6379 -0.8339
 8389TIP3   OH246657   1.903   4.319   0.857 -0.1091 -0.3838 -0.3717
 8389TIP3    H146658   1.924   4.311   0.950 -3.6101  0.6008  0.5454
 8389TIP3    H246659   1.944   4.402   0.830  0.7464 -0.5746  0.3037
 8390TIP3   OH246660   1.177   0.854   4.567  0.4474 -0.1267  0.4047
 8390TIP3    H146661   1.196   0.930   4.622  4.2844 -1.2296  0.7470
 8390TIP3    H246662   1.173   0.780   4.628 -0.4833 -0.6133 -0.2324
 8391TIP3   OH246663   3.071   2.934   5.438  0.4437  0.1374 -0.7243
 8391TIP3    H146664   3.025   2.850   5.431 -1.4374  1.2019 -1.2685
 8391TIP3    H246665   3.135   2.932   5.367 -0.8077 -0.0927 -1.8590
 8392TIP3   OH246666   3.636   1.844   2.214 -0.0126 -0.2031  0.2580
 8392TIP3    H146667   3.549   1.817   2.242  0.1490 -1.8821 -0.7876
 8392TIP3    H246668   3.687   1.763   2.214  0.7521  0.2420 -2.0311
 8393TIP3   OH246669   4.348   4.325  16.455 -0.0806 -0.2539  0.3683
 8393TIP3    H146670   4.273   4.371  16.492 -1.2445 -1.9545  0.1965
 8393TIP3    H246671   4.337   4.235  16.485 -0.2166 -1.3598 -2.8181
 8394TIP3   OH246672   5.974   1.279   0.514 -0.4418  0.4070 -0.0237
 8394TIP3    H146673   5.975   1.245   0.425  0.2301  2.4779 -0.8364
 8394TIP3    H246674   5.890   1.250   0.550 -0.4160 -1.0209 -1.0873
 8395TIP3   OH246675   3.424   2.387   1.594  0.2328 -0.0064  0.3646
 8395TIP3    H146676   3.456   2.435   1.671 -0.7983 -1.1717  1.5510
 8395TIP3    H246677   3.373   2.315   1.631  1.4389 -1.7896 -1.3943
 8396TIP3   OH246678   5.935   1.612  11.514 -0.2332  0.2803 -0.2330
 8396TIP3    H146679   5.897   1.649  11.434  1.4742  0.4882 -0.9760
 8396TIP3    H246680   5.963   1.524  11.489  1.5695  0.8438 -0.2713
 8397TIP3   OH246681   5.417   2.102  14.586  0.7286  0.4526 -0.3926
 8397TIP3    H146682   5.384   2.174  14.641  0.6919 -1.7804  2.6452
 8397TIP3    H246683   5.338   2.059  14.553  0.7076  0.0412  0.1916
 8398TIP3   OH246684   0.992   1.419  12.501 -0.2073 -0.1353 -0.5727
 8398TIP3    H146685   0.984   1.462  12.416  0.9874  0.3527 -0.4524
 8398TIP3    H246686   1.038   1.483  12.556 -2.5456  0.2712  0.9662
 8399TIP3   OH246687   4.239   5.313  12.286 -0.3675  0.3383 -0.0626
 8399TIP3    H146688   4.253   5.407  12.300  0.5134  0.5934 -2.3694
 8399TIP3    H246689   4.253   5.301  12.192 -0.1299 -2.1687  0.2648
 8400TIP3   OH246690   0.941   2.325  16.733  0.0727  1.1793 -0.4443
 8400TIP3    H146691   0.989   2.391  16.782  1.3013 -1.1131  1.5236
 8400TIP3    H246692   0.871   2.297  16.792  0.8733 -0.7853 -0.3840
 8401TIP3   OH246693   2.764   3.591   5.613 -0.3012  0.4968 -0.2964
 8401TIP3    H146694   2.803   3.529   5.552 -1.8036 -0.6071 -0.1572
 8401TIP3    H246695   2.832   3.606   5.679  0.7684  0.5115 -1.3805
 8402TIP3   OH246696   0.297   1.003   1.445  0.2412  0.1914  0.2875
 8402TIP3    H146697   0.232   1.045   1.388 -0.1532 -1.6104 -0.6270
 8402TIP3    H246698   0.247   0.937   1.493  1.3066 -0.8999 -0.0923
 8403TIP3   OH246699   3.077   5.745   2.022 -0.1422  0.6993 -0.6733
 8403TIP3    H146700   3.171   5.764   2.033  0.4866 -1.2336 -2.2777
 8403TIP3    H246701   3.056   5.779   1.935 -0.5582 -0.1778 -0.9215
 8404TIP3   OH246702   5.289   0.189  13.844  0.0967  0.8579  0.1245
 8404TIP3    H146703   5.220   0.251  13.869  0.6897  1.1371  1.0974
 8404TIP3    H246704   5.352   0.193  13.916  1.8287  1.6445 -1.3867
 8405TIP3   OH246705   4.168   4.096  11.481 -0.1070 -0.3270  0.7410
 8405TIP3    H146706   4.180   4.189  11.458  0.8660 -0.9011 -1.1538
 8405TIP3    H246707   4.103   4.064  11.419  0.8691 -1.3532  0.2373
 8406TIP3   OH246708   1.202   6.625   1.783  0.4443 -0.2977  0.1453
 8406TIP3    H146709   1.253   6.705   1.780 -0.0515 -0.0186 -0.6991
 8406TIP3    H246710   1.141   6.631   1.709 -2.1343  0.2527  2.2213
 8407TIP3   OH246711   4.722   2.978  14.905 -0.5237  0.0333 -0.5992
 8407TIP3    H146712   4.715   2.953  14.997 -3.1953 -1.1298 -1.0738
 8407TIP3    H246713   4.776   2.908  14.866  0.3637  0.3714 -0.0094
 8408TIP3   OH246714   0.172   4.061   2.337 -0.2009 -0.0242  0.0274
 8408TIP3    H146715   0.094   4.092   2.383  0.1533 -1.0263  1.3039
 8408TIP3    H246716   0.194   4.133   2.277  0.2141  1.9637  2.4640
 8409TIP3   OH246717   5.437   6.196   5.458  0.1704  0.4034  0.1256
 8409TIP3    H146718   5.506   6.261   5.471  1.0541 -0.5356  0.1861
 8409TIP3    H246719   5.466   6.120   5.508  0.7734 -1.2136 -2.5463
 8410TIP3   OH246720   1.481   5.707   4.851  0.0828  0.1832 -0.0385
 8410TIP3    H146721   1.502   5.615   4.832  0.6892  0.0105  1.4344
 8410TIP3    H246722   1.555   5.739   4.901 -1.3475  0.7159  1.7873
 8411TIP3   OH246723   2.756   0.231   4.645  0.0687 -0.0212  0.0084
 8411TIP3    H146724   2.685   0.200   4.589  0.3330  0.1615 -0.4296
 8411TIP3    H246725   2.794   0.304   4.597 -0.2406  0.6771  0.8116
 8412TIP3   OH246726   2.915   6.635   0.648 -0.3828 -0.2027 -0.5767
 8412TIP3    H146727   2.861   6.697   0.699 -1.2482 -0.5388 -1.0639
 8412TIP3    H246728   3.002   6.674   0.647 -1.1837  1.6689 -1.9276
 8413TIP3   OH246729   4.846   3.082   4.932  0.0101 -0.1284  0.1223
 8413TIP3    H146730   4.921   3.111   4.984  0.6331 -2.0276  0.3139
 8413TIP3    H246731   4.772   3.132   4.968  1.1289  1.6569  0.0151
 8414TIP3   OH246732   5.916   6.137   4.132 -0.2796  0.6534 -0.5293
 8414TIP3    H146733   5.876   6.204   4.188 -0.5241  1.2911 -1.4623
 8414TIP3    H246734   6.006   6.166   4.120  0.5957 -0.9186  1.7865
 8415TIP3   OH246735   4.818   0.822   3.862 -0.1179  0.1429 -0.2671
 8415TIP3    H146736   4.754   0.753   3.843  0.5144 -0.8425  1.0948
 8415TIP3    H246737   4.894   0.775   3.899 -0.4480  1.7205  2.5683
 8416TIP3   OH246738   0.407   2.256   1.001  0.0382  0.4328 -0.1147
 8416TIP3    H146739   0.376   2.170   0.975  1.6366  0.2916 -1.6238
 8416TIP3    H246740   0.434   2.298   0.919 -1.3145  2.6361  0.4913
 8417TIP3   OH246741   2.408   6.429   4.017 -0.3037  0.0138 -0.0807
 8417TIP3    H146742   2.434   6.348   4.061 -1.6147  0.1990  1.0664
 8417TIP3    H246743   2.452   6.425   3.932  0.8851 -1.1606  0.5730
 8418TIP3   OH246744   0.089   3.641   5.488 -0.3504 -0.7812 -0.0787
 8418TIP3    H146745   0.114   3.719   5.440  0.3793 -1.6883 -1.1880
 8418TIP3    H246746   0.063   3.578   5.421 -3.4285 -0.6640  0.9039
 8419TIP3   OH246747   0.408   3.589  15.608  0.2804  0.4722 -0.4638
 8419TIP3    H146748   0.360   3.671  15.621  0.4866  0.8899 -2.2001
 8419TIP3    H246749   0.354   3.522  15.650 -0.4662  1.3248 -0.0546
 8420TIP3   OH246750   0.883   4.890  16.907  0.2608 -0.6127  0.7325
 8420TIP3    H146751   0.976   4.871  16.918  0.0798 -2.3247 -0.3621
 8420TIP3    H246752   0.850   4.816  16.855 -1.2796  1.0242 -0.6880
 8421TIP3   OH246753   0.311   4.266  11.680 -0.4153 -0.4319  0.5029
 8421TIP3    H146754   0.334   4.242  11.769 -1.4228 -2.6003  0.1916
 8421TIP3    H246755   0.371   4.216  11.625 -0.3082  0.3112 -0.0668
 8422TIP3   OH246756   6.496   3.811  12.327  0.0362  0.0202  0.1682
 8422TIP3    H146757   6.427   3.782  12.386  0.1978 -1.2780 -0.2632
 8422TIP3    H246758   6.513   3.902  12.353 -1.6587  0.2842  0.4275
 8423TIP3   OH246759   5.565   4.114  15.457  0.3345  0.2118 -0.2473
 8423TIP3    H146760   5.478   4.110  15.417  0.7675 -2.2579 -1.0347
 8423TIP3    H246761   5.555   4.174  15.531 -1.9677  0.1831 -0.5165
 8424TIP3   OH246762   4.336   0.665   3.298 -0.4063  0.1536  0.8561
 8424TIP3    H146763   4.261   0.644   3.354 -0.6617 -0.2654  0.3589
 8424TIP3    H246764   4.337   0.595   3.233  1.2621 -0.6333  1.7000
 8425TIP3   OH246765   5.449   1.163  12.848 -0.6376  0.0750  0.1223
 8425TIP3    H146766   5.534   1.163  12.804 -0.3496  1.4907  0.6678
 8425TIP3    H246767   5.403   1.237  12.810 -0.7576  0.7165  1.5005
 8426TIP3   OH246768   0.786   3.138  16.347 -0.5347 -0.3086 -0.3489
 8426TIP3    H146769   0.703   3.093  16.364 -0.7279  0.6461  1.3945
 8426TIP3    H246770   0.853   3.076  16.376 -0.8324  0.9080  3.2310
 8427TIP3   OH246771   1.889   3.169  15.901  0.0616 -0.4150 -0.2865
 8427TIP3    H146772   1.954   3.183  15.831 -0.5531  0.6735 -0.6616
 8427TIP3    H246773   1.873   3.075  15.900  0.1798 -0.4389 -1.5250
 8428TIP3   OH246774   1.342   5.347  13.510 -0.0395  1.1012  0.4331
 8428TIP3    H146775   1.334   5.252  13.509  0.9922  0.9900  1.4423
 8428TIP3    H246776   1.252   5.378  13.521 -0.3166  0.2156  0.7186
 8429TIP3   OH246777   6.042   1.234  13.012  0.1276  0.5507 -0.3837
 8429TIP3    H146778   6.034   1.302  12.945  0.5211 -0.5072 -1.5164
 8429TIP3    H246779   6.036   1.152  12.963  3.2158 -0.2549  0.5360
 8430TIP3   OH246780   6.404   4.411  13.290  0.3949  0.0056 -0.4920
 8430TIP3    H146781   6.391   4.459  13.372  0.6782  0.3045 -0.6203
 8430TIP3    H246782   6.370   4.470  13.223  0.2515 -0.1991 -0.5968
 8431TIP3   OH246783   0.107   2.342   3.049 -0.9418 -0.0393 -0.2162
 8431TIP3    H146784   0.200   2.325   3.031 -0.9050 -0.5595  0.4632
 8431TIP3    H246785   0.063   2.325   2.965 -0.4504  0.0159 -0.4865
 8432TIP3   OH246786   3.070   3.541  15.276 -0.3322 -0.4535 -0.4217
 8432TIP3    H146787   3.070   3.625  15.230  0.9905 -0.5849 -0.6567
 8432TIP3    H246788   3.127   3.555  15.352 -0.2063 -1.1071 -0.3926
 8433TIP3   OH246789   0.985   0.366   4.959 -0.3889  0.4812  0.9297
 8433TIP3    H146790   0.949   0.294   5.010 -2.1012  0.7700  0.1484
 8433TIP3    H246791   0.957   0.445   5.006 -0.4691  0.6993  0.5171
 8434TIP3   OH246792   0.192   5.535   5.728  0.2640  0.8626  0.1530
 8434TIP3    H146793   0.157   5.573   5.647 -0.5629 -0.3635 -0.0798
 8434TIP3    H246794   0.192   5.608   5.790 -1.0147  1.3395 -0.3766
 8435TIP3   OH246795   0.742   2.223   3.658  0.8204  0.2173  0.2752
 8435TIP3    H146796   0.673   2.282   3.626  1.9818  1.2350 -0.4305
 8435TIP3    H246797   0.695   2.156   3.707 -0.7583  0.3836 -0.9308
 8436TIP3   OH246798   4.834   0.392   4.381 -0.1269  0.1627  0.3467
 8436TIP3    H146799   4.895   0.424   4.447 -0.1944  1.6427 -0.2972
 8436TIP3    H246800   4.748   0.418   4.413 -0.3754 -1.1532  0.8118
 8437TIP3   OH246801   0.232   4.871   5.655  0.0465 -0.1586 -0.1976
 8437TIP3    H146802   0.274   4.860   5.569 -0.9371 -2.4330 -0.4322
 8437TIP3    H246803   0.141   4.890   5.634 -0.4242 -1.7573  0.3143
 8438TIP3   OH246804   0.867   4.995   3.414 -0.1716 -0.2261 -0.2005
 8438TIP3    H146805   0.930   5.068   3.416 -0.0088 -0.3652 -0.3168
 8438TIP3    H246806   0.785   5.035   3.444  0.2288 -0.2951  1.0245
 8439TIP3   OH246807   5.720   0.006  16.143  0.3237  0.2257 -0.2313
 8439TIP3    H146808   5.679   0.080  16.098 -0.9989 -1.5552 -2.0852
 8439TIP3    H246809   5.798  -0.014  16.090  0.5793  0.2011  0.1557
 8440TIP3   OH246810   5.214   4.866  16.357  0.1786 -0.4689  0.1681
 8440TIP3    H146811   5.278   4.937  16.365  0.8801 -1.2187  1.1617
 8440TIP3    H246812   5.242   4.800  16.420 -0.1018 -1.9314 -1.2124
 8441TIP3   OH246813   0.593   3.569   1.420  0.0713  0.1222 -0.0406
 8441TIP3    H146814   0.643   3.649   1.434 -0.7647  0.5823  0.3439
 8441TIP3    H246815   0.643   3.520   1.355 -0.7769  2.1504 -2.2586
 8442TIP3   OH246816   3.514   4.811   2.735 -0.2870 -0.4563 -0.6746
 8442TIP3    H146817   3.430   4.793   2.776  0.7497 -2.7355  0.5575
 8442TIP3    H246818   3.559   4.868   2.796 -0.6785  0.2456 -1.0348
 8443TIP3   OH246819   5.443   6.663  14.627 -0.1973  0.9776 -0.1217
 8443TIP3    H146820   5.495   6.658  14.546  1.2581  0.6638  0.8150
 8443TIP3    H246821   5.463   6.749  14.663  0.8654  0.2719  1.0173
 8444TIP3   OH246822   2.160   3.869  16.701 -0.3535 -0.5142  0.5496
 8444TIP3    H146823   2.181   3.962  16.689 -2.2209 -0.1064  0.1888
 8444TIP3    H246824   2.150   3.859  16.796 -2.3033  0.1870  0.4475
 8445TIP3   OH246825   3.117   5.667   1.435  0.4117 -0.4331 -0.1192
 8445TIP3    H146826   3.199   5.711   1.459  0.6964 -0.1734 -1.5563
 8445TIP3    H246827   3.061   5.736   1.401 -0.0858 -0.7590  0.0278
 8446TIP3   OH246828   5.329   5.420   2.194  0.1168  0.4026  0.1089
 8446TIP3    H146829   5.359   5.338   2.233  1.6999  0.3932 -1.0747
 8446TIP3    H246830   5.384   5.487   2.234  1.8430  0.3807 -2.0977
 8447TIP3   OH246831   0.455   5.422   4.412  0.3430  0.1336 -0.4836
 8447TIP3    H146832   0.503   5.503   4.398  1.4397 -0.6991 -1.6682
 8447TIP3    H246833   0.460   5.376   4.328 -0.9669 -0.7956 -0.0766
 8448TIP3   OH246834   3.697   2.608  15.435 -0.4142  0.0370  0.0426
 8448TIP3    H146835   3.662   2.692  15.404 -0.6258 -0.4166 -0.9407
 8448TIP3    H246836   3.619   2.556  15.454 -0.2810  0.0315  0.5957
 8449TIP3   OH246837   0.422   2.332   1.438 -0.1829  0.3615  0.6810
 8449TIP3    H146838   0.406   2.371   1.524 -0.6072 -0.2782  0.9008
 8449TIP3    H246839   0.334   2.316   1.402 -0.0083  0.6727  0.1089
 8450TIP3   OH246840   5.708   3.768  12.056 -0.2384 -0.3998  0.1475
 8450TIP3    H146841   5.631   3.742  12.106 -1.5300  2.4003 -0.2607
 8450TIP3    H246842   5.692   3.737  11.967 -0.6688 -0.2766  0.1821
 8451TIP3   OH246843   3.761   5.966   1.377 -0.5801 -0.8059  0.1699
 8451TIP3    H146844   3.683   6.006   1.338 -1.8596 -1.9516  1.4871
 8451TIP3    H246845   3.817   5.947   1.302 -0.4862  2.2001 -0.6029
 8452TIP3   OH246846   3.744   4.794   3.561  0.3534 -0.4041  0.3402
 8452TIP3    H146847   3.682   4.784   3.488 -3.2489  0.7598  3.0529
 8452TIP3    H246848   3.787   4.877   3.544  1.1509 -1.1700 -1.5458
 8453TIP3   OH246849   2.609   5.244   3.597 -0.4283  0.5944 -0.2562
 8453TIP3    H146850   2.692   5.225   3.554  0.1361  1.3925  0.4514
 8453TIP3    H246851   2.580   5.160   3.632 -0.4870  0.1014 -1.4808
 8454TIP3   OH246852   6.333   3.038  15.831  0.3717 -1.0837  0.9454
 8454TIP3    H146853   6.367   3.124  15.807 -0.0319 -1.6354 -1.7532
 8454TIP3    H246854   6.333   3.038  15.927 -0.5811  2.2823  1.0170
 8455TIP3   OH246855   0.280   2.943   1.115  0.2673  0.1613 -0.1895
 8455TIP3    H146856   0.271   2.850   1.137  0.5830  0.1032 -0.2977
 8455TIP3    H246857   0.190   2.976   1.111  0.1746 -0.0178  0.3595
 8456TIP3   OH246858   2.961   6.008  14.922  0.0695 -0.5902 -0.2495
 8456TIP3    H146859   2.877   6.017  14.877  0.0045 -0.2794 -0.0710
 8456TIP3    H246860   2.950   5.931  14.977 -0.3936 -0.0678  0.4009
 8457TIP3   OH246861   0.685   2.172  11.034 -0.1306  0.1389  0.1206
 8457TIP3    H146862   0.714   2.152  11.123 -0.2735  0.2782  0.1992
 8457TIP3    H246863   0.601   2.126  11.026 -0.0085 -0.0543 -0.0174
 8458TIP3   OH246864   3.583   6.113  16.377 -0.6299 -0.1571  0.3907
 8458TIP3    H146865   3.662   6.137  16.330 -0.7181 -0.3140  0.1594
 8458TIP3    H246866   3.542   6.046  16.322 -1.5238  0.7540 -0.0745
 8459TIP3   OH246867   1.504   1.215   0.089 -0.4656 -0.0595 -0.4510
 8459TIP3    H146868   1.514   1.228  -0.006 -0.7579 -1.4613 -0.6747
 8459TIP3    H246869   1.590   1.186   0.118 -0.8833 -1.4353 -0.5887
 8460TIP3   OH246870   6.069   2.134  13.156 -0.2261 -0.3237 -1.3182
 8460TIP3    H146871   6.127   2.196  13.112  0.4278  0.4627  0.6036
 8460TIP3    H246872   6.028   2.185  13.226 -1.3436 -1.5268 -1.0734
 8461TIP3   OH246873   4.036   4.187   0.524 -0.1401  0.0741  0.4784
 8461TIP3    H146874   3.949   4.182   0.485  0.0592 -3.4188  0.3501
 8461TIP3    H246875   4.031   4.260   0.585 -2.7550  0.7340 -0.4549
 8462TIP3   OH246876   3.029   2.859   1.830  0.0294  0.4337 -0.1289
 8462TIP3    H146877   3.007   2.911   1.908  2.1381 -1.4779  1.8228
 8462TIP3    H246878   3.030   2.769   1.862 -0.6244 -0.5370 -2.7655
 8463TIP3   OH246879   5.056   6.334   3.470  0.2191 -0.1506  0.6092
 8463TIP3    H146880   5.115   6.281   3.416  0.3227 -0.2560  0.8286
 8463TIP3    H246881   5.109   6.410   3.495  0.4312 -0.5073  1.2516
 8464TIP3   OH246882   5.437   4.996   1.778 -0.4467 -0.0486  0.0193
 8464TIP3    H146883   5.413   5.078   1.821 -0.5066  0.6916 -1.3743
 8464TIP3    H246884   5.389   4.928   1.824 -0.6343  0.7404  0.9930
 8465TIP3   OH246885   1.774   4.297  13.437  0.3809 -0.5490 -0.2722
 8465TIP3    H146886   1.769   4.207  13.467 -1.5714 -0.2590  0.3517
 8465TIP3    H246887   1.811   4.346  13.511  1.8965 -0.9024 -0.7847
 8466TIP3   OH246888   4.755   3.579   1.882 -0.3406  0.1048 -0.0534
 8466TIP3    H146889   4.839   3.572   1.836 -0.4252 -0.3062 -0.1482
 8466TIP3    H246890   4.708   3.499   1.858 -0.7454  0.3163  0.0277
 8467TIP3   OH246891   6.698   4.216   0.348 -0.3438  0.2945 -0.4063
 8467TIP3    H146892   6.662   4.168   0.273 -1.8866  1.4846 -0.4462
 8467TIP3    H246893   6.659   4.175   0.424 -0.7950  0.7579 -0.3861
 8468TIP3   OH246894   2.581   6.420   1.158  0.4608 -0.5842 -0.1618
 8468TIP3    H146895   2.511   6.485   1.148  0.3098 -0.6555  0.4193
 8468TIP3    H246896   2.547   6.341   1.114 -1.3443 -1.7585  3.1742
 8469TIP3   OH246897   6.629   0.562  14.794 -0.7485 -0.5775 -0.3749
 8469TIP3    H146898   6.682   0.483  14.790 -1.0261 -0.9073  2.0723
 8469TIP3    H246899   6.688   0.631  14.763  1.1069 -0.9625  2.1064
 8470TIP3   OH246900   4.385   3.359   4.213 -0.1248 -0.6473  0.1818
 8470TIP3    H146901   4.303   3.314   4.191  0.9347 -2.9937  0.8528
 8470TIP3    H246902   4.379   3.373   4.308  0.5548 -1.4990  0.3586
 8471TIP3   OH246903   4.419   2.499   0.808  0.2339 -0.4580  0.1459
 8471TIP3    H146904   4.334   2.457   0.793  1.1599 -2.2350 -0.2164
 8471TIP3    H246905   4.443   2.536   0.723  0.2916 -0.8057  0.0137
 8472TIP3   OH246906   3.318   5.059  16.719  0.3175 -0.2923  0.0934
 8472TIP3    H146907   3.311   5.149  16.689  1.2940  0.3977  1.8593
 8472TIP3    H246908   3.233   5.041  16.759  1.2284  1.0287  2.7719
 8473TIP3   OH246909   3.704   5.355  10.313  0.3124  0.0314  0.7639
 8473TIP3    H146910   3.789   5.333  10.275  0.6593  0.4448  1.2827
 8473TIP3    H246911   3.643   5.293  10.274  0.3394  1.5037 -1.8095
 8474TIP3   OH246912   6.040   3.332   0.593  0.4202  0.7878  0.4851
 8474TIP3    H146913   6.047   3.242   0.561 -1.0811  0.4137  1.1550
 8474TIP3    H246914   6.105   3.381   0.543  0.8300 -0.5602 -0.3095
 8475TIP3   OH246915   3.655   6.632   2.040  0.4374 -0.4400 -0.1993
 8475TIP3    H146916   3.664   6.716   1.996 -0.3300 -0.2040  0.1044
 8475TIP3    H246917   3.742   6.615   2.077  0.6757  0.0647 -0.5306
 8476TIP3   OH246918   6.138   1.664   0.193  0.0586  0.4811  0.2766
 8476TIP3    H146919   6.214   1.607   0.187  0.1791  0.6387  0.2879
 8476TIP3    H246920   6.171   1.751   0.171  0.0478  0.6818  1.0203
 8477TIP3   OH246921   1.519   3.210   6.152 -0.1942  0.3332 -0.0702
 8477TIP3    H146922   1.547   3.298   6.126 -0.3693  0.5572  0.4961
 8477TIP3    H246923   1.575   3.189   6.227  1.7697 -1.1557 -1.8815
 8478TIP3   OH246924   1.063   2.601   5.238  0.3597 -0.4175  0.1062
 8478TIP3    H146925   1.039   2.508   5.240  1.1145 -0.6473 -0.7596
 8478TIP3    H246926   1.063   2.628   5.330 -0.1124 -1.2164  0.3437
 8479TIP3   OH246927   0.486   6.490  13.378 -0.6505  0.0689 -0.4627
 8479TIP3    H146928   0.397   6.524  13.374 -0.4232  0.7299 -0.0497
 8479TIP3    H246929   0.537   6.549  13.322 -0.0795  0.9773  0.9935
 8480TIP3   OH246930   3.901   6.579  13.242 -0.4012  0.2084  0.0263
 8480TIP3    H146931   3.876   6.490  13.266 -0.4503  0.2229  0.0305
 8480TIP3    H246932   3.959   6.569  13.167 -0.5245  0.1805 -0.0656
 8481TIP3   OH246933   3.088   1.570  17.179 -0.4635 -0.7797 -0.1151
 8481TIP3    H146934   3.184   1.566  17.180 -0.4936 -2.3350 -0.8642
 8481TIP3    H246935   3.062   1.526  17.260 -0.5451 -0.3986  0.0668
 8482TIP3   OH246936   3.563   3.262   2.285 -0.5259 -0.1205 -0.0377
 8482TIP3    H146937   3.524   3.236   2.202 -0.9080 -0.7024  0.3129
 8482TIP3    H246938   3.528   3.198   2.348  1.4522 -1.0057  0.1917
 8483TIP3   OH246939   4.606   2.672   5.517 -0.3908 -0.3433 -0.5177
 8483TIP3    H146940   4.519   2.712   5.526  0.1017  0.7282 -0.4579
 8483TIP3    H246941   4.641   2.711   5.437  0.4569  0.0199  0.0297
 8484TIP3   OH246942   5.282   4.322   4.466 -0.2008 -0.2820 -0.2925
 8484TIP3    H146943   5.328   4.259   4.410 -0.0219 -0.9083  0.5634
 8484TIP3    H246944   5.190   4.299   4.456 -0.3904  1.2310 -2.3262
 8485TIP3   OH246945   1.297   2.258  13.424 -0.0663 -0.4432  0.3306
 8485TIP3    H146946   1.286   2.201  13.500  0.4673  0.4498  1.0941
 8485TIP3    H246947   1.372   2.313  13.446 -0.6197  0.6111 -0.3474
 8486TIP3   OH246948   0.880   4.420  16.959  0.4153 -0.1729  0.4938
 8486TIP3    H146949   0.908   4.358  16.891  1.1893 -0.0688  0.7103
 8486TIP3    H246950   0.803   4.463  16.922  0.8406 -0.1016 -0.3273
 8487TIP3   OH246951   1.365   2.151   3.688  0.6069  0.4539  0.6101
 8487TIP3    H146952   1.436   2.104   3.732  0.4351  0.3728  0.8015
 8487TIP3    H246953   1.308   2.082   3.655  1.3249  0.4938 -0.7180
 8488TIP3   OH246954   6.462   0.445  13.729  0.0262  0.3021  0.2534
 8488TIP3    H146955   6.530   0.493  13.682  2.0425 -1.8211  0.8894
 8488TIP3    H246956   6.420   0.391  13.661  0.5875 -0.1607  0.2716
 8489TIP3   OH246957   4.233   2.573  11.816  0.1035  0.5845 -0.8097
 8489TIP3    H146958   4.321   2.556  11.849  0.3001 -0.1436 -1.6855
 8489TIP3    H246959   4.247   2.608  11.728 -0.4740  0.6415 -0.8793
 8490TIP3   OH246960   5.013   4.984  12.520  0.2733 -0.0015  0.3451
 8490TIP3    H146961   4.998   4.949  12.432 -3.9660 -3.6395  2.2950
 8490TIP3    H246962   5.092   4.939  12.550  1.7640  1.2839 -1.5254
 8491TIP3   OH246963   3.254   2.055   5.484 -0.9661  0.0372 -0.3296
 8491TIP3    H146964   3.243   2.058   5.389  0.6422 -1.6663 -0.5905
 8491TIP3    H246965   3.344   2.084   5.499 -1.6896  1.7886  0.8148
 8492TIP3   OH246966   4.250   5.933  11.413 -0.0686  0.2171  0.7334
 8492TIP3    H146967   4.193   6.006  11.389  0.5740 -0.2510 -2.3832
 8492TIP3    H246968   4.194   5.878  11.469 -1.4569  1.6585  0.8166
 8493TIP3   OH246969   6.022   5.726  15.180 -0.7415  0.2484 -0.4789
 8493TIP3    H146970   6.005   5.648  15.127  1.4054 -0.9918  0.6073
 8493TIP3    H246971   6.025   5.694  15.270  0.2218  1.5800 -0.0145
 8494TIP3   OH246972   3.998   4.409   0.684  0.1085  0.1404  0.0365
 8494TIP3    H146973   4.088   4.439   0.677 -0.1103  1.3121  1.8199
 8494TIP3    H246974   3.947   4.475   0.637 -0.3000  2.3547  3.3733
 8495TIP3   OH246975   4.542   2.465  15.153 -0.3457 -0.3180  0.2639
 8495TIP3    H146976   4.618   2.502  15.108 -0.5520  0.1362  0.2845
 8495TIP3    H246977   4.486   2.540  15.172 -1.2885 -0.7686 -0.6565
 8496TIP3   OH246978   2.640   2.010  13.802  0.2690  0.2696  0.4390
 8496TIP3    H146979   2.663   2.078  13.739  0.1718  1.4417  1.6659
 8496TIP3    H246980   2.546   2.019  13.814 -0.0264 -1.1524 -0.6193
 8497TIP3   OH246981   3.339   0.344  11.141 -0.0247  0.0050 -0.1570
 8497TIP3    H146982   3.273   0.331  11.073  0.2146 -0.8344 -0.2315
 8497TIP3    H246983   3.379   0.428  11.118 -0.1749 -0.1067 -0.8621
 8498TIP3   OH246984   3.630   1.686   6.205 -0.1909 -0.2500 -0.3598
 8498TIP3    H146985   3.665   1.600   6.227 -2.2674 -1.4600 -1.5826
 8498TIP3    H246986   3.582   1.714   6.284  2.1167  0.7190  0.7502
 8499TIP3   OH246987   2.726   4.124  15.265  0.2557 -0.1584 -0.4283
 8499TIP3    H146988   2.677   4.051  15.225 -0.3980 -1.1191  2.0292
 8499TIP3    H246989   2.760   4.088  15.347 -0.1947  2.3451  0.9046
 8500TIP3   OH246990   1.756   1.148  16.433 -0.2972  0.5249 -0.0468
 8500TIP3    H146991   1.741   1.071  16.488  1.0357  0.9891  0.9863
 8500TIP3    H246992   1.722   1.221  16.484 -3.1844  0.4577 -1.7683
 8501TIP3   OH246993   1.639   4.262   0.830  0.2350  0.6705 -0.4011
 8501TIP3    H146994   1.733   4.277   0.837  0.4135 -0.9127  0.9654
 8501TIP3    H246995   1.617   4.212   0.909 -1.8520  1.5062 -0.4350
 8502TIP3   OH246996   4.576   2.790  16.990 -0.2693 -0.4749  0.7372
 8502TIP3    H146997   4.482   2.772  17.001 -0.1973 -0.6686  1.0574
 8502TIP3    H246998   4.594   2.859  17.054 -0.3699  0.1547  0.0813
 8503TIP3   OH246999   0.786   1.932  11.745 -0.2956  0.0388 -0.0917
 8503TIP3    H147000   0.817   1.878  11.673 -2.8463 -0.0073 -1.2244
 8503TIP3    H247001   0.836   1.903  11.821 -0.2804 -2.5845 -1.0746
 8504TIP3   OH247002   6.381   1.630   4.806 -0.1623 -0.3577 -0.2575
 8504TIP3    H147003   6.429   1.604   4.885  1.2127  2.7145 -0.0263
 8504TIP3    H247004   6.442   1.687   4.758 -2.2584  0.6550 -1.7812
 8505TIP3   OH247005   0.303   1.886  13.403  0.0154  0.4299 -0.0203
 8505TIP3    H147006   0.220   1.930  13.386  0.6356  1.2547 -0.9449
 8505TIP3    H247007   0.363   1.956  13.429  0.1016 -0.3214  1.8748
 8506TIP3   OH247008   6.045   2.067  16.152 -0.0110  0.7427 -0.1758
 8506TIP3    H147009   6.102   2.054  16.076 -0.2117  0.3521 -0.2603
 8506TIP3    H247010   6.095   2.032  16.226  0.2861  1.3460 -0.0884
 8507TIP3   OH247011   4.578   2.361  16.967  0.2317 -0.0824 -0.1033
 8507TIP3    H147012   4.507   2.392  16.911  0.2211 -0.1982 -0.1520
 8507TIP3    H247013   4.651   2.419  16.946 -0.0257  0.4228  0.3815
 8508TIP3   OH247014   3.495   2.243  11.982  0.3520 -0.0368 -0.2323
 8508TIP3    H147015   3.507   2.247  12.077  0.6408  0.4296 -0.2820
 8508TIP3    H247016   3.584   2.246  11.947  0.2183  0.4805 -0.5324
 8509TIP3   OH247017   2.885   1.227   1.413  0.0271 -0.1563 -0.5139
 8509TIP3    H147018   2.976   1.214   1.385 -0.7301 -2.0773 -2.2467
 8509TIP3    H247019   2.856   1.141   1.442 -0.8995  0.6994  1.1731
 8510TIP3   OH247020   3.418   2.507  16.525 -0.0102  0.0327 -0.3873
 8510TIP3    H147021   3.333   2.465  16.537  0.1612 -0.3100 -0.3783
 8510TIP3    H247022   3.433   2.554  16.607  0.1568 -0.5257 -0.1007
 8511TIP3   OH247023   1.468   1.941   1.550 -0.4127 -0.7610 -0.2542
 8511TIP3    H147024   1.422   1.857   1.557 -1.4766 -0.1697 -0.1452
 8511TIP3    H247025   1.489   1.949   1.457 -2.0685 -0.2244 -0.5908
 8512TIP3   OH247026   5.958   5.791   2.296  0.0108 -0.0305 -0.1701
 8512TIP3    H147027   5.894   5.727   2.327 -1.7671  2.5385  1.6688
 8512TIP3    H247028   5.936   5.803   2.203 -2.6319  1.2000  0.5397
 8513TIP3   OH247029   2.188   5.398   1.582 -0.4259 -0.2075 -0.3130
 8513TIP3    H147030   2.118   5.420   1.520 -1.0634  1.0135  0.8153
 8513TIP3    H247031   2.225   5.482   1.607  1.0232 -0.8088 -0.3878
 8514TIP3   OH247032   1.217   1.917   4.005 -0.1442 -0.0605  0.8992
 8514TIP3    H147033   1.286   1.966   3.959 -0.1567 -0.0512  0.8901
 8514TIP3    H247034   1.255   1.897   4.091  0.5042 -1.4896  0.3042
 8515TIP3   OH247035   6.195   2.030   5.407 -0.1167 -0.7529  0.6990
 8515TIP3    H147036   6.247   2.040   5.487  0.6067 -0.7618  0.2283
 8515TIP3    H247037   6.117   2.083   5.423  0.3340 -0.2160  1.1452
 8516TIP3   OH247038   0.474   1.779   6.636 -0.2911 -0.0175 -0.4537
 8516TIP3    H147039   0.479   1.870   6.665 -0.4374 -0.7798  2.0314
 8516TIP3    H247040   0.565   1.756   6.614  0.0159  0.1978  0.5859
 8517TIP3   OH247041   0.562   6.352   0.215 -0.1792 -0.5542 -0.0139
 8517TIP3    H147042   0.555   6.261   0.245 -1.4192  0.3684  2.6079
 8517TIP3    H247043   0.478   6.391   0.237  0.8046  1.5849  0.0436
 8518TIP3   OH247044   3.209   4.708  12.714 -0.5577 -0.4386  0.6230
 8518TIP3    H147045   3.190   4.673  12.801 -1.3726 -0.3158  0.4994
 8518TIP3    H247046   3.130   4.758  12.691  0.4413  1.2126  0.6654
 8519TIP3   OH247047   4.090   5.018  13.246 -0.2924  0.3049 -0.1472
 8519TIP3    H147048   4.110   5.029  13.339 -0.6317 -0.8734  0.0722
 8519TIP3    H247049   4.161   4.963  13.213  0.0836  1.1108 -0.6967
 8520TIP3   OH247050   2.935   1.020  16.154  0.3360  0.1987  0.2353
 8520TIP3    H147051   3.023   1.006  16.119  0.2264 -2.9192  1.0592
 8520TIP3    H247052   2.879   0.964  16.100 -0.6118 -0.4467  1.8548
 8521TIP3   OH247053   6.011   2.807   4.553 -0.1120 -0.4172 -0.2747
 8521TIP3    H147054   5.974   2.855   4.627 -0.7203 -1.3226  0.0116
 8521TIP3    H247055   6.103   2.836   4.550  0.2865 -1.3753  1.6679
 8522TIP3   OH247056   6.647   3.882  16.050  0.4259 -0.1234  0.1747
 8522TIP3    H147057   6.690   3.905  16.133  0.8455 -0.7090  0.1261
 8522TIP3    H247058   6.652   3.962  15.997  1.4734 -0.1828  0.1679
 8523TIP3   OH247059   0.768   4.425   4.960  0.0166  0.5529  0.7545
 8523TIP3    H147060   0.762   4.336   4.926 -1.5319  1.0380 -0.3188
 8523TIP3    H247061   0.780   4.480   4.882  0.1726  1.3374  1.3253
 8524TIP3   OH247062   3.047   1.176   4.487  0.3275 -0.1783  0.0330
 8524TIP3    H147063   3.098   1.252   4.459 -1.5175  0.9249 -0.4197
 8524TIP3    H247064   2.963   1.212   4.514  0.2214 -1.8254  1.9882
 8525TIP3   OH247065   5.316   2.691   1.959  0.2750 -0.2984 -0.0612
 8525TIP3    H147066   5.346   2.749   1.889  2.0194 -0.7676  0.2924
 8525TIP3    H247067   5.248   2.638   1.918  0.8259 -0.1318 -1.2215
 8526TIP3   OH247068   5.595   1.096  11.034 -0.2567  0.3734  0.2905
 8526TIP3    H147069   5.561   1.048  10.959 -0.8899 -0.7016  1.2763
 8526TIP3    H247070   5.642   1.170  10.994 -0.2847 -0.3779 -1.1764
 8527TIP3   OH247071   5.076   4.054   0.292  0.1689 -0.3187 -0.1043
 8527TIP3    H147072   4.992   4.011   0.275 -0.6729  0.0818  2.8081
 8527TIP3    H247073   5.120   3.996   0.354  0.1079  1.7498  1.9029
 8528TIP3   OH247074   4.343   5.768  13.656  0.0018 -0.1739  0.3002
 8528TIP3    H147075   4.377   5.682  13.679 -0.7227 -0.6982 -0.5729
 8528TIP3    H247076   4.396   5.829  13.707  0.2841 -1.1533  1.1954
 8529TIP3   OH247077   5.055   0.320  11.806 -0.0024 -0.1713 -0.4544
 8529TIP3    H147078   5.027   0.385  11.871  0.3188 -1.0447  0.5640
 8529TIP3    H247079   5.150   0.320  11.812  0.0146 -0.4218 -0.7567
 8530TIP3   OH247080   0.541   5.652   3.929 -0.4524  0.8668  0.3489
 8530TIP3    H147081   0.523   5.615   3.842 -0.7831  1.5409  0.1292
 8530TIP3    H247082   0.460   5.697   3.953 -0.7906 -0.3443  1.5358
 8531TIP3   OH247083   0.282   2.093  10.790  0.2318  0.4681 -0.1237
 8531TIP3    H147084   0.318   2.005  10.797  2.0591  1.2976  0.9918
 8531TIP3    H247085   0.209   2.095  10.853 -0.5767 -0.5955 -1.0072
 8532TIP3   OH247086   0.876   4.296  11.264  0.1255  0.1595  0.3435
 8532TIP3    H147087   0.941   4.262  11.203  0.7246  0.4760  0.7985
 8532TIP3    H247088   0.802   4.323  11.209  0.5488  0.1908 -0.2102
 8533TIP3   OH247089   6.088   0.934  11.358 -0.1770  0.1519  0.4463
 8533TIP3    H147090   6.077   1.000  11.289 -0.8864 -2.1437 -1.6856
 8533TIP3    H247091   6.000   0.920  11.393 -0.3981 -1.2876 -0.6575
 8534TIP3   OH247092   2.670   1.094   0.908 -0.5516 -0.4328 -0.5090
 8534TIP3    H147093   2.752   1.141   0.924 -1.8325  1.4404  0.6982
 8534TIP3    H247094   2.632   1.136   0.831 -1.1207 -0.2919 -0.1542
 8535TIP3   OH247095   5.002   0.906  10.891 -0.2186 -0.5309 -0.4985
 8535TIP3    H147096   4.960   0.820  10.881  0.5044 -1.0196  0.5412
 8535TIP3    H247097   5.070   0.891  10.957 -1.4979  1.3428  1.2960
 8536TIP3   OH247098   5.249   2.488   2.753  0.1538  0.2773 -0.0580
 8536TIP3    H147099   5.176   2.533   2.710 -1.6737 -0.0100  2.5905
 8536TIP3    H247100   5.221   2.397   2.758  1.2813 -0.0820 -0.1902
 8537TIP3   OH247101   4.443   3.127   7.010  0.3094 -0.4047 -0.7324
 8537TIP3    H147102   4.415   3.036   7.012 -1.5245  0.1560  0.4892
 8537TIP3    H247103   4.535   3.123   6.985  0.6574 -2.6867  0.7299
 8538TIP3   OH247104   6.199   5.559  13.185 -0.2124 -0.4396 -0.6763
 8538TIP3    H147105   6.289   5.582  13.209 -0.4960  0.7647 -0.7197
 8538TIP3    H247106   6.148   5.635  13.212 -1.0664 -0.6662 -1.6639
 8539TIP3   OH247107   6.274   5.394   3.566  0.3010 -0.3974 -0.0508
 8539TIP3    H147108   6.213   5.458   3.529  1.2928 -0.0608 -1.1481
 8539TIP3    H247109   6.221   5.317   3.585 -1.1523  1.1638  2.4316
 8540TIP3   OH247110   0.278   0.331  11.962 -0.8516 -0.1410  0.4121
 8540TIP3    H147111   0.220   0.310  12.035 -0.0407 -2.4253  0.4538
 8540TIP3    H247112   0.340   0.258  11.959 -1.3546 -0.5075 -3.0793
 8541TIP3   OH247113   3.162   5.081   3.141  0.0740  0.1132  0.1852
 8541TIP3    H147114   3.253   5.073   3.169 -0.3739  0.7860  1.9295
 8541TIP3    H247115   3.127   4.992   3.148  0.2865  0.0656  0.6921
 8542TIP3   OH247116   0.930   3.339  16.015 -0.0741 -0.0861 -0.1701
 8542TIP3    H147117   0.986   3.406  15.977 -0.0435 -0.8300 -1.4531
 8542TIP3    H247118   0.856   3.333  15.956 -0.3977 -0.7218  0.2976
 8543TIP3   OH247119   0.614   5.024   3.517  0.5073  0.1875 -0.7780
 8543TIP3    H147120   0.548   4.976   3.466 -1.1583  0.9665  0.5730
 8543TIP3    H247121   0.582   5.115   3.517 -0.6698 -0.1250  3.3278
 8544TIP3   OH247122   0.073   2.277   0.086  0.2158  0.1556 -0.4005
 8544TIP3    H147123   0.010   2.344   0.058 -0.9935 -0.6433  0.3933
 8544TIP3    H247124   0.075   2.214   0.014 -0.9815 -0.5676  0.1861
 8545TIP3   OH247125   0.837   6.145   4.260  0.3847 -0.0279  0.2575
 8545TIP3    H147126   0.824   6.051   4.274  2.3544 -0.1962  0.9935
 8545TIP3    H247127   0.832   6.156   4.165 -1.2558 -0.6431  0.2519
 8546TIP3   OH247128   3.544   2.770   1.214 -0.4197  0.4430 -0.0583
 8546TIP3    H147129   3.606   2.801   1.148 -0.6849 -0.6884 -0.8486
 8546TIP3    H247130   3.591   2.700   1.260 -0.9549 -0.1206 -0.3689
 8547TIP3   OH247131   3.904   6.260   3.301 -0.8036  0.1446  0.3989
 8547TIP3    H147132   3.826   6.238   3.352 -0.0257 -0.4080  1.3471
 8547TIP3    H247133   3.915   6.354   3.314 -1.1233  0.1679  0.5098
 8548TIP3   OH247134   3.190   4.620  12.258  0.3316  0.0133  0.2062
 8548TIP3    H147135   3.108   4.623  12.307  0.8020 -0.2725  1.0196
 8548TIP3    H247136   3.192   4.701  12.207 -0.7470 -0.2691 -0.2950
 8549TIP3   OH247137   4.345   1.261  15.888 -0.1601 -0.1470  0.2118
 8549TIP3    H147138   4.420   1.301  15.933 -1.1932  0.3482  1.5536
 8549TIP3    H247139   4.365   1.167  15.887  1.4712  0.2024 -1.3805
 8550TIP3   OH247140   0.645   3.846  15.863  0.0838 -0.3644  0.0675
 8550TIP3    H147141   0.622   3.777  15.925 -2.5808  0.3429 -0.0487
 8550TIP3    H247142   0.719   3.891  15.903 -0.3406 -1.1559  1.7969
 8551TIP3   OH247143   0.952   4.920  15.047 -0.4351  0.5632 -0.1234
 8551TIP3    H147144   1.036   4.961  15.027 -0.0924 -0.0684  0.0355
 8551TIP3    H247145   0.971   4.858  15.117 -0.9002 -0.1061 -0.5861
 8552TIP3   OH247146   2.919   4.187  14.724 -0.5377 -0.2170 -0.1678
 8552TIP3    H147147   2.957   4.178  14.637  0.7704  0.7433  0.2811
 8552TIP3    H247148   2.911   4.282  14.737 -1.1165 -0.3630  0.5938
 8553TIP3   OH247149   6.690   0.905  13.728 -0.0170 -0.3207  0.5655
 8553TIP3    H147150   6.685   0.986  13.677  0.4972  0.1023  1.1773
 8553TIP3    H247151   6.712   0.837  13.664 -0.7822 -0.0417 -0.0057
 8554TIP3   OH247152   4.027   0.472   3.121  0.3498 -0.0343  0.3517
 8554TIP3    H147153   4.121   0.456   3.113  0.3414  0.0826 -0.0056
 8554TIP3    H247154   3.997   0.406   3.184  0.1683 -2.0661 -1.7682
 8555TIP3   OH247155   5.976   0.535   4.909 -0.0037 -0.6337  0.6983
 8555TIP3    H147156   6.011   0.475   4.842  0.8874  1.4239 -0.7262
 8555TIP3    H247157   5.885   0.550   4.881  0.2429 -0.1010  0.1713
 8556TIP3   OH247158   5.950   1.358   1.275 -0.5067  0.1783  0.0473
 8556TIP3    H147159   6.019   1.321   1.329 -1.8567 -1.5038  0.6380
 8556TIP3    H247160   5.997   1.396   1.200  1.1814  0.5380  1.2526
 8557TIP3   OH247161   5.254   6.766   4.047  0.6902 -0.1921 -0.8138
 8557TIP3    H147162   5.330   6.750   4.103  1.1999  0.6623 -1.2529
 8557TIP3    H247163   5.180   6.735   4.099  1.2625 -0.4058 -0.1046
 8558TIP3   OH247164   4.494   4.275  14.532 -0.1609  0.0577 -0.1859
 8558TIP3    H147165   4.507   4.369  14.541  2.5804 -0.4576  1.9189
 8558TIP3    H247166   4.537   4.252  14.450 -0.2158  0.5148 -0.3443
 8559TIP3   OH247167   0.359   0.641  14.730 -0.3562  0.5990  0.3799
 8559TIP3    H147168   0.448   0.675  14.728 -1.0942  2.5830 -2.1017
 8559TIP3    H247169   0.304   0.718  14.710 -2.5719 -0.6782  1.3750
 8560TIP3   OH247170   3.969   4.384  16.406 -0.7689 -0.4428 -0.1233
 8560TIP3    H147171   4.023   4.319  16.361  0.0839  0.2145 -0.0736
 8560TIP3    H247172   4.027   4.420  16.474 -0.8166  1.2502 -0.9619
 8561TIP3   OH247173   5.563   5.096  11.121 -0.7557  0.4115 -0.2357
 8561TIP3    H147174   5.643   5.141  11.148  0.0251 -0.4405 -1.1419
 8561TIP3    H247175   5.553   5.025  11.184 -0.0747 -0.2919 -0.9179
 8562TIP3   OH247176   3.130   0.211  11.662  0.7923  0.4193 -0.2534
 8562TIP3    H147177   3.050   0.177  11.623 -0.9014  2.9627  0.8696
 8562TIP3    H247178   3.190   0.221  11.588 -0.8421  0.9935 -1.5310
 8563TIP3   OH247179   1.107   0.294   5.917 -0.0853  0.3518  0.3048
 8563TIP3    H147180   1.038   0.289   5.983  1.2137  0.9272  1.7493
 8563TIP3    H247181   1.099   0.212   5.868 -1.9426  0.5313  0.2781
 8564TIP3   OH247182   0.065   6.396   2.332 -0.0075 -0.4807 -0.2067
 8564TIP3    H147183  -0.004   6.458   2.311  0.4646 -0.3128 -1.2938
 8564TIP3    H247184   0.039   6.315   2.288  0.1081 -0.6334  0.0042
 8565TIP3   OH247185   6.070   4.395   2.928 -0.1458 -0.5151 -0.4247
 8565TIP3    H147186   6.027   4.350   3.001  0.8944  0.3955  0.7881
 8565TIP3    H247187   6.033   4.355   2.850 -1.3816 -1.4396  0.5997
 8566TIP3   OH247188   1.943   5.649  13.194 -0.3137  0.6702 -0.4499
 8566TIP3    H147189   1.911   5.707  13.264  0.9963 -0.4400  1.1043
 8566TIP3    H247190   1.921   5.561  13.224 -0.2800  0.2171 -1.7425
 8567TIP3   OH247191   1.949   6.220   1.209  0.1129  0.5180  0.2003
 8567TIP3    H147192   1.933   6.299   1.259  0.5109  1.7867 -1.6255
 8567TIP3    H247193   2.029   6.183   1.246 -0.8009  0.2300  1.9370
 8568TIP3   OH247194   4.904   6.593  17.291  0.4291 -0.0814 -0.1104
 8568TIP3    H147195   4.890   6.594  17.197 -0.6718  1.5593  0.0691
 8568TIP3    H247196   4.987   6.640  17.304  0.9897 -1.0007 -0.3120
 8569TIP3   OH247197   1.234   4.596   6.619  0.0017 -0.3335  0.1311
 8569TIP3    H147198   1.222   4.672   6.563 -0.2806  0.7977  1.6956
 8569TIP3    H247199   1.319   4.608   6.660  0.1549 -1.0981  0.0617
 8570TIP3   OH247200   4.299   2.670  11.564  0.6977  0.2189 -0.0928
 8570TIP3    H147201   4.332   2.641  11.479  1.3263  0.8554 -0.0709
 8570TIP3    H247202   4.363   2.735  11.594  1.5831 -1.4132  1.7767
 8571TIP3   OH247203   2.758   3.318   5.774  0.1516 -0.8231  0.0355
 8571TIP3    H147204   2.767   3.271   5.691 -1.6999 -1.2145  0.0469
 8571TIP3    H247205   2.825   3.279   5.830  1.2446 -0.7457 -1.1716
 8572TIP3   OH247206   6.322   3.675  13.185 -0.2486 -0.1563  0.2814
 8572TIP3    H147207   6.359   3.620  13.255  0.3061 -0.6635 -0.4036
 8572TIP3    H247208   6.257   3.729  13.230  0.0742 -0.4979  1.1905
 8573TIP3   OH247209   0.357   5.876  13.138 -0.3810 -0.2947  0.6545
 8573TIP3    H147210   0.400   5.836  13.213  1.6391 -0.3955 -0.5212
 8573TIP3    H247211   0.407   5.956  13.122 -0.9320 -0.1614 -0.4459
 8574TIP3   OH247212   0.959   2.449  14.661 -0.1003 -0.4472 -0.4559
 8574TIP3    H147213   0.876   2.439  14.613 -0.3234  1.2154 -0.4425
 8574TIP3    H247214   0.942   2.408  14.746 -1.2131  0.6924 -0.1223
 8575TIP3   OH247215   1.173   1.890   2.622  1.0893 -0.6146  0.4314
 8575TIP3    H147216   1.124   1.808   2.631 -1.1678  0.6529  0.0303
 8575TIP3    H247217   1.223   1.897   2.703 -0.0444 -1.5402  1.2380
 8576TIP3   OH247218   0.531   6.130   4.912 -0.2901  0.7198  0.1074
 8576TIP3    H147219   0.490   6.217   4.910  1.1308  1.4755  1.6581
 8576TIP3    H247220   0.497   6.090   4.992 -0.2208  0.2240 -0.1148
 8577TIP3   OH247221   0.147   6.257   5.741 -0.0448  0.7636  0.7049
 8577TIP3    H147222   0.083   6.282   5.808 -1.3804  0.0107 -0.2532
 8577TIP3    H247223   0.142   6.161   5.737  0.0421  0.7900 -0.4182
 8578TIP3   OH247224   3.246   6.150   0.064 -0.2575 -0.3601 -0.2022
 8578TIP3    H147225   3.307   6.126  -0.006 -0.5476  0.5573 -0.7808
 8578TIP3    H247226   3.176   6.085   0.058 -0.9512  0.4834 -1.6405
 8579TIP3   OH247227   1.787   4.727  12.446 -0.2231  0.4380 -0.2410
 8579TIP3    H147228   1.800   4.821  12.463 -1.2945  0.2000  2.0828
 8579TIP3    H247229   1.783   4.721  12.350  1.4469  2.5303 -0.5010
 8580TIP3   OH247230   0.998   5.371  10.975 -0.2506  0.3229  0.4871
 8580TIP3    H147231   1.050   5.427  10.917 -1.1590  1.0750  0.3869
 8580TIP3    H247232   0.969   5.430  11.045  0.2763 -0.4272  1.3458
 8581TIP3   OH247233   3.420   3.300   3.348  0.5590  0.4231  0.1388
 8581TIP3    H147234   3.403   3.322   3.257  1.6442  1.0321  0.0833
 8581TIP3    H247235   3.405   3.382   3.396 -0.0079  0.1071  0.5086
 8582TIP3   OH247236   5.397   6.566   0.682  0.9752  0.5593  0.3637
 8582TIP3    H147237   5.483   6.564   0.639 -0.2126 -0.6398 -2.0210
 8582TIP3    H247238   5.363   6.477   0.671 -1.3285  1.5016 -0.2612
 8583TIP3   OH247239   1.326   1.325  11.226 -0.0548  0.0063  0.4735
 8583TIP3    H147240   1.303   1.405  11.179  0.3042 -0.4900 -0.5628
 8583TIP3    H247241   1.356   1.355  11.312  0.4202  1.0115 -0.0383
 8584TIP3   OH247242   2.343   4.283  14.639 -0.0654  0.4281  0.3115
 8584TIP3    H147243   2.277   4.288  14.708  1.6762 -1.8752  2.2543
 8584TIP3    H247244   2.408   4.349  14.662 -0.6849  1.3047 -0.4630
 8585TIP3   OH247245   3.103   5.001   2.496 -0.5799 -0.5604 -0.4773
 8585TIP3    H147246   3.072   4.930   2.440 -1.4563 -0.9258  0.4531
 8585TIP3    H247247   3.026   5.056   2.510 -0.6484 -1.0463  1.2101
 8586TIP3   OH247248   1.064   4.031  15.770 -0.1667 -0.1405 -0.3301
 8586TIP3    H147249   1.019   4.040  15.854 -0.3163 -0.5475 -0.3681
 8586TIP3    H247250   1.151   3.998  15.793  0.2030  0.8794 -0.2362
 8587TIP3   OH247251   3.050   4.494   1.081  0.1205  0.1572  0.1018
 8587TIP3    H147252   3.017   4.582   1.101 -2.0653 -1.2169  2.8805
 8587TIP3    H247253   3.090   4.465   1.163  0.8259 -1.4700 -0.8046
 8588TIP3   OH247254   5.442   2.412  15.010  0.0912 -0.2375  0.0166
 8588TIP3    H147255   5.486   2.496  15.023 -0.7304 -0.1022  2.1276
 8588TIP3    H247256   5.354   2.434  14.981 -0.1223 -0.3736  0.5588
 8589TIP3   OH247257   4.893   4.474  15.594  0.3490 -0.6065 -0.0092
 8589TIP3    H147258   4.891   4.384  15.563  1.6857 -1.5047  2.3441
 8589TIP3    H247259   4.853   4.470  15.681 -1.1057  1.3924 -0.5309
 8590TIP3   OH247260   5.865   5.359  13.002 -0.1692 -0.3764 -0.1971
 8590TIP3    H147261   5.911   5.413  12.937 -1.9601  2.0166  0.4773
 8590TIP3    H247262   5.901   5.387  13.086 -1.2965 -0.0371  0.1773
 8591TIP3   OH247263   5.264   4.831   2.007 -0.5451 -0.4876  0.0957
 8591TIP3    H147264   5.340   4.862   2.057 -1.2864 -0.3255  1.1258
 8591TIP3    H247265   5.244   4.745   2.044 -1.0759 -0.3775  0.0698
 8592TIP3   OH247266   2.007   0.302  12.258  0.3080  0.0636  0.4514
 8592TIP3    H147267   1.941   0.346  12.313 -1.0007 -0.7770 -0.4233
 8592TIP3    H247268   2.061   0.374  12.224 -0.3067  0.7920  0.9910
 8593TIP3   OH247269   1.883   5.671  14.673  0.2298 -0.0831  0.1354
 8593TIP3    H147270   1.967   5.709  14.699 -0.6471  1.1553  1.1861
 8593TIP3    H247271   1.858   5.617  14.748  0.7230 -1.5386 -0.7265
 8594TIP3   OH247272   5.171   3.209  11.569 -0.2370 -0.1505  0.4056
 8594TIP3    H147273   5.189   3.288  11.620  0.5496 -1.0611  1.5736
 8594TIP3    H247274   5.246   3.153  11.585 -2.2575 -2.4543  2.2149
 8595TIP3   OH247275   6.521   5.865   4.735  0.3044 -0.3204  0.0984
 8595TIP3    H147276   6.540   5.937   4.675 -0.3741 -0.2846 -0.0783
 8595TIP3    H247277   6.508   5.907   4.820 -1.8251 -0.0321 -0.3369
 8596TIP3   OH247278   0.525   2.284   6.320 -0.1683  0.2256 -0.0893
 8596TIP3    H147279   0.594   2.237   6.367  1.0944  0.0626 -2.0378
 8596TIP3    H247280   0.444   2.245   6.351  0.5678  0.5671  2.4225
 8597TIP3   OH247281   1.643   0.797  11.290 -0.2531 -0.6619  0.3473
 8597TIP3    H147282   1.614   0.770  11.203  0.0226  0.4719 -0.1068
 8597TIP3    H247283   1.670   0.888  11.279 -0.7302 -0.3437  1.7428
 8598TIP3   OH247284   6.634   3.563  12.212 -0.6293  0.0680  0.2469
 8598TIP3    H147285   6.677   3.506  12.149 -0.5165  0.3830  0.0382
 8598TIP3    H247286   6.594   3.631  12.159 -2.2504 -0.7737  0.3469
 8599TIP3   OH247287   5.107   0.101  11.377 -0.1746  0.0617 -0.0311
 8599TIP3    H147288   5.188   0.148  11.356 -0.5352  0.5658 -0.3190
 8599TIP3    H247289   5.075   0.069  11.293 -0.6910  0.5582 -0.0321
 8600TIP3   OH247290   4.244   6.735   1.993 -0.1566 -0.0426 -0.5686
 8600TIP3    H147291   4.275   6.820   1.963  0.4632 -0.2891 -0.6420
 8600TIP3    H247292   4.195   6.754   2.073 -2.0998  0.6450 -1.9006
 8601TIP3   OH247293   0.590   2.722   5.489  0.3945 -0.6463  0.5710
 8601TIP3    H147294   0.601   2.801   5.435  0.7594 -0.8827  0.3016
 8601TIP3    H247295   0.582   2.651   5.426 -3.0186 -0.4785  0.7138
 8602TIP3   OH247296   1.074   5.220   2.517  0.1335 -0.2769 -0.8206
 8602TIP3    H147297   0.998   5.273   2.540  0.0219 -0.1609 -1.4406
 8602TIP3    H247298   1.073   5.148   2.580  0.6339  0.7740  0.4118
 8603TIP3   OH247299   0.475   6.121   1.657  0.1031 -0.0863 -0.4927
 8603TIP3    H147300   0.412   6.050   1.650 -2.1774  1.9155 -0.8319
 8603TIP3    H247301   0.500   6.123   1.749 -1.9345  0.4352  0.0687
 8604TIP3   OH247302   2.945   0.760  15.647 -0.5492  0.3264 -0.1985
 8604TIP3    H147303   2.925   0.667  15.635  0.0863  0.2011 -0.3003
 8604TIP3    H247304   2.860   0.803  15.652 -0.8555 -0.3548  0.5191
 8605TIP3   OH247305   6.792   3.000   6.054  0.3216 -0.1691  0.0294
 8605TIP3    H147306   6.706   2.987   6.095  0.4241 -1.5366 -0.1851
 8605TIP3    H247307   6.849   2.937   6.096  1.2266  0.7065  0.1293
 8606TIP3   OH247308   1.399   0.025  12.737  0.0249 -0.2199 -0.0371
 8606TIP3    H147309   1.311   0.054  12.759 -0.5381 -0.9190 -1.3001
 8606TIP3    H247310   1.399  -0.069  12.757  1.3304  0.2586  2.4996
 8607TIP3   OH247311   3.098   1.565   4.730 -0.0157  0.1584 -0.0900
 8607TIP3    H147312   3.029   1.632   4.727  1.3175  1.5084 -1.2312
 8607TIP3    H247313   3.176   1.610   4.700  1.4248 -1.3266  1.3561
 8608TIP3   OH247314   3.746   2.771   3.548  0.3372  0.0934  0.0222
 8608TIP3    H147315   3.652   2.757   3.535  0.6012 -0.6826 -1.0893
 8608TIP3    H247316   3.756   2.866   3.554  0.0136  0.4382 -4.0120
 8609TIP3   OH247317   1.592   0.915   4.315  0.0211 -0.1168 -0.0769
 8609TIP3    H147318   1.503   0.885   4.337  0.1578 -0.2957  0.2292
 8609TIP3    H247319   1.640   0.910   4.397  0.5354 -0.8162 -0.4127
 8610TIP3   OH247320   6.701   4.963  11.894  0.2318 -0.2757  0.2702
 8610TIP3    H147321   6.756   4.971  11.972  0.1553 -2.5586  0.6038
 8610TIP3    H247322   6.729   4.881  11.854  1.2568  1.5535 -2.9076
 8611TIP3   OH247323   1.412   3.871   5.196 -0.4571 -0.4673  0.2508
 8611TIP3    H147324   1.334   3.914   5.230  0.4067  0.1644  1.4609
 8611TIP3    H247325   1.423   3.794   5.252 -0.5021 -0.8427 -0.2504
 8612TIP3   OH247326   5.607   2.512  15.295  0.6852  0.5658  0.2305
 8612TIP3    H147327   5.574   2.438  15.347  0.6691  0.4511  0.0567
 8612TIP3    H247328   5.655   2.472  15.223 -1.1562  0.6543 -1.1035
 8613TIP3   OH247329   5.994   1.445  15.365 -0.4148  0.2350 -0.2621
 8613TIP3    H147330   6.022   1.536  15.351 -2.8688  1.1429  0.3448
 8613TIP3    H247331   5.928   1.430  15.297  0.3965 -1.3013 -0.7158
 8614TIP3   OH247332   1.018   4.788   5.056  0.0691  0.0409  0.8872
 8614TIP3    H147333   0.946   4.788   4.993  0.3537  1.4336  0.5394
 8614TIP3    H247334   0.993   4.723   5.122 -0.4574 -1.0799 -0.3987
 8615TIP3   OH247335   3.927   3.361   1.945  0.1549  0.2710 -0.1813
 8615TIP3    H147336   3.859   3.381   2.009  1.3049  1.5115  0.6781
 8615TIP3    H247337   3.981   3.294   1.988 -0.8616 -1.1940 -1.1195
 8616TIP3   OH247338   3.054   4.529  17.125  0.1373  0.7899  0.4985
 8616TIP3    H147339   3.014   4.611  17.153  3.8076  2.9845 -0.3138
 8616TIP3    H247340   3.125   4.514  17.187  0.6955 -0.7515 -0.4706
 8617TIP3   OH247341   0.327   6.684   4.824  0.0955 -0.1401 -0.8082
 8617TIP3    H147342   0.327   6.775   4.854 -0.7105 -1.1394  2.4469
 8617TIP3    H247343   0.237   6.667   4.797  0.1619 -0.0865 -1.0662
 8618TIP3   OH247344   4.652   1.638   0.496 -0.4540 -0.2013  0.2265
 8618TIP3    H147345   4.563   1.661   0.519 -0.7600 -0.3654 -0.7628
 8618TIP3    H247346   4.705   1.711   0.529 -1.0617  0.3815 -0.0647
 8619TIP3   OH247347   1.850   2.438  15.583 -0.0230 -0.5776 -0.1187
 8619TIP3    H147348   1.806   2.512  15.543  1.2233  0.3840  0.2649
 8619TIP3    H247349   1.838   2.451  15.677  0.4540 -0.6911 -0.0384
 8620TIP3   OH247350   1.739   3.667  11.047 -0.2547 -0.7691 -0.1804
 8620TIP3    H147351   1.691   3.706  10.975 -0.5968 -0.2408  0.3285
 8620TIP3    H247352   1.739   3.734  11.116  3.5663  0.3498 -1.1136
 8621TIP3   OH247353   3.278   4.497   6.439 -0.4679 -0.2084  0.4916
 8621TIP3    H147354   3.256   4.409   6.408  2.1056 -0.5021 -0.5654
 8621TIP3    H247355   3.235   4.555   6.377 -0.2912 -0.7479 -0.1407
 8622TIP3   OH247356   3.865   2.940   5.893  0.0909 -0.0208  0.5094
 8622TIP3    H147357   3.888   3.006   5.959 -1.2567  0.0065  0.9551
 8622TIP3    H247358   3.866   2.857   5.941  1.9311 -0.3852 -0.0823
 8623TIP3   OH247359   0.771   4.988  12.444 -0.0063  0.2453 -0.5719
 8623TIP3    H147360   0.676   4.981  12.451  0.1213 -0.5830  0.3166
 8623TIP3    H247361   0.786   5.079  12.418 -1.0662  0.2188 -1.3343
 8624TIP3   OH247362   1.588   3.148   0.912 -0.1928 -0.3941  0.4672
 8624TIP3    H147363   1.539   3.219   0.870  1.0022 -0.9512 -1.9296
 8624TIP3    H247364   1.523   3.079   0.924 -0.7634  0.1281  0.4241
 8625TIP3   OH247365   1.549   3.898  12.977  0.5345  0.3079  0.0847
 8625TIP3    H147366   1.528   3.863  12.891  0.2704  1.1915 -0.2111
 8625TIP3    H247367   1.638   3.933  12.968  1.7225 -2.3072  0.9946
 8626TIP3   OH247368   5.954   4.805   3.911 -0.0601  0.3010  0.5130
 8626TIP3    H147369   5.999   4.783   3.829 -1.9886  0.5897 -0.6469
 8626TIP3    H247370   5.930   4.897   3.901 -2.3243 -0.2854  0.4304
 8627TIP3   OH247371   3.399   6.560  15.922  0.1653  0.9308  0.3748
 8627TIP3    H147372   3.305   6.573  15.918 -0.0838  0.3333  3.1476
 8627TIP3    H247373   3.436   6.648  15.920 -0.5014  1.2115  0.3181
 8628TIP3   OH247374   0.638   5.841   0.310  0.3511 -0.4096  0.2083
 8628TIP3    H147375   0.732   5.857   0.302  0.2528  0.0223 -0.1335
 8628TIP3    H247376   0.629   5.788   0.389  0.9566 -1.1448 -0.2187
 8629TIP3   OH247377   0.665   2.246  14.398  0.2487 -0.0258  0.2979
 8629TIP3    H147378   0.689   2.230  14.307 -0.8011  1.1037 -0.1825
 8629TIP3    H247379   0.743   2.222  14.448  0.7538 -0.8494 -0.8779
 8630TIP3   OH247380   2.793   2.668   2.044 -0.2574 -0.0771  0.1316
 8630TIP3    H147381   2.765   2.757   2.066  0.7551  0.2944 -0.0356
 8630TIP3    H247382   2.740   2.645   1.967 -2.0614 -0.4602  1.4428
 8631TIP3   OH247383   5.789   6.810   0.686 -0.5338  0.6613  0.5166
 8631TIP3    H147384   5.867   6.758   0.705 -1.1448  0.2343  1.9290
 8631TIP3    H247385   5.778   6.866   0.763  0.4090  3.2838 -1.1686
 8632TIP3   OH247386   6.011   2.278   1.307  0.2287 -0.2357  0.5836
 8632TIP3    H147387   5.936   2.337   1.302 -0.3633 -1.0208 -0.1150
 8632TIP3    H247388   5.977   2.201   1.353  0.5834 -0.6239  0.1975
 8633TIP3   OH247389   0.735   3.973   1.786 -0.0183 -0.2367 -0.6331
 8633TIP3    H147390   0.717   4.065   1.767  0.9315 -0.0869 -0.7958
 8633TIP3    H247391   0.757   3.971   1.879  0.9153 -0.1562 -0.8486
 8634TIP3   OH247392   4.958   0.775   6.348  0.0053  0.2576 -1.1273
 8634TIP3    H147393   4.980   0.861   6.384  1.4138 -0.6868  0.3423
 8634TIP3    H247394   5.014   0.766   6.271  2.0507 -0.5170  0.3848
 8635TIP3   OH247395   6.561   1.925   1.273  0.0894 -0.4725 -0.5415
 8635TIP3    H147396   6.613   2.004   1.257 -0.8399  0.1888 -0.3120
 8635TIP3    H247397   6.616   1.872   1.330  1.4466 -0.7593 -2.0829
 8636TIP3   OH247398   0.533   0.954   1.306 -0.2850 -0.0917 -0.1462
 8636TIP3    H147399   0.592   1.019   1.344 -0.3922 -1.5819  2.7400
 8636TIP3    H247400   0.447   0.974   1.343 -0.8316 -0.2832 -1.2964
 8637TIP3   OH247401   2.721   1.926   0.019 -0.2733  0.4370  0.2134
 8637TIP3    H147402   2.781   1.995  -0.007  0.3670 -0.4294 -0.6229
 8637TIP3    H247403   2.769   1.875   0.084 -1.1384  1.3989  1.6499
 8638TIP3   OH247404   3.062   5.834   5.698  0.1909  0.0221  0.0078
 8638TIP3    H147405   3.063   5.895   5.624 -1.6365 -0.4561 -0.4358
 8638TIP3    H247406   3.115   5.760   5.669 -0.5403 -0.1760 -0.8362
 8639TIP3   OH247407   3.506   4.635   2.271 -0.0323 -0.1982 -0.8173
 8639TIP3    H147408   3.494   4.544   2.297  0.1584  0.2192  0.8318
 8639TIP3    H247409   3.499   4.684   2.353  1.4077  1.1178 -1.4536
 8640TIP3   OH247410   4.242   6.416  15.153  0.3280  0.3193 -0.1496
 8640TIP3    H147411   4.226   6.509  15.137  0.0666  0.2365 -0.3753
 8640TIP3    H247412   4.219   6.403  15.244 -1.1940  0.1391 -0.5502
 8641TIP3   OH247413   3.753   5.468  14.182 -0.1269 -0.0402  0.5287
 8641TIP3    H147414   3.822   5.516  14.229  0.8042 -0.3381 -0.5043
 8641TIP3    H247415   3.685   5.533  14.167  0.8372  0.8024 -0.2808
 8642TIP3   OH247416   1.899   3.264   0.427  0.2830 -0.0445  0.0346
 8642TIP3    H147417   1.901   3.226   0.339  0.7062 -1.1536  0.5074
 8642TIP3    H247418   1.859   3.195   0.481 -1.3919  1.2138  0.4415
 8643TIP3   OH247419   5.749   2.830   3.381  0.7048  0.1086 -0.2365
 8643TIP3    H147420   5.838   2.801   3.398  0.8000  0.7079  0.3131
 8643TIP3    H247421   5.705   2.823   3.466  0.5453  0.9186 -0.2472
 8644TIP3   OH247422   2.032   2.710  12.107 -0.5882 -0.6694 -0.4163
 8644TIP3    H147423   2.006   2.742  12.193 -0.7713  1.6047 -1.3035
 8644TIP3    H247424   2.123   2.680  12.119  0.2050  1.8318  0.0324
 8645TIP3   OH247425   5.148   1.585  11.508 -0.1121 -0.1532 -0.1395
 8645TIP3    H147426   5.178   1.604  11.597 -0.8756 -0.3176  0.1565
 8645TIP3    H247427   5.056   1.560  11.519 -0.5450  0.9787 -1.1117
 8646TIP3   OH247428   5.373   3.313  12.081  0.0514  0.6306  0.0960
 8646TIP3    H147429   5.407   3.249  12.019  0.0111  0.3194  0.3935
 8646TIP3    H247430   5.283   3.327  12.054  0.3928  1.4264 -0.6725
 8647TIP3   OH247431   5.270   1.079   3.104  0.1481 -0.5893 -0.1902
 8647TIP3    H147432   5.213   1.137   3.155 -2.5058 -3.0252 -0.2117
 8647TIP3    H247433   5.252   1.100   3.013  1.0620  0.2429 -0.1868
 8648TIP3   OH247434   2.996   1.518  15.864 -0.3312 -0.4169  0.0095
 8648TIP3    H147435   3.073   1.463  15.848 -0.8699 -1.0471 -0.4314
 8648TIP3    H247436   2.922   1.458  15.860 -0.8819  0.2537  0.0546
 8649TIP3   OH247437   6.808   5.330   4.763  0.7830  0.3946  0.5614
 8649TIP3    H147438   6.759   5.413   4.760  0.4964  0.1934 -0.3490
 8649TIP3    H247439   6.881   5.343   4.703 -1.1278 -1.1784 -2.2242
 8650TIP3   OH247440   1.901   1.425   2.134  1.0334 -0.6553 -0.4432
 8650TIP3    H147441   1.837   1.357   2.116  1.3724 -0.9688 -0.4637
 8650TIP3    H247442   1.859   1.506   2.104 -0.6310 -0.3849  2.4656
 8651TIP3   OH247443   6.173   4.994  12.656  0.6129  0.2595  0.0722
 8651TIP3    H147444   6.121   4.923  12.618 -0.4260  1.6897 -1.2884
 8651TIP3    H247445   6.108   5.062  12.677  1.7718  1.5147 -0.3260
 8652TIP3   OH247446   5.682   5.966  17.242  0.2651  0.7339 -0.7635
 8652TIP3    H147447   5.610   5.930  17.294 -0.6102 -0.1602 -2.5399
 8652TIP3    H247448   5.648   6.049  17.209  0.7289  1.1825 -0.1259
 8653TIP3   OH247449   5.823   1.079  11.853  0.4184 -0.6196  0.3398
 8653TIP3    H147450   5.769   1.091  11.775  1.2659 -1.0128 -0.3072
 8653TIP3    H247451   5.879   1.004  11.832  3.2798  1.5876 -0.1408
 8654TIP3   OH247452   0.414   2.668   1.823 -0.4904 -0.3972 -0.2504
 8654TIP3    H147453   0.379   2.608   1.889 -2.1229  1.7694  0.9071
 8654TIP3    H247454   0.386   2.631   1.740 -2.2525 -0.7736  0.4827
 8655TIP3   OH247455   0.220   0.974   3.460  0.1082 -0.1596 -0.3849
 8655TIP3    H147456   0.272   1.020   3.526  0.9065 -1.3952 -0.1297
 8655TIP3    H247457   0.208   1.038   3.390  1.3254  0.3872 -0.1011
 8656TIP3   OH247458   0.152   0.132   1.483  0.2606 -0.4659  0.0074
 8656TIP3    H147459   0.228   0.184   1.456  0.0389 -0.4926 -0.6772
 8656TIP3    H247460   0.174   0.043   1.457 -0.5907 -0.2649 -1.4824
 8657TIP3   OH247461   3.526   6.428  12.667  0.0487 -0.8209  0.0091
 8657TIP3    H147462   3.445   6.415  12.717 -0.9237 -0.2408 -1.3955
 8657TIP3    H247463   3.498   6.437  12.576  1.7887 -1.6247 -0.6327
 8658TIP3   OH247464   4.084   3.897  13.456 -0.9142  0.1529 -0.4356
 8658TIP3    H147465   4.089   3.956  13.381  0.3814  1.3008  0.5351
 8658TIP3    H247466   4.171   3.859  13.464 -0.3759  1.7396  1.8185
 8659TIP3   OH247467   6.800   2.232   2.841  1.0893  0.0063 -0.3825
 8659TIP3    H147468   6.855   2.183   2.780 -0.9743 -2.5226 -0.2829
 8659TIP3    H247469   6.730   2.268   2.787  1.6426  1.4583 -0.1683
 8660TIP3   OH247470   2.044   3.138  15.418  0.2468  0.4006 -0.2134
 8660TIP3    H147471   2.041   3.170  15.508  0.6472  1.8357 -0.6898
 8660TIP3    H247472   1.957   3.103  15.402  0.9825 -2.3872  1.6076
 8661TIP3   OH247473   3.769   3.475  15.411 -0.2062  0.5178  0.1205
 8661TIP3    H147474   3.843   3.519  15.455  0.0026 -0.1992  0.4951
 8661TIP3    H247475   3.752   3.398  15.464 -1.4614  0.8525  0.2252
 8662TIP3   OH247476   5.833   2.628  13.463 -0.1173 -0.1218  0.0307
 8662TIP3    H147477   5.775   2.628  13.387  0.7874  0.1345 -0.6678
 8662TIP3    H247478   5.888   2.706  13.451 -1.7389  1.4560  2.3216
 8663TIP3   OH247479   3.208   0.387   2.141 -0.3748 -0.0811  0.1262
 8663TIP3    H147480   3.220   0.467   2.089 -2.4734  0.2967  0.1871
 8663TIP3    H247481   3.232   0.414   2.230  0.8453 -0.0743 -0.1878
 8664TIP3   OH247482   2.286   1.776  12.804 -0.1687  0.0166 -0.2902
 8664TIP3    H147483   2.365   1.828  12.789 -1.0515  1.6105  0.3852
 8664TIP3    H247484   2.318   1.689  12.827  1.4829  1.1811  2.0827
 8665TIP3   OH247485   6.496   0.976  15.339  0.2331 -0.6791 -0.3800
 8665TIP3    H147486   6.572   1.027  15.366 -0.4037  0.5039 -0.7907
 8665TIP3    H247487   6.432   0.991  15.409 -0.7018  0.7759 -1.5292
 8666TIP3   OH247488   2.360   2.937  12.881 -0.1691  0.2710 -0.0036
 8666TIP3    H147489   2.447   2.957  12.848 -0.6852  1.4575 -0.6734
 8666TIP3    H247490   2.375   2.898  12.967  1.0675 -0.6943 -0.6499
 8667TIP3   OH247491   3.154   6.603  12.356 -0.5862  0.3023  0.1819
 8667TIP3    H147492   3.111   6.677  12.313 -1.4501 -0.2262  0.1294
 8667TIP3    H247493   3.124   6.527  12.307 -0.4761 -0.1773  0.8615
 8668TIP3   OH247494   3.260   2.462   0.393 -0.3935 -0.8223 -0.0098
 8668TIP3    H147495   3.264   2.429   0.303 -0.4461 -2.7575  0.6915
 8668TIP3    H247496   3.293   2.390   0.446  0.1462  0.5104  1.4890
 8669TIP3   OH247497   4.248   1.003  15.186 -1.0270  0.0741 -0.4109
 8669TIP3    H147498   4.272   1.058  15.112 -5.1267 -0.0000 -1.8694
 8669TIP3    H247499   4.285   0.917  15.164  0.5831  0.8413 -0.7753
 8670TIP3   OH247500   5.379   3.702  16.620  0.5225 -0.9995 -0.0417
 8670TIP3    H147501   5.442   3.662  16.681  1.0826 -2.5545 -1.5933
 8670TIP3    H247502   5.423   3.700  16.535 -1.7900 -2.6422 -1.2752
 8671TIP3   OH247503   3.506   0.018   6.146 -0.7042  0.3651  0.2814
 8671TIP3    H147504   3.434   0.039   6.086 -1.6673 -1.9127  0.5815
 8671TIP3    H247505   3.545   0.103   6.166 -4.6670  1.9656  1.8278
 8672TIP3   OH247506   0.646   2.964   1.490 -0.1990 -0.0278 -0.2104
 8672TIP3    H147507   0.641   3.057   1.468  0.4398  0.0491 -0.0433
 8672TIP3    H247508   0.575   2.950   1.552 -0.3078  0.3452 -0.2517
 8673TIP3   OH247509   3.226   2.726   5.171  0.0044  0.4467  0.1058
 8673TIP3    H147510   3.248   2.818   5.156  1.2960  0.2339  0.6035
 8673TIP3    H247511   3.139   2.728   5.209 -0.1252  1.4440 -0.2311
 8674TIP3   OH247512   5.423   1.861   6.024  0.1786 -0.2504  0.9057
 8674TIP3    H147513   5.483   1.842   6.095  1.3159 -1.0642 -0.2489
 8674TIP3    H247514   5.473   1.917   5.964  0.7601 -3.1381 -1.4191
 8675TIP3   OH247515   5.652   3.193  14.800  0.1501 -0.4024 -0.2996
 8675TIP3    H147516   5.601   3.123  14.759  0.5154 -0.3412 -0.8497
 8675TIP3    H247517   5.647   3.173  14.894 -0.1109 -0.9224 -0.4183
 8676TIP3   OH247518   4.334   3.095   5.343  0.1242 -0.3240 -0.0831
 8676TIP3    H147519   4.288   3.123   5.423  0.5574 -0.7721  0.3263
 8676TIP3    H247520   4.397   3.165   5.326 -2.0411  1.2935 -1.7842
 8677TIP3   OH247521   5.329   1.120   0.214  0.1787  0.5092 -0.2094
 8677TIP3    H147522   5.312   1.030   0.241  1.6061  0.8073  1.7959
 8677TIP3    H247523   5.406   1.114   0.158 -0.6688  0.3250 -1.3897
 8678TIP3   OH247524   5.529   5.112  14.757 -0.6524 -0.6956 -0.0598
 8678TIP3    H147525   5.553   5.062  14.679  0.9474  0.4458 -0.3264
 8678TIP3    H247526   5.531   5.048  14.828 -3.3026 -2.0016 -1.1097
 8679TIP3   OH247527   1.558   4.754  17.039 -0.6775 -0.1152 -0.2380
 8679TIP3    H147528   1.540   4.847  17.028 -0.6687 -0.0671  0.1510
 8679TIP3    H247529   1.528   4.714  16.957  0.9432  0.4629 -1.1474
 8680TIP3   OH247530   0.550   2.044  17.078 -0.0670  0.3888  0.4323
 8680TIP3    H147531   0.512   2.049  16.990  0.1922  0.5325  0.3295
 8680TIP3    H247532   0.568   2.135  17.102  2.1179  0.2067 -0.3584
 8681TIP3   OH247533   1.530   4.658  13.538  0.0656 -0.1985  0.5571
 8681TIP3    H147534   1.560   4.748  13.527  0.2580 -0.3343 -0.0433
 8681TIP3    H247535   1.543   4.640  13.631 -1.2097  0.8282  0.9421
 8682TIP3   OH247536   1.725   5.857   3.268  0.0700  0.5773 -0.3426
 8682TIP3    H147537   1.635   5.888   3.260  0.0583  0.4646 -0.6339
 8682TIP3    H247538   1.718   5.769   3.305  0.0008  0.0774 -1.5376
 8683TIP3   OH247539   2.313   2.640  12.703 -0.2549  0.2173  0.2390
 8683TIP3    H147540   2.260   2.664  12.779  2.0025  1.4183  1.5044
 8683TIP3    H247541   2.397   2.683  12.719 -0.0729  1.3527 -3.4860
 8684TIP3   OH247542   3.849   3.719  13.484  0.3576 -0.2524  0.2913
 8684TIP3    H147543   3.919   3.772  13.447  0.9341 -0.9119  0.4383
 8684TIP3    H247544   3.881   3.693  13.570 -0.4372  0.1797  0.7272
 8685TIP3   OH247545   4.894   4.467   1.858  0.3628  0.6129  0.5493
 8685TIP3    H147546   4.911   4.499   1.769  0.1248 -0.9323 -0.0693
 8685TIP3    H247547   4.804   4.493   1.876  0.6338  1.5233  0.6041
 8686TIP3   OH247548   6.435   1.132  16.834 -0.4049  0.5937  0.0998
 8686TIP3    H147549   6.455   1.099  16.922 -0.7567 -0.2325 -0.1258
 8686TIP3    H247550   6.390   1.059  16.791 -0.1021  0.9494 -0.8150
 8687TIP3   OH247551   1.898   0.634  14.698  0.2003 -0.0183 -0.7238
 8687TIP3    H147552   1.986   0.668  14.715  0.9700 -1.5560 -1.5788
 8687TIP3    H247553   1.849   0.710  14.665  0.7733  1.2010  1.1522
 8688TIP3   OH247554   5.356   2.068   2.760  0.2115  0.4270  0.6314
 8688TIP3    H147555   5.433   2.044   2.811 -0.5760 -2.9952  0.3206
 8688TIP3    H247556   5.391   2.095   2.675  1.1000 -0.4935  0.7029
 8689TIP3   OH247557   6.251   3.024   6.111  0.4979  0.3481 -0.2729
 8689TIP3    H147558   6.177   2.969   6.085  1.1373 -1.1751  1.0756
 8689TIP3    H247559   6.215   3.112   6.114 -0.8811 -0.1604 -1.1414
 8690TIP3   OH247560   3.244   4.088  13.311 -0.1366 -0.2532 -0.4869
 8690TIP3    H147561   3.185   4.125  13.377 -1.0259 -0.3204 -1.2352
 8690TIP3    H247562   3.262   3.999  13.342 -1.2763 -0.6040 -0.7821
 8691TIP3   OH247563   4.323   1.610   3.653 -0.3407 -0.4307  0.0555
 8691TIP3    H147564   4.264   1.537   3.633 -2.5761  0.5979  2.6174
 8691TIP3    H247565   4.345   1.599   3.745  0.8976  1.0465 -0.0471
 8692TIP3   OH247566   2.185   1.864  15.252  0.0279  0.4243 -0.2039
 8692TIP3    H147567   2.123   1.902  15.314 -1.3693 -1.5828 -0.3068
 8692TIP3    H247568   2.214   1.783  15.295 -0.2344 -0.5027 -1.7268
 8693TIP3   OH247569   1.855   2.749  17.258 -0.0769 -0.5114 -0.3153
 8693TIP3    H147570   1.927   2.774  17.316  0.5894  3.1802 -2.6208
 8693TIP3    H247571   1.897   2.704  17.185 -0.3795 -0.6600 -0.3995
 8694TIP3   OH247572   4.533   0.258   2.787 -0.0818 -0.1631 -0.8126
 8694TIP3    H147573   4.620   0.296   2.795 -0.1404  0.0726 -1.3339
 8694TIP3    H247574   4.548   0.174   2.743  0.1529 -1.1533  1.0871
 8695TIP3   OH247575   0.936   2.581  14.933 -0.2845 -0.0836  0.7054
 8695TIP3    H147576   1.002   2.523  14.896  0.0677  0.7157  0.0362
 8695TIP3    H247577   0.879   2.602  14.859 -1.5492 -1.1024  1.3763
 8696TIP3   OH247578   0.601   3.285   6.714  0.5480 -0.3850  0.1528
 8696TIP3    H147579   0.671   3.262   6.774 -0.1231  0.0688  1.1304
 8696TIP3    H247580   0.644   3.336   6.645  1.0220  0.8054  1.2984
 8697TIP3   OH247581   5.025   4.201  13.174  0.2478 -0.2650  0.6736
 8697TIP3    H147582   4.950   4.262  13.171 -1.0189 -1.8800 -1.7674
 8697TIP3    H247583   4.985   4.114  13.177  2.0590 -1.0873  1.7512
 8698TIP3   OH247584   0.385   6.127  15.414 -0.0265 -0.8115  0.0430
 8698TIP3    H147585   0.436   6.198  15.376 -3.7963  2.2196  0.3469
 8698TIP3    H247586   0.407   6.129  15.508 -1.4191  1.1306  0.3394
 8699TIP3   OH247587   0.240   1.465  12.750  0.5419 -0.1923  0.0794
 8699TIP3    H147588   0.249   1.386  12.696  0.9206 -0.2894  0.2786
 8699TIP3    H247589   0.266   1.536  12.691  2.3048 -0.4315  0.5148
 8700TIP3   OH247590   5.191   5.376  17.043  0.5078  0.1463  0.2161
 8700TIP3    H147591   5.176   5.342  16.955 -0.5677 -0.7052  0.7145
 8700TIP3    H247592   5.114   5.430  17.061  0.0152 -0.8538  1.1870
 8701TIP3   OH247593   2.313   1.081  14.353  0.1803  0.2840 -0.1893
 8701TIP3    H147594   2.243   1.144  14.372 -0.2288 -0.4511  0.7640
 8701TIP3    H247595   2.369   1.085  14.430  0.4225 -0.1612 -0.3482
 8702TIP3   OH247596   5.639   3.660  11.791  0.1881 -0.4595  0.4450
 8702TIP3    H147597   5.549   3.673  11.763  0.2602  1.8169  1.2159
 8702TIP3    H247598   5.649   3.565  11.796 -1.7801 -0.7564 -0.8406
 8703TIP3   OH247599   2.682   1.429   1.235  0.4192 -0.6803  0.5205
 8703TIP3    H147600   2.692   1.519   1.266 -1.1865 -0.4385  0.3932
 8703TIP3    H247601   2.697   1.375   1.313 -1.4482 -0.1682  1.2577
 8704TIP3   OH247602   1.393   1.543   5.562 -0.0890  0.4399 -0.0620
 8704TIP3    H147603   1.339   1.531   5.484 -0.9909 -0.5081  0.7002
 8704TIP3    H247604   1.483   1.538   5.529 -0.3954 -4.1437 -0.4698
 8705TIP3   OH247605   4.197   0.029   4.722  0.4707  0.1102 -0.5323
 8705TIP3    H147606   4.274   0.007   4.670  1.4085 -0.7039  1.1239
 8705TIP3    H247607   4.150  -0.055   4.731  0.4387  0.1943  0.1030
 8706TIP3   OH247608   3.000   3.991   0.280 -0.0668 -0.3735  0.2816
 8706TIP3    H147609   2.980   4.002   0.373  1.8471 -1.1209  0.8167
 8706TIP3    H247610   3.061   3.917   0.278 -0.2389 -0.4799 -1.5874
 8707TIP3   OH247611   5.866   1.463  11.754  0.2286  0.0988 -0.2391
 8707TIP3    H147612   5.893   1.499  11.670 -1.6048 -1.4078 -1.5127
 8707TIP3    H247613   5.783   1.419  11.736 -1.6850  2.2098  2.9440
 8708TIP3   OH247614   0.237   0.338  15.876  0.0914  0.1683 -0.6131
 8708TIP3    H147615   0.162   0.278  15.885  1.6424 -1.5450  1.3033
 8708TIP3    H247616   0.201   0.424  15.899 -1.2539 -0.6431  0.3994
 8709TIP3   OH247617   0.816   2.741  12.640  0.0652  0.5228 -0.1278
 8709TIP3    H147618   0.858   2.709  12.560  0.0627 -0.0023  0.0771
 8709TIP3    H247619   0.866   2.701  12.711  1.1998  2.4383  0.1615
 8710TIP3   OH247620   0.285   3.423  15.751 -0.7626  0.3496 -0.5100
 8710TIP3    H147621   0.312   3.333  15.734 -1.4860  0.4684 -2.3485
 8710TIP3    H247622   0.201   3.415  15.798 -0.7201  0.0706 -0.4845
 8711TIP3   OH247623   6.611   1.322   0.979  0.3574 -0.4989 -0.0172
 8711TIP3    H147624   6.564   1.335   0.897  1.3789  1.1375 -0.3635
 8711TIP3    H247625   6.548   1.347   1.047 -0.6959 -2.4286 -0.2301
 8712TIP3   OH247626   0.657   6.595  10.652  0.6212  0.3036  0.3334
 8712TIP3    H147627   0.578   6.602  10.705  0.1464  1.5499 -0.5257
 8712TIP3    H247628   0.690   6.685  10.646  0.4787  0.2409 -1.7652
 8713TIP3   OH247629   4.430   2.109  15.578  0.4670 -0.2608 -0.6329
 8713TIP3    H147630   4.377   2.029  15.573  0.8718 -0.4616 -1.8782
 8713TIP3    H247631   4.369   2.179  15.556  0.2802 -0.3107 -0.2667
 8714TIP3   OH247632   5.833   0.447   5.677 -0.5792  0.0372  0.3453
 8714TIP3    H147633   5.792   0.364   5.701 -0.7356  0.2232  0.7344
 8714TIP3    H247634   5.925   0.425   5.661 -1.0757 -0.6119 -1.7759
 8715TIP3   OH247635   1.603   2.382  13.574  0.0272  0.0580  0.2760
 8715TIP3    H147636   1.549   2.448  13.530 -0.0405 -0.7704 -0.9038
 8715TIP3    H247637   1.691   2.421  13.576  0.0765  0.0200 -0.7969
 8716TIP3   OH247638   0.701   2.154   4.412 -0.0112 -0.2384  0.6396
 8716TIP3    H147639   0.620   2.185   4.372 -0.9406 -0.9369  1.9607
 8716TIP3    H247640   0.749   2.235   4.434 -0.5121  0.1788  0.2208
 8717TIP3   OH247641   2.388   4.942   4.634  0.7405  0.3855 -0.4920
 8717TIP3    H147642   2.433   4.858   4.623  2.0389  1.1898 -1.4415
 8717TIP3    H247643   2.323   4.944   4.563 -0.0540 -0.3049  0.2168
 8718TIP3   OH247644   4.951   5.041  13.850 -0.2609  0.7171 -0.2570
 8718TIP3    H147645   4.939   4.954  13.889 -2.1931  1.2739  0.4612
 8718TIP3    H247646   4.986   5.023  13.763  0.2889 -0.7440  0.2506
 8719TIP3   OH247647   3.719   2.962   0.379 -0.1568  0.1129  0.2753
 8719TIP3    H147648   3.680   2.968   0.466  1.3022 -0.6917  1.0053
 8719TIP3    H247649   3.814   2.959   0.395  0.1499  0.3907 -1.3593
 8720TIP3   OH247650   3.344   0.493  12.895  0.1112  0.1582 -0.2561
 8720TIP3    H147651   3.370   0.428  12.829 -1.6777 -0.7585 -0.1048
 8720TIP3    H247652   3.342   0.576  12.848 -0.4586 -0.3780 -1.2008
 8721TIP3   OH247653   0.362   4.765   2.121  0.0290 -0.5588  0.3611
 8721TIP3    H147654   0.342   4.719   2.202  0.1956  0.9119  1.2594
 8721TIP3    H247655   0.410   4.702   2.068  0.1563 -1.4439  1.5159
 8722TIP3   OH247656   3.094   3.240   3.450  0.0389 -0.2475 -0.0785
 8722TIP3    H147657   3.007   3.203   3.438  0.1665 -0.0601 -1.6502
 8722TIP3    H247658   3.091   3.324   3.403 -0.1594  1.6284  3.1543
 8723TIP3   OH247659   1.832   1.751  13.279  0.0676 -0.4165 -0.0749
 8723TIP3    H147660   1.752   1.709  13.310 -0.0611 -1.5867 -1.8864
 8723TIP3    H247661   1.820   1.844  13.298 -3.3313 -0.0350 -3.4306
 8724TIP3   OH247662   0.257   3.348   0.222  0.0917 -0.5207 -0.3243
 8724TIP3    H147663   0.228   3.430   0.185 -0.3447 -1.0566 -1.1803
 8724TIP3    H247664   0.323   3.373   0.287 -0.7341  0.5560  0.1153
 8725TIP3   OH247665   1.514   5.433   3.948 -0.0040  0.4079  0.5984
 8725TIP3    H147666   1.481   5.346   3.923  0.2553  0.4510  0.1135
 8725TIP3    H247667   1.444   5.469   4.003  0.0185 -0.2291  1.0659
 8726TIP3   OH247668   5.511   4.779   1.525 -0.5713  0.0906 -0.0025
 8726TIP3    H147669   5.449   4.768   1.597 -1.0536  1.8380 -0.1410
 8726TIP3    H247670   5.585   4.722   1.549 -1.3298 -0.4169  1.1739
 8727TIP3   OH247671   6.764   4.011  11.408  0.3567 -0.5454  0.3224
 8727TIP3    H147672   6.792   4.066  11.481  1.0117  0.0793 -0.3906
 8727TIP3    H247673   6.669   4.025  11.402  0.4380  0.0953  0.4846
 8728TIP3   OH247674   6.594   5.739   3.137 -0.2599 -0.2188 -0.3846
 8728TIP3    H147675   6.573   5.653   3.102 -1.5843 -0.0171 -0.1099
 8728TIP3    H247676   6.563   5.801   3.071  2.1827  0.0248 -1.3506
 8729TIP3   OH247677   6.292   4.251   4.787 -0.6575  0.7725  0.5222
 8729TIP3    H147678   6.319   4.328   4.837  2.0554 -0.0907  0.4732
 8729TIP3    H247679   6.372   4.221   4.744 -1.9231 -1.3710 -0.4393
 8730TIP3   OH247680   2.133   1.847  12.330 -0.3695 -0.4697  0.4150
 8730TIP3    H147681   2.214   1.817  12.370 -1.4856 -2.5144  1.2517
 8730TIP3    H247682   2.086   1.767  12.308 -1.5134  0.6717 -1.4189
 8731TIP3   OH247683   4.022   4.995  15.361 -0.4103 -0.3931 -0.0701
 8731TIP3    H147684   4.008   4.988  15.455  3.7109  0.0117  0.6774
 8731TIP3    H247685   4.049   4.907  15.334  1.3097  0.1787 -0.2808
 8732TIP3   OH247686   3.268   3.785  14.674  0.1557 -0.1253  0.0042
 8732TIP3    H147687   3.197   3.791  14.738 -0.0839  0.6991 -0.3362
 8732TIP3    H247688   3.258   3.699  14.634  1.2981 -1.3350  2.2387
 8733TIP3   OH247689   2.794   4.604  14.551 -0.5797 -0.5550  0.4989
 8733TIP3    H147690   2.756   4.679  14.596  0.6925  0.1180  0.4800
 8733TIP3    H247691   2.728   4.578  14.487  0.3405  2.7221 -1.9178
 8734TIP3   OH247692   2.387   4.833  16.009 -0.1223  0.1196  0.2904
 8734TIP3    H147693   2.416   4.923  16.024 -1.3020  0.5409  0.1428
 8734TIP3    H247694   2.356   4.803  16.095  0.0797 -0.0686  0.2965
 8735TIP3   OH247695   2.204   0.470   2.500  0.0195 -0.3011 -0.3194
 8735TIP3    H147696   2.228   0.381   2.473 -0.6917  0.2120 -2.7816
 8735TIP3    H247697   2.274   0.497   2.559  1.7802 -1.4365 -1.8278
 8736TIP3   OH247698   4.780   0.137  13.156  0.0236 -0.0459  0.0874
 8736TIP3    H147699   4.724   0.152  13.079  0.3594 -0.7889 -0.3036
 8736TIP3    H247700   4.795   0.225  13.192 -3.4137 -0.0202  1.6377
 8737TIP3   OH247701   4.599   3.009   1.972  0.1088  0.5786 -0.2941
 8737TIP3    H147702   4.616   3.064   2.048  0.5879 -0.0393  0.0464
 8737TIP3    H247703   4.677   3.020   1.917  0.2578  0.1455 -0.1696
 8738TIP3   OH247704   4.723   4.034   3.787 -0.2267  0.0018  0.0882
 8738TIP3    H147705   4.654   4.100   3.798 -0.1061  0.3497 -1.2356
 8738TIP3    H247706   4.690   3.975   3.720  0.9058  0.3727 -0.8073
 8739TIP3   OH247707   0.147   1.802  14.085 -0.2667 -0.3626  0.1515
 8739TIP3    H147708   0.160   1.729  14.025 -0.3259 -0.0064 -0.3036
 8739TIP3    H247709   0.198   1.874  14.047 -1.0382  0.1326  0.0334
 8740TIP3   OH247710   2.533   2.292   5.087  0.7314  0.5247  0.1528
 8740TIP3    H147711   2.595   2.227   5.121  0.8961  0.7855  0.3553
 8740TIP3    H247712   2.447   2.254   5.105  0.8343 -0.6834 -1.7953
 8741TIP3   OH247713   2.128   6.314   3.279  0.0775  0.3405  0.0297
 8741TIP3    H147714   2.033   6.325   3.283 -0.0339 -0.8265  0.6190
 8741TIP3    H247715   2.145   6.229   3.320  1.4621  0.9799  0.8403
 8742TIP3   OH247716   5.466   4.209  11.439  0.0105 -0.3393 -0.6603
 8742TIP3    H147717   5.389   4.214  11.495  1.2352 -1.8237  1.2636
 8742TIP3    H247718   5.506   4.296  11.445 -1.7464  0.5724 -2.0457
 8743TIP3   OH247719   0.843   6.308  15.908  0.3984 -0.2059  0.6900
 8743TIP3    H147720   0.755   6.321  15.943  0.0845 -3.3699  1.2329
 8743TIP3    H247721   0.901   6.334  15.980  0.0165  3.6691 -0.3144
 8744TIP3   OH247722   3.651   0.791  14.196  0.4838 -0.3839  0.3926
 8744TIP3    H147723   3.608   0.728  14.255 -0.1687 -1.8069 -1.5697
 8744TIP3    H247724   3.580   0.846  14.163  0.9246  0.7783  1.3285
 8745TIP3   OH247725   1.111   1.885  14.600 -0.8399  0.4601  0.0643
 8745TIP3    H147726   1.151   1.809  14.644 -1.6815 -0.3482 -0.5382
 8745TIP3    H247727   1.170   1.902  14.526  0.4110  1.6323  1.2935
 8746TIP3   OH247728   3.423   4.417   5.950 -0.1271  0.0434  0.2173
 8746TIP3    H147729   3.363   4.398   6.022  2.5807  0.4380  2.6712
 8746TIP3    H247730   3.448   4.331   5.916 -2.5126 -0.1112 -1.2638
 8747TIP3   OH247731   3.726   2.364   1.788  0.1454  0.8963  0.0230
 8747TIP3    H147732   3.644   2.338   1.829 -1.0076 -3.1172 -4.3377
 8747TIP3    H247733   3.723   2.459   1.784 -3.0250  0.9641  2.3741
 8748TIP3   OH247734   3.200   2.222   4.044  0.4639 -0.5260  0.0956
 8748TIP3    H147735   3.227   2.251   4.131 -1.7855  2.6455 -0.2024
 8748TIP3    H247736   3.197   2.302   3.991  0.1482 -2.1567 -2.4717
 8749TIP3   OH247737   3.127   4.854  16.537 -1.0030  0.0512  0.3142
 8749TIP3    H147738   3.188   4.826  16.605 -1.5030 -0.0173  0.7386
 8749TIP3    H247739   3.067   4.781  16.527 -1.6058  0.5064  0.5932
 8750TIP3   OH247740   6.085   0.485  13.713 -0.4994  0.0844 -0.4835
 8750TIP3    H147741   6.094   0.462  13.806  0.1991 -0.9622 -0.7965
 8750TIP3    H247742   6.004   0.535  13.709 -0.5717  0.0955  0.6856
 8751TIP3   OH247743   2.299   3.734   5.852  0.3138 -0.1761 -0.0577
 8751TIP3    H147744   2.358   3.670   5.811 -0.7299 -0.9413 -0.3869
 8751TIP3    H247745   2.246   3.682   5.913  0.3584  0.5962  0.6449
 8752TIP3   OH247746   1.852   5.529   4.153 -0.4320  0.1734  0.0001
 8752TIP3    H147747   1.830   5.448   4.108 -3.0512  1.0990 -0.4825
 8752TIP3    H247748   1.786   5.536   4.222  0.3952  1.3900  0.6896
 8753TIP3   OH247749   0.294   6.384   0.209  0.2247  0.0603  0.6567
 8753TIP3    H147750   0.296   6.348   0.297 -1.8715 -1.0842  0.2790
 8753TIP3    H247751   0.202   6.407   0.194  0.6257  0.6720 -1.0498
 8754TIP3   OH247752   1.802   5.799  16.329 -0.4929  0.2549 -0.0311
 8754TIP3    H147753   1.860   5.871  16.354 -1.6889  1.1191  0.3019
 8754TIP3    H247754   1.861   5.727  16.308  0.6891  0.9876  0.7067
 8755TIP3   OH247755   5.781   2.063   3.419  0.6062  0.6086  0.5230
 8755TIP3    H147756   5.860   2.099   3.379  0.7097  0.9928  1.0825
 8755TIP3    H247757   5.734   2.139   3.453 -0.8689  0.5838 -1.3620
 8756TIP3   OH247758   4.956   1.105  10.581  0.1602  0.0295 -0.0693
 8756TIP3    H147759   4.919   1.020  10.559  0.4687  0.0929 -0.8483
 8756TIP3    H247760   5.017   1.124  10.509  0.8001  0.4682  0.5775
 8757TIP3   OH247761   6.774   2.856   3.964  0.2044 -0.3254 -0.2895
 8757TIP3    H147762   6.789   2.852   3.870  2.9812  0.4893  0.0671
 8757TIP3    H247763   6.827   2.784   4.000 -0.1752 -0.1110  0.7102
 8758TIP3   OH247764   4.720   2.827   4.498 -0.5293 -1.1815 -0.0898
 8758TIP3    H147765   4.780   2.766   4.456  2.7210  1.6062  0.3438
 8758TIP3    H247766   4.670   2.865   4.426  2.3857  0.7986 -1.1649
 8759TIP3   OH247767   1.198   2.176  14.700 -0.5011 -0.3207 -0.0235
 8759TIP3    H147768   1.259   2.114  14.660 -0.5114 -0.7386  0.5959
 8759TIP3    H247769   1.119   2.125  14.717 -0.6513 -0.0431  0.1299
 8760TIP3   OH247770   6.338   2.732   3.627 -0.1509 -0.2337 -0.1291
 8760TIP3    H147771   6.389   2.769   3.555 -1.9402  0.3626 -1.1009
 8760TIP3    H247772   6.271   2.679   3.585 -1.4259  0.3801  1.0751
 8761TIP3   OH247773   2.850   3.977  16.805 -0.3745 -0.0964  0.6781
 8761TIP3    H147774   2.774   3.982  16.863  0.2243  0.2268  1.4412
 8761TIP3    H247775   2.907   4.048  16.834  0.6288 -0.8957  0.6933
 8762TIP3   OH247776   1.491   1.242  15.287 -0.0180 -0.0568  0.3533
 8762TIP3    H147777   1.412   1.294  15.299 -0.3730 -0.6921  0.8257
 8762TIP3    H247778   1.468   1.155  15.320  0.2422 -0.7940 -1.3872
 8763TIP3   OH247779   1.286   5.923   0.303  0.0602 -0.2069 -0.0437
 8763TIP3    H147780   1.260   5.834   0.279  1.7499 -0.2597 -1.7007
 8763TIP3    H247781   1.284   5.972   0.221  2.9000  0.3427  0.1646
 8764TIP3   OH247782   0.408   2.701   0.788  0.2718  0.0853  0.4174
 8764TIP3    H147783   0.335   2.744   0.742 -0.4327 -0.6201  0.8555
 8764TIP3    H247784   0.469   2.772   0.807  0.8498  0.3120 -2.0885
 8765TIP3   OH247785   2.892   0.235   0.685 -0.0711 -0.3147 -0.2335
 8765TIP3    H147786   2.867   0.169   0.750  0.3570  0.1012  0.3578
 8765TIP3    H247787   2.947   0.187   0.623  1.0452 -0.3068  0.7353
 8766TIP3   OH247788   2.430   6.667   0.990  0.0934  0.0733  0.2579
 8766TIP3    H147789   2.362   6.617   0.945  1.3597 -1.9821  0.5375
 8766TIP3    H247790   2.494   6.688   0.922  0.9769 -1.2217  0.6604
 8767TIP3   OH247791   2.499   6.722   3.235  0.1074  0.3565  0.5085
 8767TIP3    H147792   2.435   6.654   3.214 -0.5059  1.3768 -1.0730
 8767TIP3    H247793   2.461   6.769   3.309 -0.9183  0.8530 -0.3168
 8768TIP3   OH247794   6.066   4.376   1.231 -0.2571 -0.1257 -0.3355
 8768TIP3    H147795   6.106   4.289   1.225  1.0263  0.3049  1.4233
 8768TIP3    H247796   5.982   4.360   1.274  0.9985 -0.2565  2.1802
 8769TIP3   OH247797   4.527   3.579  11.385 -0.0764  0.0498  0.1935
 8769TIP3    H147798   4.568   3.524  11.318 -1.0018  0.0509 -0.3778
 8769TIP3    H247799   4.597   3.639  11.413  0.7376 -0.9403  0.3133
 8770TIP3   OH247800   6.429   6.418   2.883  0.5667  0.6774  0.1461
 8770TIP3    H147801   6.424   6.325   2.862 -0.0593  0.5993  0.6271
 8770TIP3    H247802   6.459   6.459   2.802  2.0898 -0.0792  0.2985
 8771TIP3   OH247803   6.274   2.347  11.546 -0.0569 -0.3453 -0.2291
 8771TIP3    H147804   6.233   2.260  11.548  0.7533 -0.8565 -3.0014
 8771TIP3    H247805   6.364   2.331  11.575 -0.1884 -0.2450  0.2365
 8772TIP3   OH247806   2.104   4.081   2.288 -0.0431 -0.4293  0.2740
 8772TIP3    H147807   2.186   4.124   2.312 -0.3380  0.5197 -0.3993
 8772TIP3    H247808   2.124   3.988   2.291  0.3042 -0.3132  2.8832
 8773TIP3   OH247809   1.030   6.186   2.788 -0.2141  0.4967  0.1105
 8773TIP3    H147810   1.065   6.153   2.706 -1.0088 -0.5100  0.1573
 8773TIP3    H247811   0.951   6.234   2.763 -1.3384 -1.1465  0.4037
 8774TIP3   OH247812   1.117   0.206  15.213  0.4223 -0.1412  0.2270
 8774TIP3    H147813   1.131   0.176  15.302 -0.6789  1.2743  0.9044
 8774TIP3    H247814   1.182   0.275  15.200  0.5514 -0.3125 -0.0659
 8775TIP3   OH247815   3.243   1.810  13.906 -0.0684  0.0453  0.0007
 8775TIP3    H147816   3.211   1.729  13.946 -1.2386  0.7632  0.5494
 8775TIP3    H247817   3.207   1.880  13.961 -0.0213  0.9700 -1.1241
 8776TIP3   OH247818   3.631   0.125   2.827  0.4473  0.3225 -0.0260
 8776TIP3    H147819   3.697   0.177   2.873  0.1816  0.0543  0.6635
 8776TIP3    H247820   3.561   0.187   2.808  0.2643  0.2889  0.5274
 8777TIP3   OH247821   6.075   0.272   3.185 -0.0738 -0.2938  0.6637
 8777TIP3    H147822   6.086   0.210   3.112  1.1115  0.6314  0.0504
 8777TIP3    H247823   5.980   0.287   3.188 -0.3134 -1.6340  0.4063
 8778TIP3   OH247824   4.779   0.375   2.557 -0.1476  0.4758 -0.0625
 8778TIP3    H147825   4.700   0.338   2.518  0.1125  0.6660 -0.7804
 8778TIP3    H247826   4.766   0.367   2.651 -1.6359  1.8095 -0.1412
 8779TIP3   OH247827   3.677   6.137  11.332 -0.1139  0.0220 -0.1420
 8779TIP3    H147828   3.582   6.125  11.333 -0.2169  0.7668  2.2522
 8779TIP3    H247829   3.711   6.065  11.385  0.4078  1.3365  1.3667
 8780TIP3   OH247830   4.537   0.786   0.608  0.1098 -0.4198 -0.2222
 8780TIP3    H147831   4.463   0.735   0.575  0.8467 -0.4238 -1.8712
 8780TIP3    H247832   4.517   0.799   0.701 -0.4554 -3.0634  0.0658
 8781TIP3   OH247833   5.633   5.997   5.351  0.1542  0.0583  0.0866
 8781TIP3    H147834   5.664   5.937   5.419  0.8238 -0.5608 -0.7592
 8781TIP3    H247835   5.697   5.989   5.280 -0.5254  0.7089 -0.6155
 8782TIP3   OH247836   1.538   2.164   3.062  0.0859 -0.2038 -0.3218
 8782TIP3    H147837   1.543   2.139   2.969  1.2688 -0.6419 -0.1519
 8782TIP3    H247838   1.599   2.105   3.106 -1.5856 -1.0032  0.9723
 8783TIP3   OH247839   2.596   6.483   5.008  0.5558  0.1503  0.0272
 8783TIP3    H147840   2.688   6.505   4.997  0.3913  1.9736  1.8985
 8783TIP3    H247841   2.559   6.557   5.056 -1.7711 -0.7833 -0.2472
 8784TIP3   OH247842   4.180   5.456  15.375  0.3692 -0.1005  0.0734
 8784TIP3    H147843   4.129   5.536  15.363  0.9384  0.4074  0.9809
 8784TIP3    H247844   4.270   5.482  15.356  0.2127 -1.1581 -2.2143
 8785TIP3   OH247845   3.201   2.328  16.515 -0.5146 -0.3767  0.8540
 8785TIP3    H147846   3.147   2.282  16.451  0.0783  0.5528 -0.3313
 8785TIP3    H247847   3.145   2.399  16.547 -0.4435 -0.1886  0.5645
 8786TIP3   OH247848   3.819   3.265   4.251 -0.3915 -0.4347 -0.0820
 8786TIP3    H147849   3.807   3.171   4.258 -1.4187 -0.2026  1.4581
 8786TIP3    H247850   3.736   3.298   4.217  0.0353 -0.0960 -0.8197
 8787TIP3   OH247851   6.743   6.103   3.447 -0.3831  0.6312 -0.1932
 8787TIP3    H147852   6.678   6.049   3.493  1.2850 -1.5030 -0.2600
 8787TIP3    H247853   6.694   6.140   3.373 -1.5738 -0.8963 -0.2182
 8788TIP3   OH247854   5.063   3.398   4.106 -0.4542 -0.6879  0.5157
 8788TIP3    H147855   5.015   3.479   4.090  0.4299 -0.4869 -1.3514
 8788TIP3    H247856   5.001   3.329   4.085 -0.0090 -0.4337 -1.7675
 8789TIP3   OH247857   2.615   2.729   5.890  0.2691 -0.1305  0.2100
 8789TIP3    H147858   2.575   2.674   5.822  0.2237 -0.6718  0.6668
 8789TIP3    H247859   2.681   2.780   5.844  0.1314 -0.3797 -0.2700
 8790TIP3   OH247860   0.704   5.126  12.117 -0.1167  0.2968  0.2434
 8790TIP3    H147861   0.719   5.214  12.082  1.0236 -0.1041 -0.2945
 8790TIP3    H247862   0.719   5.135  12.211  1.4266  0.3711 -0.0030
 8791TIP3   OH247863   1.459   0.205   1.939 -0.0767  0.6020 -0.3253
 8791TIP3    H147864   1.432   0.171   2.024  1.5555 -1.3517 -0.5541
 8791TIP3    H247865   1.507   0.286   1.959 -0.8247  0.8518  0.4906
 8792TIP3   OH247866   4.124   5.719   0.417 -0.8713  0.1754 -0.0826
 8792TIP3    H147867   4.048   5.768   0.448 -0.8665 -0.2649  0.6442
 8792TIP3    H247868   4.091   5.668   0.343 -1.2664  0.0314  0.1939
 8793TIP3   OH247869   2.922   3.822  13.412 -0.7087  0.1210  0.3720
 8793TIP3    H147870   3.015   3.801  13.414 -1.3575 -3.0497 -0.4135
 8793TIP3    H247871   2.917   3.911  13.449  2.4975  0.0391  1.1799
 8794TIP3   OH247872   2.714   2.069   4.695 -0.3144  0.2286 -0.1485
 8794TIP3    H147873   2.751   2.082   4.783 -1.0453  0.1452  0.1756
 8794TIP3    H247874   2.677   1.980   4.698  0.5139 -0.1467 -0.8534
 8795TIP3   OH247875   4.313   3.432  11.441  0.1809  0.4934  0.7399
 8795TIP3    H147876   4.281   3.400  11.357  1.4380  0.9644  0.0673
 8795TIP3    H247877   4.382   3.494  11.418  2.3087 -1.2869  2.1382
 8796TIP3   OH247878   0.214   2.797  14.445 -1.1086  0.6304 -0.3569
 8796TIP3    H147879   0.147   2.772  14.509 -2.9128  0.2525 -2.3321
 8796TIP3    H247880   0.236   2.887  14.467 -2.6945  0.9471 -0.0307
 8797TIP3   OH247881   2.220   6.398  14.051 -0.3350 -0.1598  0.2194
 8797TIP3    H147882   2.188   6.380  14.140 -0.2132  0.0489  0.3038
 8797TIP3    H247883   2.155   6.456  14.013 -0.1901  0.0605  0.3047
 8798TIP3   OH247884   5.738   5.590  16.953  0.1341 -0.0695  0.5160
 8798TIP3    H147885   5.648   5.574  16.924  0.0398  0.4374  0.5213
 8798TIP3    H247886   5.761   5.511  17.002  0.0181 -0.5873 -0.2561
 8799TIP3   OH247887   5.268   4.566   3.117 -0.3475 -0.3324  0.2084
 8799TIP3    H147888   5.243   4.603   3.202  0.3083 -1.1517  0.7712
 8799TIP3    H247889   5.323   4.634   3.077 -0.8792  0.1663  0.3178
 8800TIP3   OH247890   1.541   0.001  15.777  1.0706  0.2363 -0.0574
 8800TIP3    H147891   1.454  -0.034  15.758  0.7805 -0.0755  1.7122
 8800TIP3    H247892   1.538   0.092  15.746 -0.5310  0.8046  1.6611
 8801TIP3   OH247893   2.029   5.699  12.766  0.3156  0.0419 -0.2222
 8801TIP3    H147894   2.035   5.685  12.861  1.4975 -0.6155 -0.3862
 8801TIP3    H247895   1.941   5.669  12.744  0.6232 -1.4034  0.4155
 8802TIP3   OH247896   2.493   6.585  11.088 -0.1938  0.5305  0.0909
 8802TIP3    H147897   2.561   6.584  11.020 -0.2272 -0.9377  0.0608
 8802TIP3    H247898   2.420   6.535  11.050 -0.0861 -0.6027  1.3329
 8803TIP3   OH247899   6.719   5.087  13.968  0.3896 -0.4250 -0.3596
 8803TIP3    H147900   6.796   5.097  13.912  1.8541  0.1164  1.7113
 8803TIP3    H247901   6.656   5.151  13.934  1.4322  0.2297 -1.0927
 8804TIP3   OH247902   5.131   6.606  12.767 -0.9396 -0.1899 -0.2305
 8804TIP3    H147903   5.190   6.562  12.828 -0.2460  1.1966  0.1091
 8804TIP3    H247904   5.147   6.563  12.683  1.2469  0.7993 -0.3553
 8805TIP3   OH247905   5.543   5.683   3.738 -0.5892  0.1836  0.0602
 8805TIP3    H147906   5.498   5.600   3.721  0.5870 -0.7437  1.3633
 8805TIP3    H247907   5.609   5.661   3.803 -1.9442  2.6601  2.3762
 8806TIP3   OH247908   3.901   2.769  15.214  0.2876 -0.7344 -0.1307
 8806TIP3    H147909   3.895   2.674  15.219  0.1746 -0.7855 -1.1261
 8806TIP3    H247910   3.812   2.800  15.226  0.3346 -0.7539  0.2613
 8807TIP3   OH247911   6.688   4.014  13.303  0.1174  0.1210  0.0095
 8807TIP3    H147912   6.783   4.022  13.294 -0.0019  0.4598 -1.0624
 8807TIP3    H247913   6.661   4.092  13.350  0.2041  0.7570 -0.9844
 8808TIP3   OH247914   4.558   3.522  17.108 -0.5083  0.4370  0.1996
 8808TIP3    H147915   4.493   3.536  17.039 -0.0015 -0.5422 -0.4812
 8808TIP3    H247916   4.604   3.442  17.083  0.6921  0.8941  0.8937
 8809TIP3   OH247917   4.379   4.615   1.073 -0.2216  0.3748  0.2261
 8809TIP3    H147918   4.315   4.686   1.066  0.1126  1.1333  4.2226
 8809TIP3    H247919   4.352   4.566   1.150  1.8121 -1.6038 -0.2713
 8810TIP3   OH247920   4.301   4.440  15.280  0.2608  0.1607  0.4604
 8810TIP3    H147921   4.345   4.525  15.276 -0.1185  0.3285 -0.2600
 8810TIP3    H247922   4.304   4.407  15.191  0.0126 -0.3843  0.6502
 8811TIP3   OH247923   1.530   3.589  16.274  0.4375  0.0116  0.1114
 8811TIP3    H147924   1.625   3.580  16.280  0.7144  0.7109 -2.6953
 8811TIP3    H247925   1.508   3.556  16.187 -1.8939 -0.0052  0.6745
 8812TIP3   OH247926   6.420   5.895  12.743 -0.0437 -0.0215  0.4430
 8812TIP3    H147927   6.431   5.816  12.795 -0.2594 -1.7495 -2.0339
 8812TIP3    H247928   6.509   5.924  12.724  0.0534 -0.3957  0.3173
 8813TIP3   OH247929   0.740   4.308  15.522  0.1074 -0.6881 -0.6940
 8813TIP3    H147930   0.740   4.307  15.618 -1.2058  1.0292 -0.6465
 8813TIP3    H247931   0.745   4.216  15.497 -1.0126 -1.2484  1.0403
 8814TIP3   OH247932   0.077   5.344   4.046 -0.1105  0.7053  0.2178
 8814TIP3    H147933   0.094   5.410   4.114 -2.5572  0.8879  0.7027
 8814TIP3    H247934   0.002   5.294   4.079 -0.8917  0.3413 -2.0129
 8815TIP3   OH247935   4.223   5.797   4.475 -0.1004 -0.5850  0.6029
 8815TIP3    H147936   4.187   5.871   4.426 -0.6785  0.0549  1.9423
 8815TIP3    H247937   4.248   5.835   4.560 -0.4592 -1.9313  1.3265
 8816TIP3   OH247938   4.129   3.706   3.900 -0.1200 -0.2077  0.1346
 8816TIP3    H147939   4.137   3.801   3.885  1.2271 -0.5089 -1.1544
 8816TIP3    H247940   4.077   3.699   3.980 -2.6611  1.5781 -1.2751
 8817TIP3   OH247941   6.044   2.595  14.337 -0.4339 -0.3098 -0.6692
 8817TIP3    H147942   6.067   2.671  14.283 -0.1413 -0.6656 -1.0443
 8817TIP3    H247943   6.110   2.529  14.315 -1.8127 -1.3554 -1.7709
 8818TIP3   OH247944   2.896   3.659  16.402 -0.1086  0.5087 -0.7607
 8818TIP3    H147945   2.979   3.614  16.389  0.2969  0.4514  1.7751
 8818TIP3    H247946   2.841   3.595  16.447 -0.4753  1.5865  0.3455
 8819TIP3   OH247947   6.622   3.859   2.624  0.2074  0.0988 -0.3014
 8819TIP3    H147948   6.660   3.862   2.536  2.1840 -0.6658  0.5052
 8819TIP3    H247949   6.549   3.921   2.621 -0.3750 -0.6627 -2.7610
 8820TIP3   OH247950   6.224   0.453   2.214  0.2256 -0.2565  0.4835
 8820TIP3    H147951   6.298   0.433   2.271  0.4585  0.3278  0.3953
 8820TIP3    H247952   6.255   0.526   2.160 -0.4598  0.0882  0.5452
 8821TIP3   OH247953   5.915   2.031   2.899  0.2624 -0.4559  0.1615
 8821TIP3    H147954   5.960   2.072   2.825 -0.4392  0.0929  0.0295
 8821TIP3    H247955   5.914   1.938   2.879 -1.7254 -0.1158 -1.5307
 8822TIP3   OH247956   2.143   4.486   3.733  0.4707  0.5332 -0.5608
 8822TIP3    H147957   2.214   4.532   3.778  1.5053 -0.1521 -1.4353
 8822TIP3    H247958   2.168   4.393   3.739 -0.7097  0.2326 -0.2807
 8823TIP3   OH247959   4.138   2.467   3.104  0.2518 -0.3418 -0.4300
 8823TIP3    H147960   4.232   2.458   3.114  0.0817 -1.8393 -0.0589
 8823TIP3    H247961   4.109   2.509   3.186  0.3052 -2.1088  0.5194
 8824TIP3   OH247962   3.572   4.538  16.050  0.2305  0.4929 -0.3927
 8824TIP3    H147963   3.655   4.505  16.085  0.1445 -0.4718 -1.0790
 8824TIP3    H247964   3.598   4.595  15.978  0.3643  1.6300  0.5432
 8825TIP3   OH247965   4.780   5.721   3.463 -0.2180 -0.0494 -0.5495
 8825TIP3    H147966   4.808   5.658   3.396 -0.4487  0.7662 -1.4261
 8825TIP3    H247967   4.685   5.710   3.468 -0.1712 -0.2976 -0.1524
 8826TIP3   OH247968   3.318   2.620   4.474 -0.4209  0.8167  0.0153
 8826TIP3    H147969   3.227   2.594   4.489 -0.0179 -0.1887  0.7626
 8826TIP3    H247970   3.361   2.608   4.559  0.9711 -1.1130 -0.9396
 8827TIP3   OH247971   3.270   2.219  16.984  0.0116  0.0007 -0.2589
 8827TIP3    H147972   3.268   2.219  16.888 -0.3200  0.2606 -0.2518
 8827TIP3    H247973   3.243   2.130  17.008  0.9138 -0.3183 -0.4240
 8828TIP3   OH247974   0.816   3.660   6.631 -0.1038  0.5018  0.0041
 8828TIP3    H147975   0.822   3.586   6.691 -1.4947  1.6440  1.6049
 8828TIP3    H247976   0.825   3.737   6.687  2.8165  1.5561 -1.8316
 8829TIP3   OH247977   3.604   3.503   4.227  0.0288 -0.1756 -0.4416
 8829TIP3    H147978   3.565   3.416   4.218 -1.0382  0.3707 -1.1244
 8829TIP3    H247979   3.638   3.504   4.316  1.6747 -1.9479 -0.9826
 8830TIP3   OH247980   2.964   4.049   1.301 -0.0770  0.5915  0.7246
 8830TIP3    H147981   2.884   4.016   1.343 -0.1471 -0.0745  0.0853
 8830TIP3    H247982   3.035   4.005   1.348 -0.1664 -0.3947 -0.0426
 8831TIP3   OH247983   0.180   3.337  12.116  0.0908  0.1098  0.4988
 8831TIP3    H147984   0.088   3.312  12.122  0.5414 -1.9687 -0.6291
 8831TIP3    H247985   0.187   3.384  12.033  0.2117 -0.5816  0.1107
 8832TIP3   OH247986   1.514   6.663  13.075  0.4925  0.3216 -0.4566
 8832TIP3    H147987   1.555   6.666  12.989  0.3174  0.8880 -0.5214
 8832TIP3    H247988   1.463   6.744  13.081  0.0382  0.0132 -0.0509
 8833TIP3   OH247989   6.007   6.070  13.441  0.1025  0.1590 -0.3300
 8833TIP3    H147990   6.013   6.041  13.532 -2.6736  0.2836 -0.0694
 8833TIP3    H247991   6.044   6.159  13.442  1.6882 -0.4921  0.3213
 8834TIP3   OH247992   2.279   3.701   3.870  0.3639 -0.4457 -0.2356
 8834TIP3    H147993   2.263   3.655   3.787  1.6584 -3.3119  1.0216
 8834TIP3    H247994   2.213   3.666   3.930  1.4839 -0.8639  0.7882
 8835TIP3   OH247995   6.449   3.566  16.334  0.3135 -0.6429 -0.3105
 8835TIP3    H147996   6.383   3.507  16.370 -1.4138  0.5930 -1.4211
 8835TIP3    H247997   6.459   3.538  16.243  0.8470 -0.3817 -0.3378
 8836TIP3   OH247998   1.644   5.082   2.581 -0.0325 -0.1031 -0.1895
 8836TIP3    H147999   1.595   5.116   2.656 -0.9428 -1.0913 -0.3302
 8836TIP3    H248000   1.664   5.160   2.529 -0.9927  0.3786  0.1385
 8837TIP3   OH248001   5.295   2.949   4.666 -0.2208 -0.4718 -0.0092
 8837TIP3    H148002   5.210   2.941   4.622 -0.3578 -0.7413  0.3090
 8837TIP3    H248003   5.273   2.968   4.757  0.0594 -0.8104  0.1283
 8838TIP3   OH248004   6.799   0.794  15.439  0.1014 -0.4549  0.3463
 8838TIP3    H148005   6.707   0.770  15.452  0.1940 -0.0603  1.8297
 8838TIP3    H248006   6.798   0.850  15.361 -0.7086 -1.6229 -0.4946
 8839TIP3   OH248007   4.411   2.983   0.317 -0.7322  0.3591 -0.3144
 8839TIP3    H148008   4.483   3.007   0.375 -0.8798 -1.0782  0.4902
 8839TIP3    H248009   4.414   3.047   0.246 -0.5352  2.1127  1.2668
 8840TIP3   OH248010   6.614   4.999  11.607 -0.0474  0.1596 -0.2299
 8840TIP3    H148011   6.640   5.046  11.687  2.1500 -2.1131  0.4554
 8840TIP3    H248012   6.548   4.936  11.637 -1.7093  1.5674 -0.8434
 8841TIP3   OH248013   4.875   6.136   3.903  0.5512 -0.3475 -0.1456
 8841TIP3    H148014   4.832   6.218   3.878 -0.2307 -0.5756  0.4490
 8841TIP3    H248015   4.916   6.105   3.822  0.9653  0.6966 -0.3418
 8842TIP3   OH248016   2.419   2.324   2.058  0.5956  0.1256  0.6954
 8842TIP3    H148017   2.326   2.310   2.039  1.0133 -1.1852 -0.4988
 8842TIP3    H248018   2.462   2.316   1.973  1.6548  2.2150  0.9954
 8843TIP3   OH248019   4.346   4.980  14.907  0.0119 -0.0767 -0.6269
 8843TIP3    H148020   4.322   4.923  14.834 -0.9052 -0.3923 -0.0817
 8843TIP3    H248021   4.281   5.051  14.905 -0.0008 -0.0719 -0.1336
 8844TIP3   OH248022   4.607   4.109  11.304 -0.1986 -0.2263  0.3452
 8844TIP3    H148023   4.676   4.176  11.296 -0.9519  0.7054  1.4126
 8844TIP3    H248024   4.579   4.116  11.395 -2.0823 -0.2317 -0.2297
 8845TIP3   OH248025   0.582   0.081  16.083 -0.1246 -0.1629  0.0721
 8845TIP3    H148026   0.511   0.128  16.041  0.8569  0.2246 -1.1726
 8845TIP3    H248027   0.551   0.066  16.173 -1.4151  0.7380 -0.2134
 8846TIP3   OH248028   1.115   4.795  13.243 -0.4511 -0.1333 -0.1574
 8846TIP3    H148029   1.065   4.775  13.322  0.7961 -1.8738  0.2330
 8846TIP3    H248030   1.062   4.758  13.172 -0.8714  0.1507  0.0048
 8847TIP3   OH248031   5.106   1.718  15.461 -0.4028 -0.4870 -0.4389
 8847TIP3    H148032   5.114   1.791  15.523 -0.3747 -1.9615  1.3123
 8847TIP3    H248033   5.016   1.726  15.427 -1.4769 -1.4434  2.0668
 8848TIP3   OH248034   5.129   5.595  12.436 -0.6812 -0.0073 -0.0149
 8848TIP3    H148035   5.123   5.675  12.488  0.7836 -0.6055  1.1064
 8848TIP3    H248036   5.133   5.524  12.501  1.1104 -0.7747 -0.9095
 8849TIP3   OH248037   6.674   1.489   5.610  0.2149 -0.7166  0.4133
 8849TIP3    H148038   6.751   1.494   5.668 -0.2333 -3.3347  1.3466
 8849TIP3    H248039   6.605   1.533   5.659  0.9426  1.1291 -0.1714
 8850TIP3   OH248040   2.597   5.544  13.042  0.0973 -0.2286 -0.0717
 8850TIP3    H148041   2.642   5.576  12.964  0.8579  0.9607  0.8317
 8850TIP3    H248042   2.547   5.620  13.073  0.1743 -0.5446  0.8417
 8851TIP3   OH248043   5.750   6.751  16.834  0.4353  0.7952 -0.5117
 8851TIP3    H148044   5.682   6.797  16.884  0.0108  1.2822 -1.5156
 8851TIP3    H248045   5.717   6.661  16.826 -0.5006  1.2199 -1.6833
 8852TIP3   OH248046   2.351   5.378   3.284 -0.5952  0.0371  0.0949
 8852TIP3    H148047   2.390   5.368   3.197 -1.9235  2.2955 -0.8013
 8852TIP3    H248048   2.425   5.399   3.341  0.0851  0.0378 -0.7718
 8853TIP3   OH248049   5.183   0.996  11.585  0.5658 -0.2751  0.2951
 8853TIP3    H148050   5.177   1.090  11.569 -1.4640 -0.1820  1.4658
 8853TIP3    H248051   5.194   0.989  11.680 -1.4292 -1.2668  0.4787
 8854TIP3   OH248052   5.952   0.478  14.723 -0.4496 -0.4724  0.1652
 8854TIP3    H148053   6.033   0.489  14.773 -0.4534  0.7497 -0.0714
 8854TIP3    H248054   5.920   0.568  14.710 -2.8043 -1.0490  1.8060
 8855TIP3   OH248055   4.028   3.589  13.258 -0.0174  0.1738 -0.0098
 8855TIP3    H148056   4.036   3.515  13.319 -2.3590 -0.4106 -0.3525
 8855TIP3    H248057   4.117   3.623  13.250  0.9988 -2.1801  0.6863
 8856TIP3   OH248058   0.975   5.366  10.263  0.7439  0.2357 -0.3649
 8856TIP3    H148059   1.046   5.430  10.273 -0.4184  1.6124 -0.6534
 8856TIP3    H248060   0.919   5.405  10.196  0.1367 -1.2276 -0.7098
 8857TIP3   OH248061   0.038   5.780   4.522  0.0058 -0.2809  0.5996
 8857TIP3    H148062   0.041   5.840   4.447 -2.3925 -0.4025  0.3564
 8857TIP3    H248063  -0.003   5.831   4.592  1.9707 -0.2656  1.7586
 8858TIP3   OH248064   6.573   2.658   1.164  0.1925  0.3441 -0.0218
 8858TIP3    H148065   6.562   2.564   1.145  0.6884 -0.1714  2.0947
 8858TIP3    H248066   6.655   2.682   1.120  0.5213 -0.4397  0.1529
 8859TIP3   OH248067   3.372   4.739  14.052  0.1585  0.0918 -0.0168
 8859TIP3    H148068   3.445   4.799  14.044  0.2400  0.0266  0.2241
 8859TIP3    H248069   3.412   4.652  14.049  0.0395  0.0491 -0.3766
 8860TIP3   OH248070   1.864   2.605   5.653 -0.3295  0.1620 -0.6598
 8860TIP3    H148071   1.866   2.615   5.557 -0.1336 -0.5517 -0.7270
 8860TIP3    H248072   1.824   2.687   5.684 -0.9708  0.1324 -1.3912
 8861TIP3   OH248073   6.428   4.183   6.417  0.6139 -0.2241 -0.2939
 8861TIP3    H148074   6.373   4.178   6.339 -0.7244  0.0617  0.6169
 8861TIP3    H248075   6.422   4.096   6.456  0.8316 -0.2004 -0.2071
 8862TIP3   OH248076   6.131   5.782  15.875 -0.4722  0.0834 -0.1409
 8862TIP3    H148077   6.130   5.868  15.918 -1.3560  0.3657 -0.6926
 8862TIP3    H248078   6.052   5.739  15.907 -0.2353 -0.3741 -0.1682
 8863TIP3   OH248079   5.600   4.382  12.011 -0.1463  0.4386  0.1695
 8863TIP3    H148080   5.546   4.408  11.936 -3.2453  0.9435  2.4646
 8863TIP3    H248081   5.610   4.288  12.002 -1.4206  0.3336 -0.3440
 8864TIP3   OH248082   5.431   0.259  14.528 -0.3356 -0.1664 -0.2184
 8864TIP3    H148083   5.484   0.317  14.583 -0.7359  0.3326 -0.3656
 8864TIP3    H248084   5.431   0.175  14.576  1.5561 -0.5172 -0.7758
 8865TIP3   OH248085   0.163   0.028  13.392 -0.2116  0.4421  0.6644
 8865TIP3    H148086   0.255   0.046  13.413 -0.2460 -0.2118  1.3615
 8865TIP3    H248087   0.154   0.057  13.301 -0.0150  3.0932  1.4492
 8866TIP3   OH248088   1.239   4.084  13.669  0.1477  0.3184 -0.0071
 8866TIP3    H148089   1.220   4.043  13.584  0.9635 -0.6350  0.2677
 8866TIP3    H248090   1.331   4.066  13.685  1.1355  4.1048 -0.8649
 8867TIP3   OH248091   6.781   5.225  11.501 -0.0088  0.2108 -0.0513
 8867TIP3    H148092   6.873   5.209  11.519  0.0200 -0.3602 -0.6735
 8867TIP3    H248093   6.742   5.138  11.496 -0.9158  0.4771  1.8958
 8868TIP3   OH248094   5.389   5.736   2.471 -0.0400  0.1357 -0.3707
 8868TIP3    H148095   5.433   5.750   2.555 -0.5642  0.7926 -0.2075
 8868TIP3    H248096   5.392   5.821   2.428 -1.8287  0.3930 -0.0341
 8869TIP3   OH248097   2.791   1.620   1.398  0.2691  0.0543 -0.1636
 8869TIP3    H148098   2.710   1.663   1.428 -1.0423 -2.1079 -0.4786
 8869TIP3    H248099   2.861   1.665   1.444 -1.3571  0.0242  2.4261
 8870TIP3   OH248100   0.317   0.419  13.599 -0.0934 -0.3837 -0.0489
 8870TIP3    H148101   0.290   0.352  13.661  1.7751 -0.5384  0.6294
 8870TIP3    H248102   0.337   0.371  13.518  0.0731 -0.4958  0.0591
 8871TIP3   OH248103   5.464   2.636   2.907  0.0135 -0.0124 -0.1101
 8871TIP3    H148104   5.482   2.642   3.001  0.1458 -0.1994 -0.1239
 8871TIP3    H248105   5.397   2.567   2.900 -0.7391  0.7118 -0.0533
 8872TIP3   OH248106   4.362   2.680  16.576 -0.4185  0.2631 -0.0178
 8872TIP3    H148107   4.456   2.687  16.559 -0.0097 -2.1541  0.9848
 8872TIP3    H248108   4.341   2.759  16.625  1.5478 -0.1168  1.5318
 8873TIP3   OH248109   2.106   4.851  14.745  0.4230 -0.2632 -0.1890
 8873TIP3    H148110   2.179   4.887  14.695  1.0086  0.2240  1.0137
 8873TIP3    H248111   2.144   4.825  14.829 -0.4182 -1.7337 -0.2386
 8874TIP3   OH248112   5.809   1.193   6.055 -0.5221  0.1029 -0.3116
 8874TIP3    H148113   5.717   1.171   6.067 -0.2875 -0.8623 -0.2158
 8874TIP3    H248114   5.844   1.122   6.001  0.3677 -0.0211  0.4129
 8875TIP3   OH248115   2.403   1.486  13.267  0.0281 -0.1313 -0.1440
 8875TIP3    H148116   2.405   1.427  13.342  2.2303 -1.0009 -0.8445
 8875TIP3    H248117   2.488   1.531  13.269 -0.0299  0.1056 -1.8627
 8876TIP3   OH248118   4.755   3.640   2.764  0.4367  0.0243 -0.1728
 8876TIP3    H148119   4.688   3.588   2.720  0.7681  0.5672 -1.3290
 8876TIP3    H248120   4.745   3.728   2.729  1.2048  0.2938  0.2649
 8877TIP3   OH248121   5.259   0.169  15.138 -0.5162 -0.1964  0.1783
 8877TIP3    H148122   5.286   0.153  15.229  0.6726  0.9256  0.0369
 8877TIP3    H248123   5.200   0.096  15.117 -0.8357 -0.4392  1.8603
 8878TIP3   OH248124   4.819   6.373   3.581 -0.1406 -0.1859 -0.0068
 8878TIP3    H148125   4.877   6.337   3.515  1.4253  0.5156  0.9688
 8878TIP3    H248126   4.874   6.430   3.634 -0.7016 -2.7735  3.5921
 8879TIP3   OH248127   1.408   3.010   5.230 -0.4348 -0.0987  0.7179
 8879TIP3    H148128   1.487   2.965   5.201  0.6338  0.8981  1.9937
 8879TIP3    H248129   1.337   2.949   5.212  0.4083 -0.3479 -1.9652
 8880TIP3   OH248130   3.607   3.437   0.767 -0.2849  0.4568  0.2770
 8880TIP3    H148131   3.671   3.421   0.697 -0.2772 -0.1030  0.4077
 8880TIP3    H248132   3.660   3.452   0.845 -0.2757  1.9839 -0.0177
 8881TIP3   OH248133   1.044   4.977  11.502 -0.4901 -0.3881 -0.0118
 8881TIP3    H148134   0.976   4.965  11.568  1.4142 -1.7005  1.7715
 8881TIP3    H248135   1.024   4.911  11.436 -0.4157 -1.4241  0.9789
 8882TIP3   OH248136   0.467   4.267  13.384 -0.4337 -0.7627 -0.1262
 8882TIP3    H148137   0.522   4.319  13.325 -0.3797 -1.8543 -1.0545
 8882TIP3    H248138   0.527   4.203  13.421 -0.9246 -1.4925 -0.5825
 8883TIP3   OH248139   5.011   0.731   4.977 -0.5693 -0.2261 -0.1254
 8883TIP3    H148140   4.993   0.824   4.964 -1.2723 -0.2741  0.4637
 8883TIP3    H248141   5.024   0.721   5.071 -1.0446 -0.8070 -0.1127
 8884TIP3   OH248142   2.288   4.679   0.791 -0.4087  0.1315  0.0130
 8884TIP3    H148143   2.248   4.759   0.757 -0.0813  0.2405 -0.1197
 8884TIP3    H248144   2.363   4.710   0.843 -1.3377  0.0063  1.4341
 8885TIP3   OH248145   1.354   5.191   1.586  0.8266  0.2567 -0.4134
 8885TIP3    H148146   1.380   5.100   1.599  2.6887  0.4242 -2.5784
 8885TIP3    H248147   1.276   5.187   1.530  0.7908 -0.0187 -0.3420
 8886TIP3   OH248148   6.734   1.197  11.224  0.2687  0.1698 -0.4105
 8886TIP3    H148149   6.817   1.231  11.190  1.4439  1.2129  3.2321
 8886TIP3    H248150   6.677   1.274  11.229 -1.0211 -0.5544 -2.9559
 8887TIP3   OH248151   0.493   1.379  13.985  0.6563  0.3091 -0.0777
 8887TIP3    H148152   0.505   1.420  14.071  0.8433 -0.8322  0.4458
 8887TIP3    H248153   0.402   1.399  13.962  1.0436  1.8980 -0.3087
 8888TIP3   OH248154   0.978   3.723   2.175  1.0078  0.1635  0.0663
 8888TIP3    H148155   1.062   3.764   2.153  0.3281  2.4109  1.5522
 8888TIP3    H248156   0.957   3.669   2.099  2.4810  1.7018 -1.4580
 8889TIP3   OH248157   0.928   3.773   4.628  0.4532  0.2312 -0.1057
 8889TIP3    H148158   0.921   3.775   4.532  1.8783  0.4235 -0.2060
 8889TIP3    H248159   0.920   3.681   4.651 -0.2506  0.2170 -0.3689
 8890TIP3   OH248160   2.834   0.293   1.753  0.7829  0.7375 -0.3199
 8890TIP3    H148161   2.880   0.307   1.836  1.4053 -1.2948 -0.3100
 8890TIP3    H248162   2.876   0.354   1.692  1.2154  1.2825  0.5038
 8891TIP3   OH248163   3.063   1.022   6.789  0.1511 -0.1989 -0.0211
 8891TIP3    H148164   3.001   1.091   6.812 -0.2471 -0.4723 -0.2791
 8891TIP3    H248165   3.010   0.943   6.782  0.5297 -0.4370 -0.2197
 8892TIP3   OH248166   5.032   1.843  15.095  0.1419  0.1960 -0.1177
 8892TIP3    H148167   4.943   1.851  15.060 -0.1584 -2.5155 -0.0676
 8892TIP3    H248168   5.066   1.933  15.094 -2.8347  1.4001  0.5209
 8893TIP3   OH248169   0.087   4.008   1.941 -0.1036  0.5315  0.0661
 8893TIP3    H148170   0.091   4.060   2.021 -0.5608  0.0324  0.4171
 8893TIP3    H248171   0.178   3.988   1.920 -0.0284  0.0851  0.8338
 8894TIP3   OH248172   1.341   1.440  12.759 -0.2387 -0.6364  0.0655
 8894TIP3    H148173   1.333   1.533  12.740 -0.6399 -0.4751  0.9666
 8894TIP3    H248174   1.421   1.432  12.811  0.2591 -0.9141 -0.7436
 8895TIP3   OH248175   6.531   5.195  13.211 -0.0189  0.0609 -0.4521
 8895TIP3    H148176   6.513   5.207  13.117  2.9175  3.0491 -0.7481
 8895TIP3    H248177   6.484   5.267  13.253  1.4110  0.7577 -0.0193
 8896TIP3   OH248178   6.107   1.162  11.703  0.1905 -0.1954 -0.0264
 8896TIP3    H148179   6.162   1.229  11.745 -0.5029  0.5375 -0.2735
 8896TIP3    H248180   6.040   1.142  11.768 -0.0679 -0.0714 -0.2545
 8897TIP3   OH248181   0.343   1.526  17.202 -0.3330  0.1078  0.0989
 8897TIP3    H148182   0.356   1.612  17.242  0.6151 -0.3248  0.7424
 8897TIP3    H248183   0.429   1.503  17.166 -0.2376 -1.1545  1.0942
 8898TIP3   OH248184   2.683   5.066  14.490 -0.2983 -0.0964 -0.1077
 8898TIP3    H148185   2.706   5.114  14.410  1.4239  0.7838  0.9004
 8898TIP3    H248186   2.607   5.013  14.464 -0.3176  0.8331 -2.0861
 8899TIP3   OH248187   3.902   1.100   5.948  0.1938  0.2109  0.2056
 8899TIP3    H148188   3.807   1.090   5.944  0.3875 -1.8396 -0.3131
 8899TIP3    H248189   3.920   1.123   6.039 -0.6416 -1.9560  0.9709
 8900TIP3   OH248190   6.128   4.984  16.422 -0.3125  0.3848  0.0787
 8900TIP3    H148191   6.176   4.927  16.482  1.9783  1.4042 -0.7098
 8900TIP3    H248192   6.046   4.938  16.405  1.1028 -2.2723  0.1466
 8901TIP3   OH248193   0.951   4.222  13.096 -0.4132  0.1120 -0.1430
 8901TIP3    H148194   0.972   4.143  13.046  0.3302 -0.0798  0.4592
 8901TIP3    H248195   0.913   4.282  13.032 -0.6706 -0.6107 -0.6735
 8902TIP3   OH248196   2.700   4.635   3.753 -0.3096 -0.0463  0.3821
 8902TIP3    H148197   2.701   4.704   3.687 -1.3620 -0.3017  0.0765
 8902TIP3    H248198   2.749   4.563   3.713 -0.1786  0.1179  0.2440
 8903TIP3   OH248199   4.787   4.515   1.244 -0.4612  0.2028 -0.4279
 8903TIP3    H148200   4.822   4.548   1.161  0.2554  0.4691 -0.0294
 8903TIP3    H248201   4.750   4.430   1.223 -0.9746  0.6096 -1.1755
 8904TIP3   OH248202   4.828   1.085   3.170 -0.4916  0.3121  0.2329
 8904TIP3    H148203   4.786   1.069   3.254  0.4031 -1.0072  0.4449
 8904TIP3    H248204   4.829   1.181   3.161 -0.8840  0.4480  1.5668
 8905TIP3   OH248205   2.229   2.076   2.288  0.6566  0.3412 -0.3824
 8905TIP3    H148206   2.162   2.032   2.341  0.3118  1.0906 -0.1825
 8905TIP3    H248207   2.250   2.155   2.338  2.4167 -0.3792  0.0509
 8906TIP3   OH248208   0.276   0.861   2.582  0.5454  0.0553  0.2142
 8906TIP3    H148209   0.276   0.766   2.567 -1.5866  0.2369 -1.0094
 8906TIP3    H248210   0.233   0.872   2.667  0.5268 -0.0437  0.2177
 8907TIP3   OH248211   4.329   5.087  12.968  0.2269  0.1219 -0.2218
 8907TIP3    H148212   4.332   5.021  13.038  0.0324 -0.7507 -1.0305
 8907TIP3    H248213   4.239   5.084  12.936  0.2522  0.6920 -0.3464
 8908TIP3   OH248214   2.551   4.249  11.520  0.1886 -0.3760 -0.1948
 8908TIP3    H148215   2.612   4.191  11.474  0.0686 -0.7495  0.1173
 8908TIP3    H248216   2.515   4.195  11.590 -0.3007 -0.0732 -0.2119
 8909TIP3   OH248217   1.754   1.530  12.033  0.1172 -0.3526 -0.1338
 8909TIP3    H148218   1.716   1.525  12.121 -2.4586 -0.6656 -1.2165
 8909TIP3    H248219   1.716   1.609  11.996  2.0160  0.3545 -0.6275
 8910TIP3   OH248220   3.905   2.959  12.727  0.0652  0.2583 -0.0777
 8910TIP3    H148221   3.885   2.999  12.642  2.0028 -0.8612 -1.0955
 8910TIP3    H248222   3.962   3.022  12.770 -1.6948  1.2716  0.8381
 8911TIP3   OH248223   6.647   4.244  11.957  0.1230  0.2142 -0.0784
 8911TIP3    H148224   6.682   4.332  11.944 -1.1600  0.5165 -1.5783
 8911TIP3    H248225   6.643   4.206  11.869 -1.7386 -0.4231  0.2612
 8912TIP3   OH248226   2.296   5.747  16.212  0.2986  0.7504  0.0507
 8912TIP3    H148227   2.279   5.817  16.149  0.6711  1.7237  1.0150
 8912TIP3    H248228   2.220   5.690  16.207 -0.4785  1.7898 -0.0076
 8913TIP3   OH248229   4.240   3.709   2.779 -0.1487 -0.0068 -0.2106
 8913TIP3    H148230   4.266   3.784   2.726 -0.4192 -0.0995 -0.4742
 8913TIP3    H248231   4.322   3.667   2.804  0.0177  0.6035  0.2659
 8914TIP3   OH248232   5.656   5.171   3.657  0.1838 -0.3409  0.4916
 8914TIP3    H148233   5.598   5.238   3.620  2.1043  0.7242 -0.6738
 8914TIP3    H248234   5.601   5.093   3.662 -1.3723  0.6435 -0.5635
 8915TIP3   OH248235   2.700   4.527   1.766 -0.3458 -0.2802 -0.3017
 8915TIP3    H148236   2.667   4.587   1.833 -0.9149 -1.0163  0.0820
 8915TIP3    H248237   2.777   4.487   1.805 -1.6638 -1.9923  0.5976
 8916TIP3   OH248238   2.050   6.181  13.726 -0.6376  0.5673 -0.1707
 8916TIP3    H148239   2.016   6.263  13.689  0.6296  0.6055 -1.3186
 8916TIP3    H248240   2.012   6.113  13.670 -0.3797  0.4840 -0.2431
 8917TIP3   OH248241   2.856   4.278   2.835 -0.3433  0.3935  0.2856
 8917TIP3    H148242   2.942   4.258   2.796  0.0516  3.0119 -0.3056
 8917TIP3    H248243   2.825   4.194   2.869  1.7922 -0.8945 -0.8028
 8918TIP3   OH248244   2.766   3.772  11.743  0.3556 -0.4055 -0.1496
 8918TIP3    H148245   2.768   3.705  11.674  0.8229  0.2535 -0.7914
 8918TIP3    H248246   2.832   3.744  11.805  1.7308  0.3193 -1.2568
 8919TIP3   OH248247   6.451   3.489  16.040 -0.4661 -0.0213  0.3764
 8919TIP3    H148248   6.462   3.401  16.005 -2.8528  1.1339 -3.5924
 8919TIP3    H248249   6.518   3.541  15.996  1.0607  0.1630  2.8431
 8920TIP3   OH248250   5.796   3.714  10.066  0.4349 -0.0606 -0.2804
 8920TIP3    H148251   5.747   3.770  10.006 -2.8774 -0.2482  2.0670
 8920TIP3    H248252   5.813   3.634  10.017 -3.4080 -0.7482 -0.6286
 8921TIP3   OH248253   0.618   3.065   4.274  0.8714  0.0720 -0.5803
 8921TIP3    H148254   0.574   3.009   4.210  0.8328 -0.3680 -0.1720
 8921TIP3    H248255   0.650   3.004   4.341 -0.7554  0.7085  0.8015
 8922TIP3   OH248256   5.815   5.124  15.510 -0.1223  0.3593  0.4331
 8922TIP3    H148257   5.879   5.147  15.577  1.9521 -3.0111 -0.3007
 8922TIP3    H248258   5.834   5.184  15.438 -0.9303  2.5115  1.9241
 8923TIP3   OH248259   5.148   3.162  16.410  0.4239  0.1189  0.3209
 8923TIP3    H148260   5.125   3.126  16.324  0.9049 -1.0190  0.6586
 8923TIP3    H248261   5.186   3.088  16.457 -0.3683  0.6036  1.7220
 8924TIP3   OH248262   3.273   2.311   4.321 -0.1694  0.3644 -0.7135
 8924TIP3    H148263   3.363   2.283   4.306 -0.6595 -0.0914 -2.9404
 8924TIP3    H248264   3.226   2.231   4.343  0.0381  0.6743  0.9682
 8925TIP3   OH248265   3.624   3.804   4.473  0.1087  0.0062 -0.0419
 8925TIP3    H148266   3.591   3.886   4.510  1.3490  0.1678  0.7548
 8925TIP3    H248267   3.575   3.735   4.517  0.2989  0.2698  0.5915
 8926TIP3   OH248268   5.780   4.839  15.199 -0.6965  0.4765 -0.0218
 8926TIP3    H148269   5.797   4.933  15.200 -0.8223  0.4886  2.2476
 8926TIP3    H248270   5.748   4.819  15.287 -0.2630 -1.7714 -0.3461
 8927TIP3   OH248271   3.229   2.990   5.199  0.1045 -0.0222 -0.4121
 8927TIP3    H148272   3.205   3.083   5.200  0.9409  0.2029 -0.6270
 8927TIP3    H248273   3.323   2.990   5.218  0.0669 -0.8416 -0.2093
 8928TIP3   OH248274   4.855   3.805  16.258  0.4227  0.9283 -0.1808
 8928TIP3    H148275   4.793   3.837  16.193  0.8908 -1.3602 -1.8185
 8928TIP3    H248276   4.878   3.717  16.228  2.3962  0.7011  1.8580
 8929TIP3   OH248277   3.025   0.744   0.770  0.0101 -0.0769  0.0773
 8929TIP3    H148278   2.993   0.654   0.780 -0.1955  0.0366  0.4595
 8929TIP3    H248279   3.120   0.737   0.772  0.0370 -0.5187 -1.9129
 8930TIP3   OH248280   1.374   3.410  13.302 -0.0449 -0.7345  0.3681
 8930TIP3    H148281   1.429   3.343  13.343  0.9919 -0.6904 -0.8775
 8930TIP3    H248282   1.293   3.409  13.352 -1.5752 -5.5428 -1.8312
 8931TIP3   OH248283   4.607   5.599  14.455  0.0864  0.0736 -0.3717
 8931TIP3    H148284   4.651   5.653  14.390 -0.6685  0.1371 -0.8388
 8931TIP3    H248285   4.609   5.650  14.535 -1.2748  1.1255 -0.9903
 8932TIP3   OH248286   4.434   2.297   5.396 -0.4367 -0.4164  0.1964
 8932TIP3    H148287   4.471   2.364   5.338 -0.5354  1.2449  2.0055
 8932TIP3    H248288   4.506   2.235   5.409  0.8943  1.2976  1.4039
 8933TIP3   OH248289   0.238   0.458   2.857 -0.3476 -0.0182  0.2352
 8933TIP3    H148290   0.144   0.438   2.847 -0.4881  1.1207 -0.9257
 8933TIP3    H248291   0.241   0.531   2.918 -0.3926  1.3387 -1.3400
 8934TIP3   OH248292   4.122   4.837  12.983 -0.8289  0.4206  0.1045
 8934TIP3    H148293   4.118   4.821  13.078  0.1826  2.4980  0.5320
 8934TIP3    H248294   4.040   4.800  12.949 -0.8735 -0.9999  1.6737
 8935TIP3   OH248295   5.776   2.584   2.822  0.2168  0.2779  0.0496
 8935TIP3    H148296   5.722   2.505   2.822  0.7425 -0.0819  0.2795
 8935TIP3    H248297   5.715   2.655   2.842 -0.2022 -0.1028  0.1285
 8936TIP3   OH248298   6.235   5.894  13.357 -0.2601 -0.3220 -0.7674
 8936TIP3    H148299   6.146   5.862  13.342 -0.8618  1.8141 -1.9152
 8936TIP3    H248300   6.263   5.850  13.437 -2.2978 -1.1072 -0.4523
 8937TIP3   OH248301   3.200   0.413  16.818  0.7849  0.2760 -0.3007
 8937TIP3    H148302   3.185   0.344  16.883  1.3316 -0.1712 -0.6403
 8937TIP3    H248303   3.262   0.472  16.859  1.7715 -0.4538 -0.7274
 8938TIP3   OH248304   2.563   5.433  13.514 -0.2794 -0.0414  0.0013
 8938TIP3    H148305   2.653   5.427  13.482  0.1895  1.9837  0.8657
 8938TIP3    H248306   2.567   5.497  13.585 -2.3852 -0.0301  0.1449
 8939TIP3   OH248307   5.022   6.253  17.245  0.2216  0.2348 -0.0582
 8939TIP3    H148308   5.110   6.220  17.261  0.5375  1.5913  1.1261
 8939TIP3    H248309   4.997   6.295  17.327 -0.3955  2.3898 -1.3183
 8940TIP3   OH248310   5.468   4.816  13.192  0.4335  0.3826 -0.3752
 8940TIP3    H148311   5.505   4.729  13.180  1.2654  0.7225 -0.2632
 8940TIP3    H248312   5.543   4.876  13.191  0.0487  0.9332  1.2593
 8941TIP3   OH248313   0.685   3.185  11.656  1.0525  0.5717 -0.2733
 8941TIP3    H148314   0.775   3.197  11.625  1.2693  0.5659  0.3426
 8941TIP3    H248315   0.654   3.274  11.674  1.1680  0.5303  0.1461
 8942TIP3   OH248316   2.851   0.959  12.884 -0.2191  0.2211 -0.2815
 8942TIP3    H148317   2.872   1.049  12.859  0.6583  0.3407  0.8363
 8942TIP3    H248318   2.798   0.968  12.963  0.6958 -0.2591  0.3971
 8943TIP3   OH248319   3.304   2.550  11.888  0.0468 -0.6979 -0.0884
 8943TIP3    H148320   3.312   2.641  11.861  0.7566 -0.9949 -0.8903
 8943TIP3    H248321   3.381   2.535  11.944  0.1966 -0.9537 -0.3666
 8944TIP3   OH248322   0.558   3.947   4.512  0.1168 -0.2737 -0.1806
 8944TIP3    H148323   0.594   3.890   4.443  0.4193 -0.0110 -0.2431
 8944TIP3    H248324   0.576   4.036   4.481 -0.2104 -0.1468 -0.0065
 8945TIP3   OH248325   5.534   6.617   3.722  0.1703  0.2764 -0.1206
 8945TIP3    H148326   5.554   6.560   3.648  0.4946 -1.0397  0.9585
 8945TIP3    H248327   5.449   6.586   3.754 -0.2398  1.2101 -0.2824
 8946TIP3   OH248328   3.876   5.562   4.574 -0.5228 -0.2792 -0.0394
 8946TIP3    H148329   3.928   5.609   4.639  0.7127 -0.8646 -0.5877
 8946TIP3    H248330   3.831   5.630   4.525  0.4091  0.2812 -0.1205
 8947TIP3   OH248331   4.506   6.779   0.170 -0.4657  0.1248 -0.6025
 8947TIP3    H148332   4.446   6.843   0.207 -0.2873  0.7075 -1.3160
 8947TIP3    H248333   4.454   6.699   0.161 -1.2567  0.7585 -1.6487
 8948TIP3   OH248334   1.010   4.276  14.191  0.0901 -0.5169  0.0842
 8948TIP3    H148335   1.087   4.310  14.144 -1.1216  0.6062 -1.1468
 8948TIP3    H248336   0.972   4.213  14.130 -1.6563  1.1528 -0.5927
 8949TIP3   OH248337   3.628   2.021   1.960  0.1613  0.1931  0.4605
 8949TIP3    H148338   3.567   2.088   1.991 -0.9544 -0.8902  0.6357
 8949TIP3    H248339   3.676   1.994   2.038  1.8517  1.9939  0.1005
 8950TIP3   OH248340   5.833   2.912  16.714  0.3581  0.8749  0.1066
 8950TIP3    H148341   5.913   2.939  16.669  0.7629  1.5748  1.2099
 8950TIP3    H248342   5.862   2.892  16.804 -0.6261  0.6796  0.3868
 8951TIP3   OH248343   2.363   6.397  10.936 -0.1720 -0.0048  0.4218
 8951TIP3    H148344   2.438   6.338  10.928 -0.1750 -0.1211  1.1784
 8951TIP3    H248345   2.306   6.374  10.862 -0.6029 -1.5931  1.2153
 8952TIP3   OH248346   2.715   4.490  12.998 -0.3989  0.0318  0.3408
 8952TIP3    H148347   2.806   4.461  12.994 -1.1025 -2.2722  0.3565
 8952TIP3    H248348   2.664   4.409  13.002 -2.4913  1.2703 -0.4503
 8953TIP3   OH248349   6.688   4.821   2.984  0.4251 -0.1846 -0.1219
 8953TIP3    H148350   6.724   4.905   3.012  1.1181 -0.2070 -0.9497
 8953TIP3    H248351   6.594   4.830   2.998  0.6058  0.3288  0.8385
 8954TIP3   OH248352   4.884   0.315  16.033  0.1086 -0.1885  0.1914
 8954TIP3    H148353   4.856   0.308  16.124 -0.4328  0.7245  0.1043
 8954TIP3    H248354   4.924   0.230  16.013 -0.8864 -0.8392  0.8979
 8955TIP3   OH248355   4.543   4.221   3.808  0.4028  0.2672 -0.0515
 8955TIP3    H148356   4.459   4.219   3.855  0.7722  0.2432  0.6044
 8955TIP3    H248357   4.565   4.314   3.803  0.4578  0.2558 -0.0135
 8956TIP3   OH248358   6.482   5.528  11.570 -0.3391  0.0398  0.3869
 8956TIP3    H148359   6.426   5.451  11.583  1.4054 -0.9063  2.8244
 8956TIP3    H248360   6.496   5.562  11.658  3.0909  0.0559 -0.0859
 8957TIP3   OH248361   5.399   3.336  12.523  0.4507  0.0030  0.5230
 8957TIP3    H148362   5.436   3.287  12.449  1.1651 -1.7800  1.9976
 8957TIP3    H248363   5.368   3.268  12.583 -3.3651  1.4208  0.3235
 8958TIP3   OH248364   3.715   2.608   5.992 -0.4702  0.1566  0.0094
 8958TIP3    H148365   3.649   2.607   6.061  1.5766 -1.4623  2.0095
 8958TIP3    H248366   3.779   2.674   6.021  0.3213 -0.4224 -0.3962
 8959TIP3   OH248367   4.828   4.397  16.946 -0.2445  0.3986 -0.3421
 8959TIP3    H148368   4.764   4.444  16.892 -1.1364 -0.8642 -0.3864
 8959TIP3    H248369   4.864   4.464  17.004 -1.2839  1.2094 -0.6226
 8960TIP3   OH248370   3.957   1.723  17.145 -1.2651 -0.1739  0.1252
 8960TIP3    H148371   3.958   1.654  17.079  0.4453  0.9305 -1.0606
 8960TIP3    H248372   4.048   1.734  17.170 -1.7517  0.3213  1.7212
 8961TIP3   OH248373   5.915   4.679  11.665  0.2426  0.1538 -0.3882
 8961TIP3    H148374   5.988   4.637  11.709 -0.3103  0.3936  0.7905
 8961TIP3    H248375   5.860   4.607  11.634  0.6100 -0.0177 -0.6348
 8962TIP3   OH248376   1.456   4.003  15.260 -0.2315 -0.2603  0.2850
 8962TIP3    H148377   1.509   3.940  15.310  0.8820 -0.2039 -0.8137
 8962TIP3    H248378   1.445   3.963  15.174 -0.7554  0.3989  0.0353
 8963TIP3   OH248379   3.225   0.686  16.499 -0.6122 -0.0659  0.2307
 8963TIP3    H148380   3.178   0.630  16.560 -1.4010  0.3638  0.0220
 8963TIP3    H248381   3.283   0.739  16.555 -2.0123  0.9895  0.6970
 8964TIP3   OH248382   3.154   2.121   0.059 -0.0966 -0.2612  0.3397
 8964TIP3    H148383   3.098   2.064   0.112  1.8053 -1.7906  0.7274
 8964TIP3    H248384   3.162   2.201   0.111 -1.1750 -0.3810  0.6997
 8965TIP3   OH248385   6.412   5.865  16.968  0.1930 -0.0047 -0.0272
 8965TIP3    H148386   6.489   5.857  16.911  0.5876  1.7728  0.2319
 8965TIP3    H248387   6.414   5.956  16.999 -0.9012 -0.5049  1.5705
 8966TIP3   OH248388   4.910   6.159   5.104 -0.2018 -0.6007 -0.2726
 8966TIP3    H148389   4.909   6.124   5.015 -0.9776  0.2627 -0.6120
 8966TIP3    H248390   4.817   6.160   5.129 -0.2784  1.9377 -0.5666
 8967TIP3   OH248391   1.506   2.859  15.777 -0.2410 -0.8636 -0.0333
 8967TIP3    H148392   1.500   2.954  15.770  0.7608 -0.8863 -1.4590
 8967TIP3    H248393   1.561   2.843  15.854  3.7197 -0.1581 -2.5656
 8968TIP3   OH248394   4.890   4.715  12.867 -0.0969 -0.2046 -0.4661
 8968TIP3    H148395   4.803   4.676  12.866 -0.8890  1.5017  0.3057
 8968TIP3    H248396   4.875   4.809  12.874  1.8282  0.0568  0.6731
 8969TIP3   OH248397   1.150   2.901   0.389  0.5568 -0.3569 -0.4609
 8969TIP3    H148398   1.144   2.872   0.297  1.2939 -1.5672 -0.1404
 8969TIP3    H248399   1.242   2.888   0.411  0.4083  0.0881  0.4124
 8970TIP3   OH248400   3.873   0.983  12.301 -0.0511  0.1140 -0.1359
 8970TIP3    H148401   3.890   0.978  12.207 -0.1550 -3.5710 -0.0227
 8970TIP3    H248402   3.956   0.957  12.342 -0.4357  0.2875  0.7679
 8971TIP3   OH248403   0.689   1.634   5.061 -0.1307  0.6968 -0.1789
 8971TIP3    H148404   0.691   1.655   5.154 -0.5785 -0.5524  0.1230
 8971TIP3    H248405   0.778   1.648   5.031  0.2701  0.0073  0.6819
 8972TIP3   OH248406   6.051   1.048   3.988 -0.6476 -0.0102  0.4946
 8972TIP3    H148407   6.120   1.011   3.934  1.2888  1.4805  1.8621
 8972TIP3    H248408   6.021   1.125   3.939  0.4046  0.7600  1.0372
 8973TIP3   OH248409   5.889   1.926  13.329 -0.2915 -0.8384  0.0504
 8973TIP3    H148410   5.983   1.915  13.341  0.3581  4.9856  1.9317
 8973TIP3    H248411   5.877   1.926  13.234  1.5817 -1.7690 -0.1974
 8974TIP3   OH248412   0.728   1.553   0.931 -0.7262 -0.7880 -0.2643
 8974TIP3    H148413   0.772   1.499   0.996 -0.5345  1.5572  1.6248
 8974TIP3    H248414   0.796   1.578   0.870 -0.7062 -2.2112 -0.8328
 8975TIP3   OH248415   3.259   2.451   3.925  0.0560 -0.0659 -0.7837
 8975TIP3    H148416   3.305   2.535   3.928  1.4123 -0.7373 -1.9198
 8975TIP3    H248417   3.329   2.386   3.912 -0.9445 -1.3998  0.3045
 8976TIP3   OH248418   2.367   6.664  16.790  0.5115 -0.0824  0.2941
 8976TIP3    H148419   2.328   6.720  16.723  0.5888  1.0216  1.1711
 8976TIP3    H248420   2.312   6.586  16.790 -0.3401  0.5128 -0.0524
 8977TIP3   OH248421   3.406   3.011   2.195  0.1389 -0.5111  0.0164
 8977TIP3    H148422   3.441   3.022   2.283  0.2122 -0.8645  0.0334
 8977TIP3    H248423   3.311   3.008   2.207  0.0638  0.9626 -0.0852
 8978TIP3   OH248424   4.249   0.048  11.924  0.0471 -0.0660 -0.1892
 8978TIP3    H148425   4.157   0.051  11.898  0.0798 -0.7663 -0.4089
 8978TIP3    H248426   4.248   0.051  12.019 -0.2401 -0.7883 -0.1676
 8979TIP3   OH248427   5.067   2.015  15.505  0.0786 -0.0990  0.1761
 8979TIP3    H148428   5.041   2.084  15.566 -1.0129 -1.2111  0.9931
 8979TIP3    H248429   5.018   2.034  15.425 -1.8577 -1.0929  1.0893
 8980TIP3   OH248430   1.636   4.000   0.020  0.1741 -0.0350  0.2321
 8980TIP3    H148431   1.596   3.982  -0.065 -1.7331 -0.2554  1.1722
 8980TIP3    H248432   1.608   4.089   0.042 -1.4386 -0.9111  1.7929
 8981TIP3   OH248433   0.754   2.619   1.292  0.3999 -0.2265 -0.9688
 8981TIP3    H148434   0.789   2.549   1.348  0.2938 -0.4267 -1.1503
 8981TIP3    H248435   0.662   2.625   1.316  0.3958 -0.1912 -0.9939
 8982TIP3   OH248436   0.797   3.275  14.487  0.0370  0.2553 -0.3258
 8982TIP3    H148437   0.733   3.206  14.503  0.2176  0.1212 -0.1765
 8982TIP3    H248438   0.747   3.357  14.493 -0.1882  0.1350 -0.5649
 8983TIP3   OH248439   6.566   1.408  11.299  0.6196  0.2406 -0.3390
 8983TIP3    H148440   6.487   1.463  11.296  1.7797  1.9118 -2.0442
 8983TIP3    H248441   6.627   1.457  11.354  0.1229 -1.5806  1.8803
 8984TIP3   OH248442   0.249   3.028  14.595  0.0635 -0.0485 -0.5696
 8984TIP3    H148443   0.206   3.047  14.679  1.0882 -2.5346  0.5998
 8984TIP3    H248444   0.282   3.112  14.565 -0.6047  0.9443  1.3700
 8985TIP3   OH248445   6.455   6.372  10.453 -0.0438 -0.3799 -0.2104
 8985TIP3    H148446   6.402   6.445  10.422  0.5563 -0.1690 -0.7333
 8985TIP3    H248447   6.410   6.342  10.532 -0.1277  0.7418  0.1680
 8986TIP3   OH248448   1.091   1.294  13.208  0.0680  0.1598  0.0495
 8986TIP3    H148449   1.100   1.357  13.280  2.0038 -1.0853  0.9322
 8986TIP3    H248450   1.146   1.330  13.138 -1.5770  1.2141 -0.7393
 8987TIP3   OH248451   0.398   3.804   0.285  0.1511 -0.2189 -0.0416
 8987TIP3    H148452   0.483   3.827   0.246  0.6053  1.8239  2.0189
 8987TIP3    H248453   0.376   3.880   0.339 -2.4298 -1.2514  0.3961
 8988TIP3   OH248454   4.991   2.086   2.004  0.2112 -0.5388 -0.4346
 8988TIP3    H148455   4.919   2.104   1.944  0.7456  0.0176 -0.9089
 8988TIP3    H248456   5.011   1.993   1.990 -1.1969 -1.0087  0.5578
 8989TIP3   OH248457   4.428   4.396   4.298  0.1383 -0.0972  0.3249
 8989TIP3    H148458   4.435   4.301   4.291 -0.8987 -0.1232 -0.4258
 8989TIP3    H248459   4.508   4.423   4.345  0.9183 -1.2267 -0.3468
 8990TIP3   OH248460   0.046   6.010   1.804 -0.2441 -0.3634  0.0078
 8990TIP3    H148461   0.028   5.936   1.862 -0.5262  0.4112  0.9325
 8990TIP3    H248462   0.116   5.980   1.747 -0.5104 -1.4183  0.2255
 8991TIP3   OH248463   5.308   6.168   4.936 -0.2143 -0.2315  0.4369
 8991TIP3    H148464   5.308   6.181   5.031 -1.4689 -1.4599  0.6100
 8991TIP3    H248465   5.217   6.182   4.909  0.8010  4.1499 -1.1939
 8992TIP3   OH248466   3.616   5.613  16.732  0.0673  0.0343  0.8644
 8992TIP3    H148467   3.560   5.670  16.681  0.4574 -1.5108 -1.3488
 8992TIP3    H248468   3.564   5.534  16.747  0.6306 -0.2737  1.2358
 8993TIP3   OH248469   5.753   6.656  13.017 -0.2224  0.1789  0.7491
 8993TIP3    H148470   5.723   6.739  12.982  1.0234  0.2085 -0.2972
 8993TIP3    H248471   5.707   6.590  12.965 -1.0658  0.2118  1.4504
 8994TIP3   OH248472   6.245   0.899   4.265 -0.0006  0.6323  0.2030
 8994TIP3    H148473   6.246   0.814   4.310 -0.8012  1.1941  1.3137
 8994TIP3    H248474   6.218   0.878   4.176  2.0565 -0.5574 -0.1663
 8995TIP3   OH248475   2.346   1.106   2.522 -0.0396 -0.1019  0.7009
 8995TIP3    H148476   2.340   1.115   2.427  0.4586  0.1538  0.6913
 8995TIP3    H248477   2.389   1.021   2.536 -1.8653 -1.0485  0.7368
 8996TIP3   OH248478   0.526   1.873   5.192 -0.1148 -0.4950 -0.7461
 8996TIP3    H148479   0.580   1.916   5.126 -1.1851  3.8814  1.0398
 8996TIP3    H248480   0.584   1.810   5.233  2.3137  0.9408 -1.8719
 8997TIP3   OH248481   3.695   2.533  11.738 -0.1001  0.3571  0.1989
 8997TIP3    H148482   3.729   2.526  11.649  0.6121  0.1221  0.4838
 8997TIP3    H248483   3.750   2.598  11.780 -0.9659  1.0747  0.2297
 8998TIP3   OH248484   5.709   0.601   4.798 -0.2179  0.1307  0.1914
 8998TIP3    H148485   5.733   0.537   4.731  1.5157 -0.0234  0.9309
 8998TIP3    H248486   5.717   0.686   4.754  0.5586  0.0095  0.0817
 8999TIP3   OH248487   1.967   5.567  15.388  0.0560  0.5565 -0.4000
 8999TIP3    H148488   1.880   5.529  15.379  0.4495  0.1516 -2.8659
 8999TIP3    H248489   1.952   5.655  15.423 -1.3431  0.4615 -0.7525
 9000TIP3   OH248490   1.098   0.049  15.774 -0.1430 -0.1036  0.4008
 9000TIP3    H148491   1.028   0.043  15.708 -0.9976 -0.1730  1.3092
 9000TIP3    H248492   1.160  -0.020  15.749  0.5865  1.1996 -1.5366
 9001TIP3   OH248493   5.103   1.891   5.465  0.2527  0.2179  0.5293
 9001TIP3    H148494   5.159   1.847   5.401 -1.5244  0.0828 -0.9763
 9001TIP3    H248495   5.141   1.868   5.550  1.0488 -1.8507 -0.3539
 9002TIP3   OH248496   0.753   4.257  15.808  0.2980 -0.0342 -0.2481
 9002TIP3    H148497   0.754   4.200  15.885 -0.6097 -2.1310 -1.7423
 9002TIP3    H248498   0.666   4.295  15.808  0.5216  0.4829  0.1184
 9003TIP3   OH248499   5.950   4.412  15.923  0.5152  0.1167 -0.1181
 9003TIP3    H148500   5.909   4.346  15.867  1.2425 -0.8468  0.4531
 9003TIP3    H248501   6.044   4.396  15.913  0.7309  1.6227 -0.6159
 9004TIP3   OH248502   1.126   0.552   1.524 -0.0468  0.3588 -0.2154
 9004TIP3    H148503   1.206   0.554   1.472 -0.1750 -0.3984 -0.4543
 9004TIP3    H248504   1.107   0.644   1.544  0.7428  0.5548 -0.3672
 9005TIP3   OH248505   0.740   0.898  13.463  0.5873  0.0554  0.5805
 9005TIP3    H148506   0.739   0.803  13.454  2.0750  0.1317 -0.5799
 9005TIP3    H248507   0.784   0.929  13.384  1.2476  1.6411  1.5538
 9006TIP3   OH248508   5.062   2.493  13.421 -0.4001 -0.5828 -0.9355
 9006TIP3    H148509   5.089   2.584  13.416  0.6728 -1.0408 -4.0034
 9006TIP3    H248510   4.969   2.494  13.398 -0.9802 -0.0512  1.2552
 9007TIP3   OH248511   6.484   0.316  10.722  0.2201 -0.5831  0.1541
 9007TIP3    H148512   6.539   0.244  10.752 -0.3454 -1.0387  0.0969
 9007TIP3    H248513   6.457   0.360  10.802  2.7481  1.2011  0.0830
 9008TIP3   OH248514   5.545   5.663   1.453  0.3576 -0.0072  0.5053
 9008TIP3    H148515   5.606   5.729   1.419  1.6358 -0.7082  1.3928
 9008TIP3    H248516   5.460   5.705   1.449  1.1374  1.6316  0.8737
 9009TIP3   OH248517   5.992   5.523  12.819 -0.0194  0.1984 -0.2424
 9009TIP3    H148518   5.987   5.521  12.723 -2.0221  1.0734 -0.1944
 9009TIP3    H248519   6.040   5.604  12.838 -0.1991  0.3688 -0.5033
 9010TIP3   OH248520   2.202   6.308  15.679 -0.0330 -0.3348  0.0536
 9010TIP3    H148521   2.163   6.264  15.754  1.9066  0.5830  1.6599
 9010TIP3    H248522   2.186   6.401  15.695  0.2362 -0.1511 -0.7389
 9011TIP3   OH248523   4.731   4.031  12.928  0.0337  0.0922 -0.3999
 9011TIP3    H148524   4.760   3.942  12.907 -0.2721  0.1032 -0.8727
 9011TIP3    H248525   4.805   4.087  12.904  1.2913 -0.2702  2.4045
 9012TIP3   OH248526   2.083   5.462   0.304 -0.4478  0.0277 -0.0644
 9012TIP3    H148527   2.059   5.460   0.397 -1.5202 -0.1889 -0.3345
 9012TIP3    H248528   2.053   5.377   0.271  0.9360 -0.3495 -0.3715
 9013TIP3   OH248529   3.296   2.893  13.277 -0.2572 -0.4463 -0.4563
 9013TIP3    H148530   3.384   2.855  13.285  0.4687  1.7089  2.8313
 9013TIP3    H248531   3.244   2.846  13.342 -0.6775  0.5254 -0.0775
 9014TIP3   OH248532   4.785   6.535   3.920 -0.2540  0.0049  0.2183
 9014TIP3    H148533   4.756   6.475   3.990  0.6395  0.4759  0.9948
 9014TIP3    H248534   4.709   6.592   3.905 -0.9319 -0.9816 -0.1649
 9015TIP3   OH248535   5.783   0.343   0.599  0.2907 -0.1979 -0.3448
 9015TIP3    H148536   5.753   0.381   0.516  1.4443  2.0231  0.2136
 9015TIP3    H248537   5.878   0.342   0.592  0.3927 -0.0852  0.9110
 9016TIP3   OH248538   3.601   3.697  16.453 -0.4533 -0.2835  0.1146
 9016TIP3    H148539   3.684   3.671  16.412 -0.8682  1.7142 -2.0777
 9016TIP3    H248540   3.627   3.764  16.517 -0.2316 -0.6405  0.4019
 9017TIP3   OH248541   5.789   5.356  17.122 -0.2293  0.4921  0.0623
 9017TIP3    H148542   5.714   5.401  17.161  0.3359  1.4647  0.0381
 9017TIP3    H248543   5.781   5.265  17.153 -0.1201  1.1099  2.0073
 9018TIP3   OH248544   1.650   3.396   3.776 -0.1731  0.2835 -0.1992
 9018TIP3    H148545   1.719   3.362   3.719  1.7088 -1.9050  3.2088
 9018TIP3    H248546   1.572   3.344   3.754 -0.1392  1.0909 -2.3431
 9019TIP3   OH248547   1.771   4.521  15.869  1.0062 -0.3542 -0.3158
 9019TIP3    H148548   1.865   4.535  15.880  0.6904 -0.1676  2.5070
 9019TIP3    H248549   1.734   4.537  15.956 -1.6768 -0.1514 -1.4447
 9020TIP3   OH248550   2.655   1.014   4.270 -0.2099 -0.5269 -0.0881
 9020TIP3    H148551   2.668   1.106   4.248  0.3485 -0.2297  1.4134
 9020TIP3    H248552   2.560   1.003   4.275 -0.2440  0.4592  1.6959
 9021TIP3   OH248553   2.622   3.063  11.888  0.2265  0.2188 -0.3394
 9021TIP3    H148554   2.684   3.129  11.854 -1.1847  1.0124 -1.4276
 9021TIP3    H248555   2.644   2.983  11.840  2.6216 -0.4328  1.7078
 9022TIP3   OH248556   3.816   3.488   0.351 -0.6751 -0.6913 -0.3355
 9022TIP3    H148557   3.873   3.419   0.318  1.6487  0.4259  1.2097
 9022TIP3    H248558   3.774   3.450   0.428  1.9957  0.1489  1.6033
 9023TIP3   OH248559   4.372   5.750  13.962  0.3340 -0.2583  0.2689
 9023TIP3    H148560   4.388   5.843  13.975  1.8680 -0.6879  1.5694
 9023TIP3    H248561   4.281   5.737  13.987 -0.4609  1.2112 -1.7352
 9024TIP3   OH248562   3.861   4.001   2.646 -0.3516  0.6511  0.0691
 9024TIP3    H148563   3.917   3.939   2.601 -0.1481  0.2421  0.8881
 9024TIP3    H248564   3.785   4.010   2.589 -0.6213 -0.7475  0.1909
 9025TIP3   OH248565   3.208   3.318   5.903 -0.1789 -0.2125  0.6474
 9025TIP3    H148566   3.182   3.228   5.879 -0.1324 -0.3252  1.0185
 9025TIP3    H248567   3.136   3.349   5.959 -0.0661 -0.1125  0.7353
 9026TIP3   OH248568   1.245   2.336  13.722  0.1131 -0.2572  0.3680
 9026TIP3    H148569   1.301   2.259  13.732  1.2258  0.5626  0.5996
 9026TIP3    H248570   1.301   2.410  13.747 -0.4684  0.7735 -1.2454
 9027TIP3   OH248571   2.786   1.908   3.932 -0.4101 -0.0078 -0.5329
 9027TIP3    H148572   2.741   1.969   3.990 -0.0510 -0.0719 -0.1798
 9027TIP3    H248573   2.822   1.962   3.862  1.5770  0.4507  0.8262
 9028TIP3   OH248574   6.200   0.328  12.693  0.1330  0.0780  0.1953
 9028TIP3    H148575   6.202   0.242  12.735  0.0676  0.0895  0.2218
 9028TIP3    H248576   6.260   0.382  12.745  0.7254 -0.1464 -0.2455
 9029TIP3   OH248577   2.797   4.848   6.509 -0.0359  0.2286  0.0022
 9029TIP3    H148578   2.860   4.872   6.577  0.3208  0.8202 -0.5375
 9029TIP3    H248579   2.850   4.831   6.431 -0.4503 -0.4159 -0.1441
 9030TIP3   OH248580   0.822   5.077  11.131 -0.0440  0.1564  0.0199
 9030TIP3    H148581   0.779   4.991  11.130 -0.0276  0.1158  1.6691
 9030TIP3    H248582   0.805   5.111  11.218 -0.8423  2.2643 -0.9411
 9031TIP3   OH248583   5.039   2.286   6.267 -0.0626  0.0274  0.2099
 9031TIP3    H148584   5.098   2.322   6.200  0.1301 -1.7952 -0.6331
 9031TIP3    H248585   4.952   2.315   6.241 -0.0041 -0.7822 -0.9356
 9032TIP3   OH248586   6.141   2.668   0.058  0.1059  0.1478 -0.3915
 9032TIP3    H148587   6.145   2.705  -0.030 -3.8949 -0.7729 -1.0545
 9032TIP3    H248588   6.103   2.738   0.112 -0.1942 -0.3164 -0.0010
 9033TIP3   OH248589   3.775   5.281   2.079 -0.3128  0.0080 -0.1491
 9033TIP3    H148590   3.844   5.234   2.032  1.9997  1.3725  1.7880
 9033TIP3    H248591   3.709   5.214   2.096  0.6783 -1.4281 -1.7188
 9034TIP3   OH248592   0.828   5.923  11.860 -0.7917  0.1107  0.5719
 9034TIP3    H148593   0.759   5.893  11.920 -1.8160  0.3138 -0.4799
 9034TIP3    H248594   0.865   5.842  11.824 -1.9015  0.0416 -0.4318
 9035TIP3   OH248595   4.941   5.070   2.656  0.1023 -0.0259 -0.3616
 9035TIP3    H148596   4.967   5.113   2.575 -1.6247 -0.0110 -0.9224
 9035TIP3    H248597   4.983   5.121   2.725  0.1958  0.9747 -1.1581
 9036TIP3   OH248598   2.537   3.673   3.906  0.5320 -0.4293 -0.1528
 9036TIP3    H148599   2.443   3.672   3.891  0.3748 -0.7349  0.7970
 9036TIP3    H248600   2.564   3.581   3.899  1.1329 -0.0889 -2.6066
 9037TIP3   OH248601   5.344   4.583   5.266  0.1264  0.1784  0.2065
 9037TIP3    H148602   5.253   4.607   5.280  0.6606  1.5814  1.4024
 9037TIP3    H248603   5.348   4.489   5.282 -1.0476  0.1696  0.4383
 9038TIP3   OH248604   1.874   0.377  14.602 -0.4564  0.0244  0.1778
 9038TIP3    H148605   1.917   0.391  14.517 -0.8821 -0.5451 -0.1416
 9038TIP3    H248606   1.871   0.463  14.642 -1.8730  0.6396 -1.1726
 9039TIP3   OH248607   2.858   3.387   3.441 -0.1269 -0.0177  0.4268
 9039TIP3    H148608   2.863   3.310   3.497 -0.8636 -0.5971 -0.2931
 9039TIP3    H248609   2.768   3.388   3.409  0.0561  0.7756 -0.0919
 9040TIP3   OH248610   3.189   2.226   5.676 -0.0460 -0.8240  0.0429
 9040TIP3    H148611   3.211   2.150   5.622  0.6129 -0.9603  0.4941
 9040TIP3    H248612   3.127   2.192   5.741  0.1257 -0.9465  0.1452
 9041TIP3   OH248613   4.745   5.897   0.610  0.3033 -0.2886 -0.4237
 9041TIP3    H148614   4.785   5.962   0.552  0.2481  0.5629  0.4745
 9041TIP3    H248615   4.751   5.936   0.697 -1.3384 -0.7079 -0.1033
 9042TIP3   OH248616   4.553   0.620   2.447  0.0345  0.0772 -0.0571
 9042TIP3    H148617   4.533   0.636   2.355  2.7184 -0.2100 -0.7429
 9042TIP3    H248618   4.542   0.525   2.458 -2.2606  0.3673  0.4762
 9043TIP3   OH248619   4.734   6.619  16.791 -0.3630  0.3918 -0.0290
 9043TIP3    H148620   4.675   6.665  16.851 -2.0831  0.0922 -1.4604
 9043TIP3    H248621   4.765   6.686  16.731 -0.5389  0.2285 -0.3016
 9044TIP3   OH248622   4.721   0.619   4.067  0.1421  0.3192 -0.2634
 9044TIP3    H148623   4.787   0.550   4.055  0.0654  0.2942 -0.5651
 9044TIP3    H248624   4.664   0.585   4.136 -0.6009 -0.4758 -1.2383
 9045TIP3   OH248625   3.927   5.622   5.500 -0.1072  0.0280  0.0802
 9045TIP3    H148626   3.907   5.585   5.586 -1.5059 -0.7762 -0.5642
 9045TIP3    H248627   3.863   5.692   5.488  1.1901  1.2737  0.4130
 9046TIP3   OH248628   2.668   1.702   6.773  0.3302 -0.4081 -0.1042
 9046TIP3    H148629   2.637   1.683   6.862 -0.6183 -0.5724 -0.4707
 9046TIP3    H248630   2.630   1.787   6.753 -0.4465 -0.9247 -0.8219
 9047TIP3   OH248631   3.145   5.505  12.270 -0.0790 -0.3980  0.3251
 9047TIP3    H148632   3.229   5.462  12.283 -0.4262 -0.8432  1.1221
 9047TIP3    H248633   3.168   5.592  12.237  0.6632 -0.7792 -0.1636
 9048TIP3   OH248634   1.689   1.767   1.430  0.1844 -0.2070 -0.3386
 9048TIP3    H148635   1.677   1.679   1.394  0.7408  0.4111 -2.1100
 9048TIP3    H248636   1.665   1.759   1.522  0.0135 -2.1622 -0.5290
 9049TIP3   OH248637   4.095   0.265  14.572 -0.3309 -0.0052  0.5286
 9049TIP3    H148638   4.095   0.313  14.655 -0.6286  0.6113  0.1772
 9049TIP3    H248639   4.173   0.297  14.526 -0.4625  0.0493  0.3443
 9050TIP3   OH248640   3.895   0.270  13.362 -0.4198 -0.0288  0.6160
 9050TIP3    H148641   3.834   0.213  13.316 -0.7090  0.2198  0.6857
 9050TIP3    H248642   3.868   0.359  13.337 -0.5014  0.1021  1.1658
 9051TIP3   OH248643   0.371   0.028  14.731  0.3940  0.0681  0.5655
 9051TIP3    H148644   0.356  -0.019  14.813  1.8321 -1.2637  0.0917
 9051TIP3    H248645   0.388  -0.041  14.666 -1.0645  1.0739 -0.9425
 9052TIP3   OH248646   6.100   0.091   3.443  0.8640 -0.2530  0.7193
 9052TIP3    H148647   6.161   0.100   3.516  0.8714 -1.7757  0.9182
 9052TIP3    H248648   6.060   0.178   3.434  1.8580  0.3138  1.6353
 9053TIP3   OH248649   4.614   3.153  10.754 -0.0129 -0.2011 -0.3445
 9053TIP3    H148650   4.546   3.120  10.813  0.5911 -0.2024  0.3416
 9053TIP3    H248651   4.672   3.079  10.740  0.3026  0.0370 -0.2899
 9054TIP3   OH248652   5.608   2.060   2.873  0.1261  0.2350  0.4142
 9054TIP3    H148653   5.651   2.108   2.804 -2.0374 -1.1480 -1.9871
 9054TIP3    H248654   5.664   1.983   2.888 -1.3641 -1.5347 -2.6526
 9055TIP3   OH248655   4.359   0.044   5.320  0.2316 -0.1114  1.1327
 9055TIP3    H148656   4.331   0.115   5.378  0.6200  0.9271  0.0447
 9055TIP3    H248657   4.324   0.067   5.234  1.7630 -0.3914  0.4184
 9056TIP3   OH248658   1.229   4.617  14.126  0.8008 -0.2287  0.6571
 9056TIP3    H148659   1.164   4.664  14.179  0.3079  0.0485 -0.1671
 9056TIP3    H248660   1.308   4.616  14.179  0.0947 -0.6373  1.7101
 9057TIP3   OH248661   2.179   3.246  11.971 -0.1774  0.6202  0.0151
 9057TIP3    H148662   2.157   3.332  12.006 -1.8845  0.8365 -1.5204
 9057TIP3    H248663   2.251   3.263  11.910 -0.5051  0.9495 -0.2810
 9058TIP3   OH248664   0.769   4.555   0.830  0.1177 -0.1166 -0.2117
 9058TIP3    H148665   0.824   4.534   0.905 -1.6906 -3.1636  0.3451
 9058TIP3    H248666   0.830   4.569   0.758  1.7485 -0.2546  1.1268
 9059TIP3   OH248667   1.764   0.723   2.994 -0.4194  0.2258  0.0706
 9059TIP3    H148668   1.814   0.772   2.928 -1.4945 -0.2725 -1.1439
 9059TIP3    H248669   1.829   0.668   3.038  0.5130  1.4843  0.2804
 9060TIP3   OH248670   4.485   2.327  14.505  0.0345  0.3413  0.3855
 9060TIP3    H148671   4.467   2.236  14.528  2.3299 -0.2388 -0.0055
 9060TIP3    H248672   4.524   2.323  14.418 -0.9156  1.8099 -0.1260
 9061TIP3   OH248673   2.137   0.874  16.023 -0.0541  0.0021  0.1862
 9061TIP3    H148674   2.220   0.827  16.009  0.8853  1.3650  0.9923
 9061TIP3    H248675   2.117   0.913  15.939  0.3370 -0.0219  0.0801
 9062TIP3   OH248676   0.587   5.961  16.655 -0.1426  0.4091 -0.2776
 9062TIP3    H148677   0.543   5.886  16.694 -0.3179  0.7231  0.1373
 9062TIP3    H248678   0.520   6.004  16.603 -0.5882  1.4206  1.1096
 9063TIP3   OH248679   1.551   0.195  14.934  0.3200 -0.3099 -0.3048
 9063TIP3    H148680   1.460   0.192  14.905  0.2454 -0.6252 -0.0326
 9063TIP3    H248681   1.600   0.220  14.855 -0.1201  0.9957 -0.1749
 9064TIP3   OH248682   6.642   0.259  11.375 -0.0040 -0.6357  0.2699
 9064TIP3    H148683   6.662   0.252  11.282 -0.8664  1.2587 -0.0916
 9064TIP3    H248684   6.603   0.174  11.398  0.6274 -1.2688 -0.9884
 9065TIP3   OH248685   5.547   0.432  13.577 -0.3182  0.6977  0.3367
 9065TIP3    H148686   5.574   0.342  13.557  1.1416  1.2426 -0.1864
 9065TIP3    H248687   5.628   0.483  13.573 -0.7530  1.6733  2.8125
 9066TIP3   OH248688   1.497   1.609   1.995  0.4311 -0.1633 -0.4229
 9066TIP3    H148689   1.436   1.658   2.049  0.5588  0.7754 -1.1216
 9066TIP3    H248690   1.564   1.673   1.970  1.8219 -1.2197  0.5131
 9067TIP3   OH248691   5.349   3.492  15.486 -0.0263 -0.2451  0.4187
 9067TIP3    H148692   5.279   3.516  15.425  0.5594 -0.8952 -0.5277
 9067TIP3    H248693   5.327   3.403  15.513  1.5609 -1.2901 -1.5667
 9068TIP3   OH248694   1.175   3.882   3.557  0.3104  0.5316 -0.0516
 9068TIP3    H148695   1.148   3.958   3.609  1.7113  0.5980  0.5995
 9068TIP3    H248696   1.106   3.817   3.573  0.4473  0.7428  1.4668
 9069TIP3   OH248697   2.805   4.618  16.960 -0.1012 -0.2477 -0.0990
 9069TIP3    H148698   2.841   4.531  16.942 -1.1693 -0.9470  1.0094
 9069TIP3    H248699   2.805   4.623  17.056 -4.6255 -1.0207  0.0211
 9070TIP3   OH248700   0.016   0.367   4.305  0.3486  0.3521 -0.3994
 9070TIP3    H148701  -0.040   0.317   4.245  0.3496 -0.8867  0.5941
 9070TIP3    H248702  -0.039   0.438   4.336 -0.4052 -0.3716 -0.0714
 9071TIP3   OH248703   0.949   5.875   5.289  0.0983 -0.7663 -0.2520
 9071TIP3    H148704   0.872   5.822   5.268  0.2160 -0.5610 -1.2296
 9071TIP3    H248705   0.922   5.927   5.365 -0.8588 -0.4335 -0.8103
 9072TIP3   OH248706   2.223   4.850   5.049  0.7616  0.1790  0.0382
 9072TIP3    H148707   2.169   4.885   4.979  1.9480 -0.8760 -1.4325
 9072TIP3    H248708   2.313   4.868   5.022  1.3198 -2.1903  0.2055
 9073TIP3   OH248709   6.731   0.213  12.024 -0.4173 -0.2233 -0.3138
 9073TIP3    H148710   6.647   0.189  11.983 -0.1500 -1.0119 -0.4003
 9073TIP3    H248711   6.763   0.131  12.063  0.6838 -0.1010 -0.9414
 9074TIP3   OH248712   0.054   0.049   4.399  0.0547  0.3060  0.3829
 9074TIP3    H148713   0.135   0.088   4.366  0.2725 -1.1671 -0.8858
 9074TIP3    H248714  -0.016   0.104   4.364  0.4247  0.5992  0.1003
 9075TIP3   OH248715   1.748   1.205  13.092  0.9198  0.2512  0.3290
 9075TIP3    H148716   1.841   1.219  13.108  0.7467  0.5236  1.1000
 9075TIP3    H248717   1.742   1.112  13.070  1.4433  0.3561 -0.2890
 9076TIP3   OH248718   3.125   6.388   0.778 -0.5270  0.1452  0.5520
 9076TIP3    H148719   3.153   6.351   0.695 -1.0801 -0.5543  0.6834
 9076TIP3    H248720   3.035   6.416   0.764 -0.3110  0.9153  0.6297
 9077TIP3   OH248721   5.355   6.312  16.860  0.4104  0.1202  1.4597
 9077TIP3    H148722   5.314   6.226  16.854  0.0006  0.4231 -0.3579
 9077TIP3    H248723   5.442   6.300  16.821  0.1733  0.6348  0.7612
 9078TIP3   OH248724   4.860   5.808   1.166 -0.1736  0.3606  0.6214
 9078TIP3    H148725   4.804   5.867   1.216  0.4327  0.5347  1.1019
 9078TIP3    H248726   4.896   5.862   1.096  0.0130  0.4505  0.7844
 9079TIP3   OH248727   4.863   0.972  13.995 -0.5887 -0.4547 -0.0490
 9079TIP3    H148728   4.954   1.001  13.999 -0.5076 -0.3776 -1.9657
 9079TIP3    H248729   4.868   0.878  13.978 -0.8565 -0.3689 -0.6282
 9080TIP3   OH248730   6.635   0.917   1.930  0.2617 -0.5243  0.1349
 9080TIP3    H148731   6.652   0.972   1.853  1.2189  0.7214  1.2118
 9080TIP3    H248732   6.546   0.941   1.957  1.2410  1.6988  1.5280
 9081TIP3   OH248733   1.219   0.052  16.643 -0.3511  0.6684 -0.0871
 9081TIP3    H148734   1.296  -0.004  16.630 -1.0995 -0.4270  0.1312
 9081TIP3    H248735   1.245   0.136  16.606  0.3101 -0.2033 -1.7029
 9082TIP3   OH248736   6.802   5.917   5.183 -0.3911 -0.0263 -0.0687
 9082TIP3    H148737   6.826   5.836   5.137  0.9918  0.8183 -0.8616
 9082TIP3    H248738   6.837   5.987   5.128 -1.8427  1.1279  0.4632
 9083TIP3   OH248739   2.816   0.497   3.572 -0.1609  0.2011 -0.3227
 9083TIP3    H148740   2.723   0.498   3.595 -0.0030  1.0525  0.2683
 9083TIP3    H248741   2.853   0.572   3.617  1.1429 -1.0849  0.7873
 9084TIP3   OH248742   4.631   2.890  12.410 -0.1223  0.6970 -0.0263
 9084TIP3    H148743   4.553   2.876  12.356 -1.9282  0.5532  2.5251
 9084TIP3    H248744   4.644   2.985  12.409 -0.9742  0.8285  0.3424
 9085TIP3   OH248745   0.828   0.495  15.206  0.5653 -0.7325  0.3282
 9085TIP3    H148746   0.874   0.550  15.143 -1.1594  1.6575  1.0831
 9085TIP3    H248747   0.870   0.514  15.290 -0.3958 -0.1327  0.6814
 9086TIP3   OH248748   3.529   1.292   3.084  0.1626 -0.1683  0.5161
 9086TIP3    H148749   3.608   1.238   3.081 -0.6316 -1.2988 -0.5511
 9086TIP3    H248750   3.495   1.289   2.995  0.2969  2.4338  0.3258
 9087TIP3   OH248751   2.878   5.696   5.266  0.3105  0.3468 -0.8274
 9087TIP3    H148752   2.859   5.674   5.175  1.0651 -1.9163 -0.4762
 9087TIP3    H248753   2.889   5.611   5.309  2.6901  1.4034  0.7730
 9088TIP3   OH248754   4.695   1.916  11.799 -0.5023  0.1357  0.6222
 9088TIP3    H148755   4.609   1.885  11.826 -0.1762  0.2114  1.7943
 9088TIP3    H248756   4.752   1.895  11.873  0.7859 -1.2089 -0.6975
 9089TIP3   OH248757   0.162   4.056  14.474  0.0905  0.1400 -0.4018
 9089TIP3    H148758   0.138   4.034  14.384 -0.6102  0.4244 -0.2881
 9089TIP3    H248759   0.230   4.122  14.467  0.1155  0.0769 -0.7225
 9090TIP3   OH248760   3.290   1.460  11.938  0.1323  0.4211  0.2448
 9090TIP3    H148761   3.300   1.430  11.847 -2.5461  1.2839 -0.3645
 9090TIP3    H248762   3.280   1.555  11.931 -1.4435  0.3442  1.3346
 9091TIP3   OH248763   0.559   3.867  11.579 -0.3678  0.1803  0.1073
 9091TIP3    H148764   0.619   3.941  11.589  0.3422 -0.3962  0.1340
 9091TIP3    H248765   0.603   3.794  11.623 -1.0400 -0.2730  0.0336
 9092TIP3   OH248766   1.189   5.720  12.434 -0.6978 -0.4427 -0.0861
 9092TIP3    H148767   1.196   5.637  12.482 -0.5528 -0.5560 -0.3020
 9092TIP3    H248768   1.262   5.717  12.373 -0.8365 -0.2613 -0.2583
 9093TIP3   OH248769   0.199   4.253   2.147  1.2918 -0.5301 -0.5641
 9093TIP3    H148770   0.231   4.272   2.059  0.2426 -0.7454 -0.9962
 9093TIP3    H248771   0.167   4.337   2.179  1.7391 -0.4373 -0.3584
 9094TIP3   OH248772   6.247   3.612  12.193  0.4130 -0.1528 -0.6758
 9094TIP3    H148773   6.272   3.673  12.124 -0.4429 -0.8125 -1.5884
 9094TIP3    H248774   6.330   3.582  12.230  0.9041 -0.3108 -1.8878
 9095TIP3   OH248775   2.421   1.038   5.762 -0.2620  0.2040 -0.7327
 9095TIP3    H148776   2.429   0.982   5.839 -1.1814 -1.0810 -1.5519
 9095TIP3    H248777   2.415   1.127   5.797 -0.5206 -0.3570  0.6709
 9096TIP3   OH248778   4.532   5.077   3.683  0.1473 -0.0346  0.5796
 9096TIP3    H148779   4.617   5.055   3.722 -0.1666 -0.1865  1.1798
 9096TIP3    H248780   4.521   5.012   3.613 -0.3162 -1.1982  1.7061
 9097TIP3   OH248781   1.294   2.286  15.287 -0.2685  0.3145 -0.0457
 9097TIP3    H148782   1.276   2.213  15.229  1.0931 -0.2924  0.2689
 9097TIP3    H248783   1.282   2.251  15.375  2.6265 -0.2018  0.1823
 9098TIP3   OH248784   1.245   2.679  13.680 -0.2350 -0.1516  0.0069
 9098TIP3    H148785   1.227   2.735  13.755 -1.1832  0.9595 -1.0094
 9098TIP3    H248786   1.174   2.700  13.618  2.1699  1.2018 -2.3878
 9099TIP3   OH248787   4.632   1.799   4.163 -0.1741 -0.1402  0.2722
 9099TIP3    H148788   4.610   1.707   4.147  1.9242 -0.4798 -0.8198
 9099TIP3    H248789   4.570   1.848   4.108  0.4871 -0.9957 -1.2518
 9100TIP3   OH248790   4.414   5.409   0.564 -0.3169  0.0423 -0.0156
 9100TIP3    H148791   4.379   5.347   0.501  0.7966 -0.4800 -0.1399
 9100TIP3    H248792   4.509   5.401   0.555 -0.1344 -0.2718  1.9434
 9101TIP3   OH248793   0.543   5.339  15.009 -0.2996 -0.1062 -0.1150
 9101TIP3    H148794   0.474   5.358  14.946 -0.8110  0.2763  0.5475
 9101TIP3    H248795   0.609   5.406  14.992  1.1802 -2.0946 -2.5635
 9102TIP3   OH248796   6.387   3.439  14.439  0.3200 -0.4654  0.4405
 9102TIP3    H148797   6.419   3.359  14.481 -1.4197 -1.3740  0.0590
 9102TIP3    H248798   6.360   3.411  14.351 -0.5156  0.4889  0.3807
 9103TIP3   OH248799   6.383   1.841  12.547  0.1955 -0.1430  0.3982
 9103TIP3    H148800   6.322   1.787  12.497 -1.1092  0.5668  1.1768
 9103TIP3    H248801   6.334   1.866  12.625  0.6177  2.4868 -0.1303
 9104TIP3   OH248802   5.979   3.026   5.182  0.0539 -0.3407  0.0348
 9104TIP3    H148803   6.048   3.064   5.236 -0.4006 -0.6774  0.8630
 9104TIP3    H248804   5.995   3.060   5.094  0.3214  0.8431  0.5417
 9105TIP3   OH248805   1.714   2.095   5.281 -0.7413 -0.4717 -1.0347
 9105TIP3    H148806   1.738   2.185   5.303  0.9297 -1.0334 -0.5214
 9105TIP3    H248807   1.626   2.084   5.318 -0.3753  0.4994  0.1552
 9106TIP3   OH248808   6.037   3.434  10.999  0.9034  0.2707 -0.0585
 9106TIP3    H148809   6.030   3.354  10.947  1.1681 -0.1860  0.6059
 9106TIP3    H248810   5.948   3.468  11.002  0.4714 -0.9350  1.1284
 9107TIP3   OH248811   1.823   4.225  10.324 -0.0519 -0.3073 -0.0440
 9107TIP3    H148812   1.834   4.309  10.280  0.0002 -0.2293  0.1199
 9107TIP3    H248813   1.737   4.230  10.366  0.2240 -0.0923  0.5044
 9108TIP3   OH248814   0.000   4.632   4.145  0.1337 -0.2906 -0.5273
 9108TIP3    H148815   0.056   4.621   4.068 -2.2836 -1.9495 -2.1014
 9108TIP3    H248816  -0.073   4.686   4.115  0.1646  0.7064  1.1336
 9109TIP3   OH248817   1.264   1.026  17.195  0.9838  0.5541  0.1248
 9109TIP3    H148818   1.287   1.014  17.103  0.7584  0.4682  0.0790
 9109TIP3    H248819   1.267   1.121  17.207 -0.2289  0.6568 -0.2988
 9110TIP3   OH248820   3.196   4.775   4.401  0.0654  0.0337  0.2160
 9110TIP3    H148821   3.185   4.736   4.487  0.1244 -2.1522 -0.7228
 9110TIP3    H248822   3.282   4.744   4.371 -0.3700 -0.0369 -1.0136
 9111TIP3   OH248823   1.566   0.314  16.253 -0.5662  0.6890  0.4746
 9111TIP3    H148824   1.626   0.389  16.259  0.2578  0.0197  0.8214
 9111TIP3    H248825   1.484   0.346  16.289 -0.1816  1.4004  0.7322
 9112TIP3   OH248826   1.564   3.728   6.076 -1.1238  1.1364 -0.1170
 9112TIP3    H148827   1.575   3.813   6.033 -0.4847  1.3887  0.5375
 9112TIP3    H248828   1.495   3.742   6.141  0.2402  1.6557  1.2591
 9113TIP3   OH248829   4.611   4.271  15.437  0.0506 -0.5471 -0.0795
 9113TIP3    H148830   4.605   4.181  15.470  1.5836  0.0004  1.7986
 9113TIP3    H248831   4.705   4.284  15.422 -0.0196  1.1378  0.8639
 9114TIP3   OH248832   1.746   2.540  15.874  0.0296  0.0372  0.1301
 9114TIP3    H148833   1.735   2.615  15.931  0.7790  0.5439 -0.3867
 9114TIP3    H248834   1.815   2.488  15.915 -0.1576 -0.1297  0.2357
 9115TIP3   OH248835   2.554   5.971  16.527  0.1678  0.2654 -0.6661
 9115TIP3    H148836   2.492   5.948  16.458 -0.9754 -1.3719  0.8515
 9115TIP3    H248837   2.639   5.943  16.493 -0.6506 -2.4451 -0.6221
 9116TIP3   OH248838   2.311   5.543   1.923  0.2895  0.6915 -0.7137
 9116TIP3    H148839   2.220   5.572   1.936  0.7249  1.4700  0.7010
 9116TIP3    H248840   2.323   5.543   1.828 -1.3259  0.1376 -0.9382
 9117TIP3   OH248841   2.555   6.535   4.243 -0.2460  0.7377 -0.3582
 9117TIP3    H148842   2.491   6.516   4.174  0.1218 -0.9930 -0.2402
 9117TIP3    H248843   2.640   6.533   4.199  0.0463 -0.9866  0.2115
 9118TIP3   OH248844   4.206   2.260  15.501 -0.4304  0.0083  0.1348
 9118TIP3    H148845   4.135   2.196  15.504  0.3210 -0.8527 -0.3131
 9118TIP3    H248846   4.171   2.332  15.448 -0.8581 -0.5509 -0.3449
 9119TIP3   OH248847   0.660   4.830   6.705 -0.4759  0.1384 -0.0849
 9119TIP3    H148848   0.566   4.834   6.724 -0.5760 -1.4562 -0.2262
 9119TIP3    H248849   0.690   4.750   6.748  0.2020 -1.0421 -2.6670
 9120TIP3   OH248850   2.036   5.053   2.469 -0.5391 -0.4519 -0.0230
 9120TIP3    H148851   2.030   5.103   2.550 -1.2252 -0.8186  0.1539
 9120TIP3    H248852   2.004   5.113   2.401  1.2204  0.2934 -0.2189
 9121TIP3   OH248853   6.415   4.078  15.464 -0.2791  0.5171 -0.4029
 9121TIP3    H148854   6.453   4.053  15.380 -0.6778  0.2488 -0.5082
 9121TIP3    H248855   6.322   4.056  15.455  0.5204 -4.8170  2.0037
 9122TIP3   OH248856   3.718   4.718   1.049  0.2246 -0.3391 -0.4088
 9122TIP3    H148857   3.731   4.809   1.020 -0.2304 -0.2831 -0.4412
 9122TIP3    H248858   3.625   4.702   1.034  0.0700 -0.4422  0.6728
 9123TIP3   OH248859   3.074   6.008  13.088 -0.3870 -0.0311 -0.1078
 9123TIP3    H148860   3.133   5.970  13.023 -2.2720 -0.0722 -1.8558
 9123TIP3    H248861   3.132   6.043  13.156  1.5812 -0.9501 -1.2711
 9124TIP3   OH248862   5.900   3.231  15.561  0.5019 -0.0846 -0.0831
 9124TIP3    H148863   5.856   3.178  15.494  1.6630  0.6764 -1.4774
 9124TIP3    H248864   5.857   3.316  15.555 -0.6319 -0.5415  1.4148
 9125TIP3   OH248865   5.390   2.262  11.379  0.0803 -0.1729 -0.2006
 9125TIP3    H148866   5.362   2.345  11.417  2.3210 -0.3190  1.9229
 9125TIP3    H248867   5.401   2.204  11.455  2.6622 -1.1142 -1.2408
 9126TIP3   OH248868   0.150   1.343  12.975  0.1043 -0.1208 -0.0393
 9126TIP3    H148869   0.201   1.359  12.896  0.6794  0.3681  0.4302
 9126TIP3    H248870   0.160   1.423  13.027  0.3139 -0.7283  0.8531
 9127TIP3   OH248871   5.099   2.835   4.043 -0.0789 -0.5644  0.1494
 9127TIP3    H148872   5.148   2.916   4.033 -1.1851  0.4282  2.4113
 9127TIP3    H248873   5.008   2.862   4.046 -0.4809 -1.9165  0.6355
 9128TIP3   OH248874   3.636   4.287   6.074  0.3303  0.0993 -0.1590
 9128TIP3    H148875   3.674   4.326   6.153  0.4964  0.3045 -0.3361
 9128TIP3    H248876   3.576   4.220   6.106  0.8005 -0.1906  0.1320
 9129TIP3   OH248877   1.527   3.271  11.397  0.6455 -0.0524 -0.2313
 9129TIP3    H148878   1.519   3.262  11.492 -0.8755 -0.0283 -0.3388
 9129TIP3    H248879   1.559   3.360  11.384 -0.1356  0.3060  0.2316
 9130TIP3   OH248880   3.304   6.365  12.917 -0.3894 -0.5261  0.3166
 9130TIP3    H148881   3.332   6.423  12.989  1.2985 -1.3398  0.3419
 9130TIP3    H248882   3.254   6.422  12.859 -0.2137  0.5692  1.2105
 9131TIP3   OH248883   6.112   0.422   3.716  0.1084 -0.0220  0.4065
 9131TIP3    H148884   6.162   0.352   3.673  0.3400 -0.5060  1.4371
 9131TIP3    H248885   6.163   0.501   3.699  2.0067 -0.7097  2.6146
 9132TIP3   OH248886   2.598   5.823   3.070 -0.0322 -0.3119  0.1506
 9132TIP3    H148887   2.663   5.754   3.061  1.6397  1.5028 -2.4974
 9132TIP3    H248888   2.632   5.880   3.140  0.0204 -0.6103  0.3684
 9133TIP3   OH248889   4.438   4.315   4.790  0.1085  0.1034 -0.1250
 9133TIP3    H148890   4.450   4.234   4.839 -1.7346  0.6510  1.2815
 9133TIP3    H248891   4.360   4.299   4.737 -0.5043  1.1270  0.4793
 9134TIP3   OH248892   2.535   4.808   4.311 -0.4368  0.2567 -0.1179
 9134TIP3    H148893   2.625   4.825   4.338  0.2879 -0.7544 -1.8033
 9134TIP3    H248894   2.493   4.770   4.388  0.1339  2.1259  1.1516
 9135TIP3   OH248895   6.492   2.412  17.191  0.0064 -0.0762 -0.3098
 9135TIP3    H148896   6.500   2.496  17.145  0.7447  1.9205  3.2131
 9135TIP3    H248897   6.403   2.412  17.226  0.3823 -0.1807  0.6697
 9136TIP3   OH248898   5.632   3.735   4.567 -0.3007 -0.3293 -0.4296
 9136TIP3    H148899   5.722   3.768   4.569 -0.8792  1.3965 -1.2849
 9136TIP3    H248900   5.631   3.664   4.631  1.2721  0.7042  0.7902
 9137TIP3   OH248901   2.826   2.616   0.333  0.4210  0.0046 -0.4551
 9137TIP3    H148902   2.875   2.593   0.254 -1.1367 -2.3907 -0.7757
 9137TIP3    H248903   2.872   2.570   0.403  0.1041 -0.2209 -0.3947
 9138TIP3   OH248904   1.976   6.820  15.766  0.0457 -0.5986  0.1646
 9138TIP3    H148905   1.996   6.903  15.724  0.4158 -0.2014  1.0950
 9138TIP3    H248906   2.006   6.832  15.857 -3.1597 -0.4495  1.2640
 9139TIP3   OH248907   6.009   4.749   5.399  0.1600 -0.0779 -0.0066
 9139TIP3    H148908   6.061   4.829   5.410 -0.0634 -0.0310  0.7062
 9139TIP3    H248909   6.065   4.680   5.434 -0.4727  0.0471  1.2758
 9140TIP3   OH248910   5.480   1.599  14.571  0.4217 -0.4223 -0.5613
 9140TIP3    H148911   5.466   1.536  14.642  0.7601  0.0337 -0.0914
 9140TIP3    H248912   5.480   1.684  14.614  1.1535 -0.1782 -1.0384
 9141TIP3   OH248913   2.859   6.564  15.447 -0.2261 -1.1044 -0.1265
 9141TIP3    H148914   2.824   6.636  15.498  1.8046 -0.1184 -0.0804
 9141TIP3    H248915   2.931   6.529  15.501  1.6771 -0.3098 -2.0642
 9142TIP3   OH248916   5.297   3.864   3.874 -0.5974 -0.3179  0.8314
 9142TIP3    H148917   5.380   3.905   3.849 -0.4471 -0.0699  1.7050
 9142TIP3    H248918   5.311   3.837   3.965 -1.3081 -0.7161  0.8226
 9143TIP3   OH248919   5.771   6.440   6.013  0.0612 -0.2064 -0.4614
 9143TIP3    H148920   5.700   6.480   5.963 -0.0025  0.8003  0.4030
 9143TIP3    H248921   5.757   6.470   6.102  1.8781  0.4573 -0.3777
 9144TIP3   OH248922   2.107   3.530   4.047 -0.2346 -0.0226 -0.1234
 9144TIP3    H148923   2.075   3.539   4.136 -2.5332 -2.7833 -0.6168
 9144TIP3    H248924   2.083   3.613   4.004 -0.1818  0.8195  1.4543
 9145TIP3   OH248925   2.901   0.931   0.927 -0.8980 -0.2349  0.0324
 9145TIP3    H148926   2.946   0.862   0.877  1.6284  0.9351  0.5835
 9145TIP3    H248927   2.809   0.918   0.907 -0.1616 -1.2405 -3.1422
 9146TIP3   OH248928   6.203   1.422   2.993 -0.4418  0.2425 -0.0475
 9146TIP3    H148929   6.154   1.401   2.914  1.7410  0.0422 -1.3708
 9146TIP3    H248930   6.247   1.341   3.017  1.5544  1.1381 -0.5632
 9147TIP3   OH248931   2.909   4.664   1.466  0.4682 -0.5323  0.0194
 9147TIP3    H148932   2.882   4.636   1.554 -1.1985  2.4191  0.5095
 9147TIP3    H248933   3.001   4.687   1.476  0.1256  0.4019  1.1612
 9148TIP3   OH248934   6.090   5.709  14.145 -0.1806 -0.4889  0.0798
 9148TIP3    H148935   6.063   5.628  14.102 -0.8220 -1.5117  2.3269
 9148TIP3    H248936   6.137   5.680  14.223  3.8742  1.2817 -1.5559
 9149TIP3   OH248937   1.980   0.530   5.897 -0.3049  0.1967  0.4823
 9149TIP3    H148938   2.009   0.443   5.868  0.1008  0.1246  1.0993
 9149TIP3    H248939   1.885   0.522   5.906 -0.3305 -0.0341  0.0552
 9150TIP3   OH248940   3.772   2.322   1.516 -0.0279 -0.0134 -0.4956
 9150TIP3    H148941   3.682   2.293   1.529  0.6771 -2.6501 -1.0812
 9150TIP3    H248942   3.804   2.339   1.605 -0.3139 -1.6777 -0.0448
 9151TIP3   OH248943   5.406   6.443   0.332 -0.1049  0.5471 -0.2380
 9151TIP3    H148944   5.370   6.531   0.340  0.3519  0.6486  0.8383
 9151TIP3    H248945   5.332   6.390   0.301 -0.2732  1.3717 -1.2692
 9152TIP3   OH248946   5.637   2.532  11.409 -0.1894  0.2319 -0.2442
 9152TIP3    H148947   5.548   2.521  11.442  0.4684 -1.0524  1.1153
 9152TIP3    H248948   5.637   2.486  11.325 -0.4312 -0.9960  0.4169
 9153TIP3   OH248949   4.645   2.507   4.386  0.0312  0.4000  0.6260
 9153TIP3    H148950   4.660   2.461   4.468  1.2042 -0.3997 -0.0247
 9153TIP3    H248951   4.706   2.467   4.324 -1.1026  0.7351 -0.7375
 9154TIP3   OH248952   2.793   4.133   3.442  0.0098 -0.4376 -0.7512
 9154TIP3    H148953   2.791   4.128   3.537  1.7697  1.3449 -0.5968
 9154TIP3    H248954   2.701   4.144   3.416 -0.5292 -1.4901  0.6913
 9155TIP3   OH248955   0.172   6.348   1.553  0.0540 -0.3857 -0.3399
 9155TIP3    H148956   0.163   6.355   1.648 -0.3841  0.1721 -0.4210
 9155TIP3    H248957   0.129   6.266   1.530  1.2711 -1.1588  0.0882
 9156TIP3   OH248958   0.574   5.130  12.864 -0.0446 -0.2638  0.5785
 9156TIP3    H148959   0.633   5.159  12.794 -1.1048 -0.5755 -0.4677
 9156TIP3    H248960   0.508   5.198  12.869 -0.3074 -0.5383  0.8694
 9157TIP3   OH248961   6.658   5.589   4.082 -0.7485 -0.3856  0.1210
 9157TIP3    H148962   6.575   5.634   4.092 -0.9978 -0.9961  0.8186
 9157TIP3    H248963   6.660   5.524   4.153  0.2806 -0.4291  0.0726
 9158TIP3   OH248964   4.133   4.663  13.222  0.1572  0.0751  0.1402
 9158TIP3    H148965   4.078   4.627  13.292  1.5502  0.6464  1.5390
 9158TIP3    H248966   4.200   4.597  13.207 -0.6445 -0.4348 -1.2769
 9159TIP3   OH248967   1.342   5.888   2.160  0.1761  0.0816 -0.7963
 9159TIP3    H148968   1.299   5.850   2.084 -0.4880 -0.3013 -0.2356
 9159TIP3    H248969   1.351   5.981   2.138 -0.5294  0.0813 -1.1037
 9160TIP3   OH248970   4.589   0.044   4.414  0.4201 -0.0246  0.3196
 9160TIP3    H148971   4.615  -0.045   4.387 -0.4052 -0.1692 -0.0226
 9160TIP3    H248972   4.600   0.097   4.335 -2.3782 -0.5278 -0.4846
 9161TIP3   OH248973   4.230   1.358  13.273 -0.3728 -0.5219  0.7311
 9161TIP3    H148974   4.135   1.365  13.268 -0.5094 -3.4004 -2.7621
 9161TIP3    H248975   4.261   1.448  13.264 -2.7266  0.2358 -0.2428
 9162TIP3   OH248976   3.197   1.947  14.312  0.1359 -0.0958 -0.3483
 9162TIP3    H148977   3.257   1.990  14.253  0.4718  0.0168  0.0731
 9162TIP3    H248978   3.253   1.899  14.373 -0.1264  1.4887  1.1838
 9163TIP3   OH248979   2.254   0.439   5.747 -0.5619 -0.0728 -0.4844
 9163TIP3    H148980   2.202   0.390   5.683 -0.8313 -0.9343  0.3881
 9163TIP3    H248981   2.238   0.395   5.830 -2.1387  2.5195  0.6483
 9164TIP3   OH248982   6.056   3.246  14.444  0.7434 -0.1387  0.1228
 9164TIP3    H148983   6.061   3.332  14.403  1.1978 -0.5312 -0.6415
 9164TIP3    H248984   5.979   3.252  14.501  2.2772  1.6442  2.1030
 9165TIP3   OH248985   1.294   4.856  15.698  0.0862  0.2544  0.1785
 9165TIP3    H148986   1.233   4.782  15.685  0.8752  0.0084 -2.3491
 9165TIP3    H248987   1.320   4.849  15.789  0.3526 -2.8099 -0.0552
 9166TIP3   OH248988   3.070   1.057   1.174 -0.8179  0.3168 -0.4612
 9166TIP3    H148989   3.164   1.071   1.188 -0.7528  1.7926 -2.1171
 9166TIP3    H248990   3.065   1.004   1.094 -1.3419 -2.2069  1.2050
 9167TIP3   OH248991   5.790   3.426   2.658 -0.3575  0.7547 -0.1174
 9167TIP3    H148992   5.877   3.388   2.651 -0.0157  1.3400  0.8136
 9167TIP3    H248993   5.783   3.453   2.750 -2.2852 -1.1110  0.3141
 9168TIP3   OH248994   6.364   4.174   5.385  0.8626  0.5830 -0.7594
 9168TIP3    H148995   6.416   4.097   5.362  0.0242 -0.3665  0.4271
 9168TIP3    H248996   6.362   4.227   5.305 -1.3019 -2.2075 -2.6495
 9169TIP3   OH248997   3.906   1.840   4.805  0.1622  0.2029  0.2801
 9169TIP3    H148998   3.944   1.926   4.820 -0.5556  0.4205  0.9000
 9169TIP3    H248999   3.980   1.785   4.777 -0.0221  1.9116 -3.8584
 9170TIP3   OH249000   5.226   1.703  13.337  0.4679  0.2337 -0.2391
 9170TIP3    H149001   5.317   1.696  13.308 -0.0737  0.2418 -2.0086
 9170TIP3    H249002   5.217   1.635  13.403  1.2752 -0.9746 -1.3323
 9171TIP3   OH249003   3.843   6.385  14.776 -0.7419  0.4197  0.4841
 9171TIP3    H149004   3.750   6.362  14.774 -1.3845  2.7728  1.3553
 9171TIP3    H249005   3.844   6.481  14.777  1.7247  0.4446 -0.3780
 9172TIP3   OH249006   3.895   6.149  12.101 -0.2201  0.3946  0.0817
 9172TIP3    H149007   3.921   6.092  12.028 -1.2137 -1.6606  1.3087
 9172TIP3    H249008   3.841   6.217  12.060  0.9757  0.4984 -1.3940
 9173TIP3   OH249009   2.153   5.943  12.633  0.1483  0.0724  0.4593
 9173TIP3    H149010   2.149   5.852  12.662  1.0569 -0.2043 -0.2551
 9173TIP3    H249011   2.089   5.948  12.562  0.8806 -0.2816 -0.2250
 9174TIP3   OH249012   1.812   5.834  16.658 -0.1241 -0.0118  0.1254
 9174TIP3    H149013   1.728   5.828  16.614 -0.1166 -0.2606  0.1412
 9174TIP3    H249014   1.833   5.927  16.658 -0.3794  0.0457  0.0874
 9175TIP3   OH249015   1.385   5.959   2.804  0.3727 -0.0690 -0.6269
 9175TIP3    H149016   1.304   5.948   2.853 -0.5802  1.5779 -1.7741
 9175TIP3    H249017   1.438   6.018   2.857  0.3944 -0.3259 -0.3638
 9176TIP3   OH249018   6.023   0.859  15.777 -0.0763  0.5357  0.0202
 9176TIP3    H149019   5.933   0.892  15.773 -1.0206 -2.0181 -0.5798
 9176TIP3    H249020   6.016   0.768  15.748  2.6505  0.1922  0.3842
 9177TIP3   OH249021   5.613   6.439   0.122  0.4330 -0.8136 -0.2700
 9177TIP3    H149022   5.543   6.433   0.187  0.4317  1.4686 -0.0236
 9177TIP3    H249023   5.670   6.365   0.141  0.5105 -0.1151  2.4611
 9178TIP3   OH249024   4.798   5.797  16.271 -0.2012 -0.4739  0.3612
 9178TIP3    H149025   4.756   5.870  16.318 -3.2509 -1.3308 -0.9343
 9178TIP3    H249026   4.823   5.834  16.187  0.1068 -0.3862  0.4934
 9179TIP3   OH249027   1.934   5.967  12.423 -0.4190  0.0059 -0.3250
 9179TIP3    H149028   1.987   5.954  12.345  1.4850 -0.0973  0.9331
 9179TIP3    H249029   1.881   6.044  12.404 -1.5246 -1.2642 -2.5027
 9180TIP3   OH249030   3.008   4.148  12.764  0.2341 -0.4838 -0.0468
 9180TIP3    H149031   2.994   4.065  12.809 -1.6281 -0.2388 -0.1506
 9180TIP3    H249032   3.010   4.213  12.834 -1.4843 -0.2449 -0.2085
 9181TIP3   OH249033   2.988   6.322   5.634 -0.0457 -0.2134 -0.0267
 9181TIP3    H149034   2.925   6.277   5.578 -1.4714  0.5344  0.9313
 9181TIP3    H249035   3.011   6.257   5.701 -0.6720 -0.1212  0.2787
 9182TIP3   OH249036   3.409   4.202   6.237  0.3413  0.1247  0.5893
 9182TIP3    H149037   3.462   4.165   6.307  1.3057  3.1659  1.5358
 9182TIP3    H249038   3.331   4.235   6.281 -0.7592 -1.2248 -0.3136
 9183TIP3   OH249039   5.253   1.160  16.954  0.0051  0.2243 -0.2316
 9183TIP3    H149040   5.195   1.215  17.006  1.8513  1.7251  0.3297
 9183TIP3    H249041   5.340   1.198  16.968  0.9735 -1.3213 -1.8557
 9184TIP3   OH249042   2.851   1.270   5.197 -0.0524 -0.9390 -0.0166
 9184TIP3    H149043   2.876   1.341   5.256  0.3096 -2.6286  1.9158
 9184TIP3    H249044   2.911   1.277   5.123 -0.1569  0.8725  0.0600
 9185TIP3   OH249045   0.947   1.147  12.399  0.5277  0.0171  0.0726
 9185TIP3    H149046   0.980   1.209  12.464  0.3645 -0.3011  0.4629
 9185TIP3    H249047   0.924   1.201  12.324  2.0917  0.2209 -0.2791
 9186TIP3   OH249048   0.193   1.284  12.486  0.2994  0.0670 -0.8476
 9186TIP3    H149049   0.157   1.306  12.572  0.5717  2.8066 -1.3812
 9186TIP3    H249050   0.125   1.230  12.445 -0.7542  0.4858  0.2921
 9187TIP3   OH249051   2.498   3.323   1.533 -0.4184  1.0471  0.0963
 9187TIP3    H149052   2.420   3.347   1.483  0.7856  1.2032 -1.7621
 9187TIP3    H249053   2.568   3.375   1.495  1.3035 -1.8259 -0.7702
 9188TIP3   OH249054   1.429   2.612  15.677 -0.1605 -0.6168  0.0336
 9188TIP3    H149055   1.362   2.635  15.613 -2.5906 -1.2051  2.2718
 9188TIP3    H249056   1.446   2.692  15.726  1.9749 -0.0682 -1.5223
 9189TIP3   OH249057   6.119   4.545  10.589  0.8879 -0.0118  0.2015
 9189TIP3    H149058   6.065   4.470  10.561  0.1178  0.3175  0.8040
 9189TIP3    H249059   6.088   4.618  10.535  1.6165 -0.1126 -0.3598
 9190TIP3   OH249060   5.262   5.961  15.056  0.0001 -0.4817  0.6103
 9190TIP3    H149061   5.271   5.868  15.077  0.4280 -0.4133  0.7236
 9190TIP3    H249062   5.167   5.976  15.056 -0.1474 -1.2582 -0.8525
 9191TIP3   OH249063   1.502   3.894   2.127 -0.0505  0.0970 -0.1948
 9191TIP3    H149064   1.592   3.867   2.109  1.1861  2.5233  2.1201
 9191TIP3    H249065   1.468   3.826   2.186  0.9383  0.1861  0.4945
 9192TIP3   OH249066   6.720   0.428   5.196 -0.1642  0.3700  0.7319
 9192TIP3    H149067   6.651   0.382   5.244 -1.4160  2.2323  0.7927
 9192TIP3    H249068   6.672   0.488   5.138  1.3669 -0.3004 -1.2569
 9193TIP3   OH249069   3.755   4.248   4.152 -0.1788 -0.0060 -0.5084
 9193TIP3    H149070   3.665   4.215   4.154  0.1590 -0.8960  0.1674
 9193TIP3    H249071   3.796   4.202   4.078  0.0694 -0.5325 -0.0479
 9194TIP3   OH249072   4.029   2.813  13.451  0.2614  0.1418 -0.6328
 9194TIP3    H149073   4.026   2.880  13.383 -2.4510  0.5258 -0.1950
 9194TIP3    H249074   4.014   2.861  13.533 -1.6070 -0.9209 -0.3090
 9195TIP3   OH249075   5.804   1.893  13.583 -0.1500 -0.7670  0.1318
 9195TIP3    H149076   5.838   1.916  13.497 -0.7560  0.8160  0.2979
 9195TIP3    H249077   5.836   1.804  13.599  1.5604 -0.3547 -0.8990
 9196TIP3   OH249078   1.854   5.393   1.848 -0.0309  0.1752  0.4677
 9196TIP3    H149079   1.876   5.300   1.859 -0.0125  0.1968  0.6035
 9196TIP3    H249080   1.764   5.400   1.879 -0.2799  0.0600 -0.2244
 9197TIP3   OH249081   5.858   1.831  11.644 -0.0478  0.3296  0.3267
 9197TIP3    H149082   5.772   1.843  11.605  0.0140 -0.3306 -0.0165
 9197TIP3    H249083   5.904   1.771  11.585  0.0282 -0.7223  1.4332
 9198TIP3   OH249084   4.884   2.456  14.825 -0.0983  0.1778 -0.3194
 9198TIP3    H149085   4.877   2.477  14.732 -2.2440  0.4694 -0.1142
 9198TIP3    H249086   4.831   2.377  14.836  0.0826  0.1864  0.6582
 9199TIP3   OH249087   5.128   3.777  14.934  0.1241  0.3646 -0.1578
 9199TIP3    H149088   5.125   3.872  14.941  0.4047  0.3359  0.4022
 9199TIP3    H249089   5.036   3.750  14.935  0.0430  0.6344 -0.3922
 9200TIP3   OH249090   3.820   0.105   1.168  0.7525 -0.3474 -0.4297
 9200TIP3    H149091   3.736   0.149   1.162  0.5551 -0.6162  0.2780
 9200TIP3    H249092   3.819   0.040   1.098 -0.2861 -1.4449  0.5967
 9201TIP3   OH249093   4.643   0.545   3.111  0.2110 -0.4324  0.3421
 9201TIP3    H149094   4.642   0.609   3.182  0.0241  1.3795 -1.2385
 9201TIP3    H249095   4.624   0.596   3.033  1.0828 -2.2646 -1.1140
 9202TIP3   OH249096   0.085   6.525  11.971  0.5190  0.3279 -0.1893
 9202TIP3    H149097   0.160   6.529  11.912 -1.1426  1.2934 -2.2979
 9202TIP3    H249098   0.073   6.615  12.001  0.9063 -0.0321  1.0579
 9203TIP3   OH249099   0.038   1.636   0.141  0.1467 -0.3397 -0.0291
 9203TIP3    H149100   0.026   1.730   0.129  0.4453 -0.4555 -1.2276
 9203TIP3    H249101  -0.011   1.616   0.221 -0.2395  0.7654  0.0132
 9204TIP3   OH249102   1.290   6.731   0.191  0.1257 -0.3617  0.1667
 9204TIP3    H149103   1.237   6.652   0.179 -0.5189  0.1471 -0.3126
 9204TIP3    H249104   1.378   6.705   0.163 -0.1791 -0.7761 -0.4143
 9205TIP3   OH249105   5.480   0.017   0.676  0.2482  0.6996  0.2041
 9205TIP3    H149106   5.447  -0.046   0.740  0.4619  0.3314 -0.0392
 9205TIP3    H249107   5.574  -0.001   0.672  0.1755  0.4279 -0.5167
 9206TIP3   OH249108   5.748   4.458   4.511  0.9193 -0.4750 -0.0699
 9206TIP3    H149109   5.652   4.461   4.501  0.9496 -0.7676 -0.4513
 9206TIP3    H249110   5.772   4.548   4.536  0.2342 -1.0791  2.9220
 9207TIP3   OH249111   4.339   4.977  16.159 -0.4521  0.1299 -0.0505
 9207TIP3    H149112   4.416   5.032  16.147 -0.2303  0.5095  2.9193
 9207TIP3    H249113   4.266   5.039  16.165 -1.2524 -0.2599 -4.0171
 9208TIP3   OH249114   5.365   3.787   4.966 -0.7945 -0.8283  0.2923
 9208TIP3    H149115   5.367   3.725   4.893 -1.1601 -1.6150  0.9415
 9208TIP3    H249116   5.272   3.794   4.989 -0.7851  0.1783  0.0405
 9209TIP3   OH249117   4.569   0.583  14.473  0.0903 -0.1836  0.5870
 9209TIP3    H149118   4.573   0.604  14.566  2.8250  1.4568  0.1382
 9209TIP3    H249119   4.534   0.661  14.431 -0.3966 -0.6292  0.1493
 9210TIP3   OH249120   5.397   4.656  12.942 -0.4482  0.1321  0.0187
 9210TIP3    H149121   5.408   4.616  13.028 -1.3029 -0.6499 -0.2242
 9210TIP3    H249122   5.316   4.707  12.950 -0.2091  0.5418 -0.1496
 9211TIP3   OH249123   2.474   4.045  12.059 -0.0834  0.7185  0.1266
 9211TIP3    H149124   2.443   3.963  12.098  0.5149 -0.5741 -2.0278
 9211TIP3    H249125   2.401   4.076  12.006  0.9331 -0.3038 -1.8884
 9212TIP3   OH249126   2.810   5.317  11.447  0.1542 -0.3879  0.4546
 9212TIP3    H149127   2.830   5.271  11.528 -1.0675 -1.6143  0.0680
 9212TIP3    H249128   2.716   5.305  11.434  0.3816 -0.4243 -1.2658
 9213TIP3   OH249129   2.851   6.697  16.942  0.1432  0.0278 -0.2035
 9213TIP3    H149130   2.760   6.683  16.914  0.3637 -0.2601 -0.7735
 9213TIP3    H249131   2.884   6.609  16.961  0.1731  0.1718  0.4166
 9214TIP3   OH249132   3.260   2.678  11.400 -0.0633 -0.0030  0.4565
 9214TIP3    H149133   3.313   2.633  11.335 -1.0800 -0.6426  0.0485
 9214TIP3    H249134   3.247   2.766  11.364  2.4801  0.8674  1.5653
 9215TIP3   OH249135   6.399   4.137  13.606  0.1839  0.6993  0.2391
 9215TIP3    H149136   6.450   4.217  13.620  0.0890  1.0553 -1.4127
 9215TIP3    H249137   6.464   4.071  13.585 -0.0176  1.2212 -2.1687
 9216TIP3   OH249138   6.154   0.806   2.852 -0.2002 -0.2770  0.4345
 9216TIP3    H149139   6.078   0.784   2.798 -0.9654 -0.0000  1.3877
 9216TIP3    H249140   6.229   0.788   2.795 -0.9636 -0.7070 -0.4629
 9217TIP3   OH249141   5.702   3.121   3.769 -0.0079  0.0668 -0.6737
 9217TIP3    H149142   5.754   3.149   3.844  0.2979  1.1533 -1.2813
 9217TIP3    H249143   5.754   3.147   3.693 -0.7713 -0.1270 -1.2727
 9218TIP3   OH249144   5.608   5.580   3.113  0.2512  0.5992  0.1416
 9218TIP3    H149145   5.608   5.652   3.176  2.6025  2.0740 -1.4218
 9218TIP3    H249146   5.686   5.529   3.136 -0.3225 -0.3305  0.0303
 9219TIP3   OH249147   1.498   2.718  14.664 -0.6929 -0.2183  0.2655
 9219TIP3    H149148   1.561   2.696  14.596  0.4232 -0.6842  1.4236
 9219TIP3    H249149   1.465   2.634  14.695 -2.5715  0.0493 -0.9471
 9220TIP3   OH249150   5.424   1.018  11.256 -0.4372  0.8967  0.4874
 9220TIP3    H149151   5.456   1.064  11.333  0.2625  1.1580  0.0533
 9220TIP3    H249152   5.501   1.011  11.199 -0.7338 -0.0555  0.1859
 9221TIP3   OH249153   5.772   5.635  15.872 -0.5310  0.5903  0.7131
 9221TIP3    H149154   5.719   5.574  15.924  2.1680 -0.1211  2.7708
 9221TIP3    H249155   5.741   5.722  15.896  0.3007  0.2391  3.1743
 9222TIP3   OH249156   0.834   0.846   5.697 -0.0379 -0.4390 -0.4630
 9222TIP3    H149157   0.795   0.905   5.632 -0.5223  0.9716  1.0749
 9222TIP3    H249158   0.759   0.805   5.740  0.2115  0.4081  0.8043
 9223TIP3   OH249159   2.768   4.727  12.847  0.4611  0.3228 -0.6864
 9223TIP3    H149160   2.700   4.794  12.844  1.1592  1.0329 -0.7214
 9223TIP3    H249161   2.735   4.663  12.910 -0.4680  0.4157 -1.0732
 9224TIP3   OH249162   0.521   2.790   4.845 -0.7350  0.7411  0.0112
 9224TIP3    H149163   0.523   2.886   4.845 -3.3642  0.8178  1.1097
 9224TIP3    H249164   0.516   2.767   4.938  0.8208 -0.5060 -0.2009
 9225TIP3   OH249165   3.662   0.719  12.715  0.5563 -0.0185  0.7652
 9225TIP3    H149166   3.576   0.682  12.733  0.5560 -0.3774  0.0687
 9225TIP3    H249167   3.650   0.767  12.633  1.0385 -0.1504  0.6166
 9226TIP3   OH249168   3.005   2.174   3.222 -0.0510 -0.3636  0.3421
 9226TIP3    H149169   2.975   2.216   3.141  0.3396 -1.2190 -0.2496
 9226TIP3    H249170   3.093   2.208   3.236 -0.6709  0.9636  1.2555
 9227TIP3   OH249171   4.371   1.421   3.014 -0.2769 -0.2801  0.3151
 9227TIP3    H149172   4.293   1.456   2.972 -0.5150 -1.3644 -0.1607
 9227TIP3    H249173   4.348   1.331   3.037  0.7930 -0.5728  0.2750
 9228TIP3   OH249174   0.245   2.092   5.136  0.5264  0.2741 -0.5440
 9228TIP3    H149175   0.294   2.114   5.056 -1.0927 -0.7940 -1.8585
 9228TIP3    H249176   0.177   2.159   5.142  0.2778  0.0116 -0.3928
 9229TIP3   OH249177   1.659   2.930   1.455 -0.2280 -0.0310 -0.1928
 9229TIP3    H149178   1.569   2.915   1.483 -0.5431  0.7311 -0.7942
 9229TIP3    H249179   1.652   2.996   1.386  0.8211  0.3170  0.0285
 9230TIP3   OH249180   6.503   4.577  11.830 -0.2780 -0.7076  0.7072
 9230TIP3    H149181   6.423   4.529  11.851 -0.2389 -0.9815  0.2272
 9230TIP3    H249182   6.573   4.526  11.870 -0.3926 -0.1441  1.6578
 9231TIP3   OH249183   1.975   6.709  14.314 -0.1667  0.0143 -0.2514
 9231TIP3    H149184   1.889   6.748  14.300 -0.0764  0.0409 -0.7437
 9231TIP3    H249185   2.033   6.759  14.256 -0.4208 -2.2685 -2.5308
 9232TIP3   OH249186   3.698   2.387  16.752 -0.0662 -0.2837  0.1366
 9232TIP3    H149187   3.710   2.471  16.797 -1.4095 -0.4559  0.8751
 9232TIP3    H249188   3.603   2.379  16.743  0.1609 -0.6025 -2.1170
 9233TIP3   OH249189   4.045   3.391  15.567 -0.1272  0.3974 -0.4115
 9233TIP3    H149190   4.020   3.417  15.479  0.5489 -2.0179 -1.3629
 9233TIP3    H249191   4.061   3.297  15.561 -1.3953 -0.0828  2.5852
 9234TIP3   OH249192   1.969   1.521  12.883  0.0079 -0.1407 -0.1014
 9234TIP3    H149193   1.957   1.448  12.944  0.5554 -1.2950 -1.3290
 9234TIP3    H249194   2.062   1.541  12.888  0.2549 -0.9116 -1.2595
 9235TIP3   OH249195   2.616   4.936  12.907  0.4085 -0.3877 -0.3045
 9235TIP3    H149196   2.624   4.889  12.990 -1.9573  0.4969  0.4668
 9235TIP3    H249197   2.642   5.026  12.928 -1.6166  0.1770 -0.1529
 9236TIP3   OH249198   5.397   3.329   0.664  0.0748 -0.0851 -0.5928
 9236TIP3    H149199   5.400   3.242   0.624  0.5289 -0.4199  0.1543
 9236TIP3    H249200   5.321   3.326   0.721 -0.6534  0.4388 -1.5253
 9237TIP3   OH249201   5.155   4.923   0.331  0.2508 -0.1923 -0.2094
 9237TIP3    H149202   5.239   4.945   0.371  0.0458 -0.0191  0.1320
 9237TIP3    H249203   5.141   4.991   0.265 -0.2333  0.5210  0.6272
 9238TIP3   OH249204   3.184   6.790  11.503  0.0337  0.8128 -0.1088
 9238TIP3    H149205   3.093   6.819  11.498 -0.0680  0.3745 -0.8254
 9238TIP3    H249206   3.210   6.777  11.412  0.4892 -0.0663  0.1387
 9239TIP3   OH249207   4.550   6.028  16.017  0.3409  0.2805 -0.5955
 9239TIP3    H149208   4.620   5.980  15.973  1.1044  1.0108 -0.1926
 9239TIP3    H249209   4.515   5.966  16.081 -0.2929 -0.5415 -1.7353
 9240TIP3   OH249210   2.939   4.454   4.579 -0.6087 -0.1552  0.3697
 9240TIP3    H149211   2.887   4.534   4.568 -0.6421 -0.2002  0.1897
 9240TIP3    H249212   2.955   4.424   4.489  1.3078  0.8818  0.3296
 9241TIP3   OH249213   6.060   3.207   1.313  0.1622 -0.7298  0.4609
 9241TIP3    H149214   5.981   3.176   1.356  0.5749 -0.2342  1.5967
 9241TIP3    H249215   6.112   3.245   1.383  2.0624 -2.3574 -0.0134
 9242TIP3   OH249216   0.855   0.514   2.998  0.1907  0.0144  0.4487
 9242TIP3    H149217   0.858   0.601   2.959 -0.4322 -0.9660 -1.8968
 9242TIP3    H249218   0.945   0.482   2.994 -0.0947 -0.6204 -1.5568
 9243TIP3   OH249219   1.509   2.113   0.317  0.2709  0.2776  0.1604
 9243TIP3    H149220   1.550   2.097   0.402  1.4397 -1.1222 -0.6381
 9243TIP3    H249221   1.458   2.193   0.329 -0.2796 -0.4035  2.4077
 9244TIP3   OH249222   3.498   3.319  11.464 -0.0375 -0.1943 -0.0541
 9244TIP3    H149223   3.483   3.243  11.408  0.2450 -0.1892 -0.1372
 9244TIP3    H249224   3.516   3.391  11.403 -1.1318  0.1315 -0.0080
 9245TIP3   OH249225   4.271   6.360   3.063 -0.2400  0.0069  0.1222
 9245TIP3    H149226   4.228   6.310   3.132 -0.9053 -0.0543 -0.3350
 9245TIP3    H249227   4.343   6.303   3.034 -0.0758 -0.0470  0.6261
 9246TIP3   OH249228   0.782   1.190   0.587  0.1434 -0.6330  0.3213
 9246TIP3    H149229   0.720   1.160   0.520 -1.5391  0.6927  1.2596
 9246TIP3    H249230   0.766   1.132   0.662  1.3678 -1.5025 -0.0736
 9247TIP3   OH249231   5.694   2.020   3.942  0.1710 -0.7606  0.2494
 9247TIP3    H149232   5.694   1.977   3.857 -0.0173 -1.2182  0.4808
 9247TIP3    H249233   5.700   1.949   4.006 -0.0367 -0.4421  0.6284
 9248TIP3   OH249234   1.765   3.083  12.032  0.0014 -0.1572 -0.3460
 9248TIP3    H149235   1.845   3.056  12.078 -0.6054 -0.5985  0.4532
 9248TIP3    H249236   1.696   3.079  12.098 -0.5508  0.9801 -0.8356
 9249TIP3   OH249237   2.714   3.518  16.027 -0.3135  0.4096 -0.0007
 9249TIP3    H149238   2.762   3.455  16.081 -1.1836 -1.9904 -1.9170
 9249TIP3    H249239   2.640   3.544  16.081  0.3106  0.1482  0.9912
 9250TIP3   OH249240   1.385   5.139  12.872  0.2071 -0.0695  0.1811
 9250TIP3    H149241   1.419   5.059  12.833  0.1903 -0.2997  0.6410
 9250TIP3    H249242   1.298   5.117  12.904  1.4282 -0.7482  3.1579
 9251TIP3   OH249243   1.468   1.401   0.569 -0.5639  0.2988  0.2026
 9251TIP3    H149244   1.467   1.349   0.488 -0.1961  0.8462 -0.1554
 9251TIP3    H249245   1.539   1.463   0.556 -0.0429 -0.0793  1.2565
 9252TIP3   OH249246   6.526   6.186   3.278 -0.2279 -0.4927 -0.2410
 9252TIP3    H149247   6.519   6.132   3.199 -2.1497 -0.5481 -0.0560
 9252TIP3    H249248   6.439   6.224   3.288  0.5204  0.9637  0.8304
 9253TIP3   OH249249   3.917   0.958  13.312  0.2919 -0.4130  0.5197
 9253TIP3    H149250   4.006   0.971  13.345 -0.0370  0.8704  0.9224
 9253TIP3    H249251   3.912   1.013  13.234 -0.2443 -0.2510  0.6676
 9254TIP3   OH249252   0.997   5.392  10.636  0.1912 -0.3545 -0.0588
 9254TIP3    H149253   1.043   5.461  10.684 -0.9776  0.2854  0.1580
 9254TIP3    H249254   1.065   5.354  10.579  1.0013  0.5369  0.2891
 9255TIP3   OH249255   5.259   6.053  16.899 -0.3238  0.1667  0.4462
 9255TIP3    H149256   5.175   6.020  16.932  0.1744 -2.1055 -0.4799
 9255TIP3    H249257   5.268   6.013  16.813  2.7346 -1.3824  1.4228
 9256TIP3   OH249258   6.750   2.223   3.380 -0.2213 -0.0111  0.0507
 9256TIP3    H149259   6.752   2.215   3.475 -0.3811  2.5045  0.2865
 9256TIP3    H249260   6.669   2.179   3.353 -0.0652 -0.9126  1.0426
 9257TIP3   OH249261   2.176   3.684   3.421  0.7865 -0.1747  0.2381
 9257TIP3    H149262   2.103   3.623   3.423  1.2929 -0.8161 -0.4432
 9257TIP3    H249263   2.138   3.769   3.445  0.4008 -1.0700  2.9319
 9258TIP3   OH249264   0.396   2.179  13.526 -0.3250  0.5539 -0.1219
 9258TIP3    H149265   0.417   2.163  13.618  0.0875  0.0616 -0.2994
 9258TIP3    H249266   0.476   2.219  13.490 -0.5799  0.9924 -0.2020
 9259TIP3   OH249267   0.796   2.875   4.074 -0.3397 -0.1193 -0.4702
 9259TIP3    H149268   0.830   2.936   4.009 -0.9729 -0.2556 -0.9357
 9259TIP3    H249269   0.874   2.844   4.120  0.0019  0.8691 -0.3744
 9260TIP3   OH249270   5.711   4.039  12.245  0.1786  0.6638 -0.0370
 9260TIP3    H149271   5.616   4.030  12.238 -0.0259  1.1177  1.8858
 9260TIP3    H249272   5.745   3.980  12.179 -1.4606  1.6844 -1.8450
 9261TIP3   OH249273   3.237   3.248   2.564  0.7070  0.5504 -0.8325
 9261TIP3    H149274   3.225   3.336   2.597  1.2212  0.6956 -1.0156
 9261TIP3    H249275   3.154   3.226   2.523 -0.1921  0.0707  1.2081
 9262TIP3   OH249276   2.878   4.411   2.293 -0.6091 -0.2293  0.0279
 9262TIP3    H149277   2.944   4.382   2.230 -0.1736 -0.7340  0.7122
 9262TIP3    H249278   2.809   4.344   2.289  0.0442 -0.9863  1.0545
 9263TIP3   OH249279   1.126   1.065   4.224  0.2959 -0.1484  0.0518
 9263TIP3    H149280   1.218   1.036   4.231  0.5346  0.4121 -0.7228
 9263TIP3    H249281   1.123   1.148   4.271  0.4865  0.4805 -1.0239
 9264TIP3   OH249282   4.597   5.132  12.810 -0.1545 -0.3377 -0.0468
 9264TIP3    H149283   4.567   5.209  12.762 -1.3347 -1.3754 -1.0111
 9264TIP3    H249284   4.523   5.109  12.866 -0.1775 -1.3537 -0.4891
 9265TIP3   OH249285   6.650   1.846  15.336 -0.0499 -0.1761 -0.7671
 9265TIP3    H149286   6.571   1.792  15.341 -0.1064 -0.0259  0.0636
 9265TIP3    H249287   6.618   1.933  15.313 -0.1564 -0.0645 -0.2154
 9266TIP3   OH249288   5.193   4.786   3.669 -0.9198 -0.2309  0.6583
 9266TIP3    H149289   5.197   4.858   3.607 -1.9223  0.8447  1.8116
 9266TIP3    H249290   5.270   4.733   3.650 -0.9438  0.3566 -1.1535
 9267TIP3   OH249291   1.319   5.426  11.038  0.6076 -0.7419 -0.7755
 9267TIP3    H149292   1.333   5.514  11.074  2.0807 -0.9707 -0.7236
 9267TIP3    H249293   1.250   5.437  10.973  0.4584  0.3658 -0.4497
 9268TIP3   OH249294   1.296   5.194   3.956 -0.2731  0.8708 -0.2173
 9268TIP3    H149295   1.324   5.266   4.012  1.4634  0.9115 -1.0724
 9268TIP3    H249296   1.298   5.231   3.867 -1.7500  0.4531 -0.4299
 9269TIP3   OH249297   3.404   6.204   5.273  0.2268  0.1018 -0.3066
 9269TIP3    H149298   3.453   6.166   5.201  0.6400  2.3237 -1.2341
 9269TIP3    H249299   3.322   6.233   5.234  0.5025  1.4217  0.0377
 9270TIP3   OH249300   3.565   1.853  16.138 -0.2700 -0.3284 -0.6031
 9270TIP3    H149301   3.591   1.944  16.154 -1.4332  0.0563 -0.8404
 9270TIP3    H249302   3.568   1.844  16.042  1.8129 -1.1519 -0.4956
 9271TIP3   OH249303   0.858   0.986   5.930 -0.0396  0.2979  0.1135
 9271TIP3    H149304   0.851   0.909   5.987  1.0079  0.2595  0.2005
 9271TIP3    H249305   0.855   0.951   5.841  1.9753 -0.0284  0.1359
 9272TIP3   OH249306   1.139   1.424  12.247  0.3023 -0.2623  0.2750
 9272TIP3    H149307   1.074   1.423  12.176 -1.4821  2.4751  1.7521
 9272TIP3    H249308   1.171   1.514  12.248  1.0707 -0.5392  2.2953
 9273TIP3   OH249309   2.890   1.795  12.517 -0.3418  0.0887 -0.1976
 9273TIP3    H149310   2.937   1.798  12.434  2.4341  1.5167  1.3332
 9273TIP3    H249311   2.908   1.708  12.552 -0.2152  0.0463 -0.3685
 9274TIP3   OH249312   6.604   0.026   1.979 -0.1735  0.3287  0.1227
 9274TIP3    H149313   6.530   0.050   2.035 -0.9622 -0.3624 -0.6047
 9274TIP3    H249314   6.580  -0.059   1.942  1.2043 -0.1124  0.2428
 9275TIP3   OH249315   6.465   4.820  13.159  0.1704 -0.4672 -0.4133
 9275TIP3    H149316   6.539   4.857  13.206  1.0372 -1.8336 -0.6672
 9275TIP3    H249317   6.392   4.880  13.176  1.2191  0.6306  0.2181
 9276TIP3   OH249318   6.240   6.242  16.645 -0.3498 -0.3668 -0.0661
 9276TIP3    H149319   6.155   6.227  16.604 -1.3004  2.4647  0.8025
 9276TIP3    H249320   6.220   6.288  16.726  1.9924 -0.0149  0.3411
 9277TIP3   OH249321   5.097   2.406  12.746  0.1974  0.2750  0.3411
 9277TIP3    H149322   5.122   2.402  12.838 -1.5766  1.5416  0.9159
 9277TIP3    H249323   5.008   2.443  12.748  0.6560  1.5446 -1.9529
 9278TIP3   OH249324   2.055   5.977   0.368  0.3628  0.1564 -0.1886
 9278TIP3    H149325   1.976   5.988   0.315  0.6355  2.0010 -0.2476
 9278TIP3    H249326   2.096   5.898   0.334 -0.1339  0.6089 -1.8877
 9279TIP3   OH249327   1.474   0.296   2.664  0.1208 -0.0412  0.2324
 9279TIP3    H149328   1.534   0.294   2.589 -0.4113 -0.3791 -0.1891
 9279TIP3    H249329   1.513   0.359   2.724 -0.2014  1.3336 -0.9607
 9280TIP3   OH249330   2.249   0.640   5.138 -0.1852  0.3758 -0.5440
 9280TIP3    H149331   2.337   0.672   5.160  1.1980 -1.6700 -2.7916
 9280TIP3    H249332   2.208   0.623   5.223  2.7945 -1.6942  0.5537
 9281TIP3   OH249333   2.574   1.838   6.309 -0.2929 -0.2567  0.5451
 9281TIP3    H149334   2.486   1.800   6.312 -0.3610 -0.1274  0.2110
 9281TIP3    H249335   2.571   1.910   6.371 -0.5595  0.0334  0.1974
 9282TIP3   OH249336   2.971   4.564  10.453  0.6852  0.2028  0.0267
 9282TIP3    H149337   3.043   4.573  10.391  0.3886  0.2022 -0.3170
 9282TIP3    H249338   2.982   4.639  10.512  0.0303  1.1059 -0.9888
 9283TIP3   OH249339   4.022   2.051  13.423 -0.1753 -0.2608  0.2444
 9283TIP3    H149340   4.031   1.979  13.361 -0.7058 -1.3250  1.3696
 9283TIP3    H249341   3.976   2.119  13.375 -0.3691 -0.9778 -0.5948
 9284TIP3   OH249342   1.625   6.001   2.596 -0.1133 -0.0357  0.6861
 9284TIP3    H149343   1.705   6.053   2.606  0.7014 -1.3086  1.0866
 9284TIP3    H249344   1.584   6.004   2.683 -0.3050  0.3092  0.5837
 9285TIP3   OH249345   1.073   0.237  15.974 -0.5757  0.5233 -0.1462
 9285TIP3    H149346   0.988   0.276  15.993 -0.1019  1.6281 -0.2754
 9285TIP3    H249347   1.062   0.195  15.888 -0.3075  2.7332 -1.2827
 9286TIP3   OH249348   5.872   0.773   4.655  0.3923 -0.7450  0.0761
 9286TIP3    H149349   5.951   0.761   4.602  0.0561  2.1690 -1.1574
 9286TIP3    H249350   5.819   0.835   4.606 -1.5166 -0.6723  2.1583
 9287TIP3   OH249351   4.154   0.183  17.101 -0.0779  0.0215  0.0550
 9287TIP3    H149352   4.143   0.129  17.179  1.4548  0.5378  0.6366
 9287TIP3    H249353   4.211   0.255  17.129  0.3817  0.2794 -1.4999
 9288TIP3   OH249354   1.725   1.447   1.672  0.4593 -0.7853  0.0926
 9288TIP3    H149355   1.715   1.542   1.667  0.1693 -0.9254 -3.0774
 9288TIP3    H249356   1.819   1.434   1.678  0.7476 -0.3276 -2.6287
 9289TIP3   OH249357   2.064   4.992  12.381  0.2972  0.3035  0.7056
 9289TIP3    H149358   2.048   5.070  12.329  0.8382 -0.3464 -0.4426
 9289TIP3    H249359   2.110   4.932  12.322  0.5958 -0.5788  1.8099
 9290TIP3   OH249360   2.773   6.566   0.894 -0.1968  0.8462  0.3726
 9290TIP3    H149361   2.730   6.481   0.886  0.6946  0.4707 -0.6822
 9290TIP3    H249362   2.824   6.560   0.975 -1.0184  0.7832  0.8857
 9291TIP3   OH249363   5.336   4.137   0.881 -0.5863  0.3715  0.4438
 9291TIP3    H149364   5.304   4.047   0.873  0.8777 -0.1491  0.3859
 9291TIP3    H249365   5.275   4.189   0.828 -0.6195 -0.7783 -0.6730
 9292TIP3   OH249366   2.934   1.203   1.867  0.7527  0.2659 -0.5972
 9292TIP3    H149367   2.968   1.291   1.879  0.8501  0.1355  0.1814
 9292TIP3    H249368   2.862   1.196   1.930  1.8118 -0.7405  0.5610
 9293TIP3   OH249369   6.000   3.342  14.132 -0.2598 -0.0175 -0.1744
 9293TIP3    H149370   5.967   3.253  14.144  0.0154 -0.2311 -0.9881
 9293TIP3    H249371   5.923   3.397  14.145 -0.0099 -0.2109  2.5266
 9294TIP3   OH249372   2.353   4.688   5.239  0.0496 -0.5796 -0.1932
 9294TIP3    H149373   2.270   4.649   5.266  1.1072 -2.3210  0.6253
 9294TIP3    H249374   2.328   4.755   5.175 -1.9849 -0.9570  0.1577
 9295TIP3   OH249375   4.485   2.482   3.271 -0.1464  0.6346 -0.0982
 9295TIP3    H149376   4.537   2.517   3.198  0.3504 -2.6916 -1.4286
 9295TIP3    H249377   4.546   2.479   3.345 -0.2106  2.5308  0.0590
 9296TIP3   OH249378   4.538   6.285  15.941  0.2813 -0.4417  0.5149
 9296TIP3    H149379   4.552   6.196  15.973 -0.5433 -0.1273  1.7801
 9296TIP3    H249380   4.589   6.340  16.001  0.0965  0.0095  0.2624
 9297TIP3   OH249381   6.564   1.732   1.085 -0.2281  0.0307  0.4729
 9297TIP3    H149382   6.554   1.649   1.132 -2.2470  1.2182  2.1995
 9297TIP3    H249383   6.552   1.799   1.152 -0.7150  1.7432 -1.2874
 9298TIP3   OH249384   5.855   4.319   1.409 -0.1610  0.4898 -0.2687
 9298TIP3    H149385   5.836   4.301   1.501  0.3510  1.1318 -0.0381
 9298TIP3    H249386   5.774   4.358   1.376 -0.5376 -0.2451 -0.2362
 9299TIP3   OH249387   1.423   1.141   3.299 -0.4017  0.1943 -0.1876
 9299TIP3    H149388   1.410   1.234   3.282 -0.3152  0.1907 -0.2795
 9299TIP3    H249389   1.512   1.136   3.335  0.3319 -0.0610 -1.9739
 9300TIP3   OH249390   3.482   2.928  15.022  0.2851  0.3775 -0.5552
 9300TIP3    H149391   3.515   2.924  15.112 -0.4000  1.1535 -0.2592
 9300TIP3    H249392   3.397   2.884  15.025 -0.0313  0.9666 -0.6741
 9301TIP3   OH249393   4.284   4.505  11.056 -0.1169  0.7316 -0.0334
 9301TIP3    H149394   4.354   4.481  11.117 -0.2771 -2.0251 -0.8800
 9301TIP3    H249395   4.327   4.509  10.970 -0.5538  1.2570 -0.2250
 9302TIP3   OH249396   3.120   1.395  11.491 -0.9760  0.0018 -0.1777
 9302TIP3    H149397   3.066   1.474  11.495  1.0461  1.3606  1.2653
 9302TIP3    H249398   3.168   1.402  11.408  0.4569  1.1899  0.7152
 9303TIP3   OH249399   5.523   4.287   4.898 -0.1860 -0.0240 -1.1845
 9303TIP3    H149400   5.518   4.236   4.817 -0.1965 -0.5156 -0.8772
 9303TIP3    H249401   5.448   4.259   4.949  1.0857 -1.4129 -0.0276
 9304TIP3   OH249402   1.245   4.280   3.963 -0.4526 -0.1404  0.1644
 9304TIP3    H149403   1.281   4.304   3.878  0.9839  1.1489  1.1097
 9304TIP3    H249404   1.231   4.186   3.958  1.6176 -0.4235 -0.7762
 9305TIP3   OH249405   5.117   2.912   3.520 -0.0007 -0.4694  0.5407
 9305TIP3    H149406   5.040   2.962   3.492  1.0077  0.1402 -1.2333
 9305TIP3    H249407   5.082   2.844   3.577 -1.7621  0.2898  0.4095
 9306TIP3   OH249408   5.843   5.424   1.311 -0.1441 -0.3900 -0.6586
 9306TIP3    H149409   5.750   5.432   1.330 -0.3842 -0.1332 -1.8672
 9306TIP3    H249410   5.868   5.509   1.275  0.3580 -0.7308 -1.1237
 9307TIP3   OH249411   0.466   6.263  10.719  0.3918 -0.4837 -0.0807
 9307TIP3    H149412   0.556   6.279  10.691  0.4834 -0.4225  0.2441
 9307TIP3    H249413   0.438   6.187  10.668 -0.5369  1.5230 -2.6681
 9308TIP3   OH249414   0.748   3.094   5.785 -0.0269  0.4792  0.3186
 9308TIP3    H149415   0.667   3.114   5.831 -0.5023  0.4143 -0.4933
 9308TIP3    H249416   0.797   3.177   5.787  1.2492 -0.2659  3.4907
 9309TIP3   OH249417   4.756   5.841   5.000 -0.1545 -0.1734  0.1354
 9309TIP3    H149418   4.799   5.798   4.926 -0.4715 -3.2839  1.6618
 9309TIP3    H249419   4.803   5.809   5.077  0.5095  3.3967  1.3291
 9310TIP3   OH249420   6.472   1.985  12.933  0.0937  0.5633 -0.6816
 9310TIP3    H149421   6.521   1.987  13.016 -0.7131  3.3237 -0.2356
 9310TIP3    H249422   6.535   2.016  12.868 -0.1174  1.1357 -0.6164
 9311TIP3   OH249423   4.903   5.934  15.198  0.0861 -0.2135 -0.2027
 9311TIP3    H149424   4.965   6.001  15.227  0.5368 -0.1779 -1.2305
 9311TIP3    H249425   4.941   5.851  15.227  0.3389 -0.1497 -0.3529
 9312TIP3   OH249426   1.208   5.499   4.569 -0.1474 -0.1701  1.0140
 9312TIP3    H149427   1.234   5.583   4.607 -2.6645  1.5869 -1.0033
 9312TIP3    H249428   1.119   5.486   4.602 -1.0677 -0.2990 -1.4813
 9313TIP3   OH249429   5.440   2.390  10.934 -0.1903 -0.3305  0.6395
 9313TIP3    H149430   5.369   2.431  10.885 -0.2410 -0.3136  0.7260
 9313TIP3    H249431   5.497   2.352  10.867  0.4142  0.7864  0.5160
 9314TIP3   OH249432   1.811   1.850  13.971  0.4961  0.7987  0.1075
 9314TIP3    H149433   1.866   1.879  13.898 -1.6440  0.7858 -1.5739
 9314TIP3    H249434   1.754   1.924  13.989 -0.5062  0.0118  0.2435
 9315TIP3   OH249435   5.058   2.875  15.640 -0.3786 -0.5576 -0.1832
 9315TIP3    H149436   5.118   2.830  15.699  0.2950  1.4067  0.6490
 9315TIP3    H249437   5.058   2.966  15.669 -1.5803  0.0470 -1.9546
 9316TIP3   OH249438   5.705   2.874   0.542 -0.1759 -0.8302 -1.0467
 9316TIP3    H149439   5.723   2.958   0.498  1.9366 -0.6324  0.1767
 9316TIP3    H249440   5.751   2.880   0.625 -1.9685 -2.2832  0.0832
 9317TIP3   OH249441   1.278   1.354   4.793  0.6191  0.1756 -0.3588
 9317TIP3    H149442   1.370   1.334   4.778  0.6230  0.4310 -0.6920
 9317TIP3    H249443   1.248   1.392   4.710 -0.1258 -1.1396 -0.7021
 9318TIP3   OH249444   6.348   4.388   6.580 -0.3192  0.3927  0.0792
 9318TIP3    H149445   6.370   4.469   6.533  1.3468  0.6247  1.1989
 9318TIP3    H249446   6.385   4.318   6.526 -0.8006  0.4566 -0.3353
 9319TIP3   OH249447   6.423   0.159   2.779  0.0910 -0.0932  0.3950
 9319TIP3    H149448   6.421   0.084   2.839 -2.8456 -0.6543 -0.3235
 9319TIP3    H249449   6.366   0.224   2.821 -1.8905 -0.4505 -1.6543
 9320TIP3   OH249450   6.761   4.954   4.479 -0.1527  0.0135 -0.0320
 9320TIP3    H149451   6.824   4.885   4.499 -0.4682 -0.2508  0.0581
 9320TIP3    H249452   6.688   4.908   4.437 -0.2889  0.3168 -0.1271
 9321TIP3   OH249453   2.816   2.878   1.061 -0.4587 -0.2164  0.2744
 9321TIP3    H149454   2.846   2.965   1.088 -0.6257 -0.0739 -0.0081
 9321TIP3    H249455   2.805   2.884   0.966 -0.7512 -0.4641  0.2930
 9322TIP3   OH249456   0.758   0.421   5.996  0.1703  0.1497  0.2102
 9322TIP3    H149457   0.694   0.422   6.067 -0.3618 -0.1778 -0.2649
 9322TIP3    H249458   0.792   0.332   5.996  1.5444  0.6449  1.2677
 9323TIP3   OH249459   6.796   0.148   0.085 -0.2343  0.0080  0.1858
 9323TIP3    H149460   6.865   0.095   0.125  1.0204  1.9991  0.7725
 9323TIP3    H249461   6.842   0.198   0.017 -1.4233  0.1729 -0.4927
 9324TIP3   OH249462   1.579   5.462  14.405 -0.0576  0.2528 -0.4154
 9324TIP3    H149463   1.657   5.503  14.367  0.3748  0.2030  0.3990
 9324TIP3    H249464   1.579   5.373  14.370  0.5873  0.0686  0.0493
 9325TIP3   OH249465   1.588   5.345   2.472 -0.4876  0.1368  1.0489
 9325TIP3    H149466   1.494   5.362   2.477 -0.9951 -1.8359 -0.8102
 9325TIP3    H249467   1.604   5.327   2.379  1.7391  0.5274  1.3331
 9326TIP3   OH249468   0.104   2.924   4.905  0.2797 -0.1439 -0.0673
 9326TIP3    H149469   0.150   2.897   4.826  1.5016 -0.1844  0.6504
 9326TIP3    H249470   0.072   2.842   4.944 -1.1854 -0.0426 -1.0339
 9327TIP3   OH249471   0.926   5.667  11.770 -0.2504 -0.3336 -0.1048
 9327TIP3    H149472   1.004   5.619  11.742 -0.3524 -0.4933 -0.1156
 9327TIP3    H249473   0.881   5.607  11.829  0.6041  0.4690  1.3920
 9328TIP3   OH249474   0.542   1.892  14.923  0.4030 -0.7574 -0.0072
 9328TIP3    H149475   0.465   1.942  14.949  0.6431 -0.6717  0.5531
 9328TIP3    H249476   0.511   1.831  14.856 -0.2851 -1.1802  0.6925
 9329TIP3   OH249477   0.064   2.283   1.625 -0.2477  0.2922  0.2431
 9329TIP3    H149478   0.109   2.310   1.545 -3.9212 -0.7438 -2.2485
 9329TIP3    H249479   0.050   2.364   1.673  2.9053  0.8057  0.4435
 9330TIP3   OH249480   1.762   2.074  13.068  0.8548  0.1081 -0.1249
 9330TIP3    H149481   1.788   2.138  13.001  0.7134 -0.5672 -0.8377
 9330TIP3    H249482   1.810   1.995  13.044 -0.2453 -0.5374 -0.2266
 9331TIP3   OH249483   3.643   3.626   3.983 -0.4380 -0.6801 -0.0344
 9331TIP3    H149484   3.724   3.596   3.942  0.2081  0.8897  0.0908
 9331TIP3    H249485   3.651   3.600   4.075  1.5326  2.6359  0.7900
 9332TIP3   OH249486   5.322   3.330   3.083 -0.3741  0.1526  0.0383
 9332TIP3    H149487   5.403   3.375   3.059  0.8857 -2.3400 -0.5716
 9332TIP3    H249488   5.318   3.337   3.178  1.8519 -1.7424  0.3161
 9333TIP3   OH249489   4.271   5.135   3.597  0.8715 -0.4582  0.0828
 9333TIP3    H149490   4.346   5.095   3.553  1.3914 -0.0513  0.5988
 9333TIP3    H249491   4.287   5.122   3.690  0.0157 -0.8798  0.1774
 9334TIP3   OH249492   4.084   1.730  16.391  0.3794  0.5593 -0.6998
 9334TIP3    H149493   3.992   1.752  16.375 -0.4794 -1.0291  1.7634
 9334TIP3    H249494   4.104   1.664  16.326 -0.3988  0.4956 -0.8782
 9335TIP3   OH249495   4.243   0.868   4.159  0.5093 -0.0402  0.1466
 9335TIP3    H149496   4.250   0.850   4.065  1.1964 -1.1490  0.4031
 9335TIP3    H249497   4.334   0.867   4.190  0.2157 -0.5438  0.9894
 9336TIP3   OH249498   4.610   6.640   4.890  0.0218 -0.3873  0.2788
 9336TIP3    H149499   4.690   6.649   4.941 -0.0959 -0.9851  0.5727
 9336TIP3    H249500   4.622   6.698   4.815  0.5379 -0.1301  0.5629
 9337TIP3   OH249501   3.832   6.631   4.069 -0.1298  0.4943  0.5374
 9337TIP3    H149502   3.750   6.591   4.097  0.4665 -0.6787  0.6130
 9337TIP3    H249503   3.899   6.567   4.092  1.0996  2.4960  2.7545
 9338TIP3   OH249504   4.494   1.540   0.816  0.1060  0.3211 -0.2831
 9338TIP3    H149505   4.413   1.574   0.780  0.4930  0.7885 -0.7321
 9338TIP3    H249506   4.476   1.449   0.838 -0.4171  0.3156 -0.7503
 9339TIP3   OH249507   2.083   3.072  13.246 -0.0629  0.0324 -0.0419
 9339TIP3    H149508   2.051   2.984  13.226  1.1541 -0.2142 -0.9612
 9339TIP3    H249509   2.004   3.122  13.266 -0.9128 -0.8648 -1.0906
 9340TIP3   OH249510   3.302   5.956   2.657 -0.0781  0.3531 -0.3038
 9340TIP3    H149511   3.290   5.967   2.562  0.9420  2.2290 -0.2548
 9340TIP3    H249512   3.266   6.036   2.695  2.0037  0.8639  0.6625
 9341TIP3   OH249513   2.538   4.075  16.559 -0.5427  0.1263 -0.1278
 9341TIP3    H149514   2.605   4.007  16.549 -1.1227 -0.1685 -2.1629
 9341TIP3    H249515   2.460   4.038  16.518 -1.2762  1.4505  0.0484
 9342TIP3   OH249516   3.743   3.835   3.843  0.5909  0.1033  0.0441
 9342TIP3    H149517   3.819   3.777   3.835  0.7428  0.2200  0.6436
 9342TIP3    H249518   3.677   3.780   3.885 -0.3550 -0.6490 -2.3185
 9343TIP3   OH249519   4.892   1.158  14.801 -0.1022 -0.3931 -0.2966
 9343TIP3    H149520   4.890   1.062  14.802 -0.9388 -0.3945  2.0380
 9343TIP3    H249521   4.934   1.182  14.883  0.4050  1.2514 -1.0189
 9344TIP3   OH249522   1.486   2.312   1.734 -0.0254 -0.5681 -0.0344
 9344TIP3    H149523   1.429   2.387   1.719  0.2433 -0.0946  1.2400
 9344TIP3    H249524   1.565   2.349   1.773  0.9130 -1.2959 -1.2347
 9345TIP3   OH249525   0.103   3.700  11.550 -0.4217  0.2200  0.0143
 9345TIP3    H149526   0.082   3.793  11.552 -0.3123  0.3552 -2.7633
 9345TIP3    H249527   0.030   3.660  11.502  0.0795 -0.9520  0.2107
 9346TIP3   OH249528   1.847   2.920   4.873  0.3028 -0.3803 -0.4300
 9346TIP3    H149529   1.788   2.995   4.881 -0.4179 -1.0274  0.5124
 9346TIP3    H249530   1.823   2.878   4.791  0.4789  0.2209 -0.7913
 9347TIP3   OH249531   1.472   4.564  16.266  0.1718  0.6073  0.1573
 9347TIP3    H149532   1.446   4.489  16.212 -0.5293  0.6245  0.4627
 9347TIP3    H249533   1.418   4.556  16.345  0.4915  1.1243  0.4316
 9348TIP3   OH249534   1.869   1.770  11.901 -0.4829 -0.4325 -0.0546
 9348TIP3    H149535   1.960   1.742  11.912  0.0143  0.1731 -2.3165
 9348TIP3    H249536   1.842   1.797  11.989  1.8955  0.4703  0.4445
 9349TIP3   OH249537   5.259   3.107  11.213 -0.7771 -0.5539  0.3598
 9349TIP3    H149538   5.331   3.149  11.261  1.2091 -2.1324 -1.1300
 9349TIP3    H249539   5.221   3.045  11.276 -2.4380  1.9484  1.9214
 9350TIP3   OH249540   0.705   2.011   5.017 -0.3911  0.0786 -0.3311
 9350TIP3    H149541   0.719   2.053   4.932 -2.3143  0.6999 -0.3553
 9350TIP3    H249542   0.729   2.077   5.081 -1.2524  0.4481 -0.3849
 9351TIP3   OH249543   6.283   0.568   6.237 -0.4146  0.1725 -0.3514
 9351TIP3    H149544   6.257   0.488   6.284 -1.1348  0.5148 -0.1607
 9351TIP3    H249545   6.335   0.536   6.164  1.2726 -0.3292  1.0383
 9352TIP3   OH249546   2.915   4.979   4.634 -0.2381  0.0168  0.0538
 9352TIP3    H149547   2.912   5.034   4.556  1.9543 -0.6813 -0.5431
 9352TIP3    H249548   3.002   4.992   4.670 -1.0210 -0.1089  2.1037
 9353TIP3   OH249549   3.552   4.614  15.292  0.2024 -0.2165 -0.7157
 9353TIP3    H149550   3.561   4.628  15.198 -1.3550  0.1260 -0.8296
 9353TIP3    H249551   3.602   4.685  15.332  0.9269 -0.4048 -1.2823
 9354TIP3   OH249552   6.214   0.732  12.998 -0.1786 -0.0361 -0.1854
 9354TIP3    H149553   6.281   0.765  12.938 -0.1607  0.9225  0.3560
 9354TIP3    H249554   6.262   0.707  13.077 -0.2994 -0.5691 -0.2806
 9355TIP3   OH249555   3.771   0.129  17.047 -0.2658  0.2974  0.3050
 9355TIP3    H149556   3.675   0.137  17.043 -0.2988 -0.5454 -0.6668
 9355TIP3    H249557   3.798   0.115  16.957  0.9292  2.0068  0.3648
 9356TIP3   OH249558   0.798   1.478   0.588 -0.2814 -0.1897  0.1601
 9356TIP3    H149559   0.771   1.493   0.497 -2.5008  0.1184  0.8487
 9356TIP3    H249560   0.785   1.385   0.602  1.4753 -0.5203 -0.2607
 9357TIP3   OH249561   1.451   4.849   3.489  0.7720  0.2477  0.5126
 9357TIP3    H149562   1.423   4.809   3.571  0.1232 -0.2820  0.0331
 9357TIP3    H249563   1.453   4.777   3.426 -0.7923  1.0135 -0.4520
 9358TIP3   OH249564   2.708   5.518   3.502  0.2000  0.5219  0.0738
 9358TIP3    H149565   2.672   5.592   3.454 -1.1337 -0.0013  0.2263
 9358TIP3    H249566   2.640   5.497   3.567  0.3109 -1.1546 -0.3292
 9359TIP3   OH249567   0.752   4.186   3.556 -0.5468  0.6819 -0.2805
 9359TIP3    H149568   0.698   4.185   3.477 -1.9573 -0.5389  0.6667
 9359TIP3    H249569   0.696   4.229   3.622 -0.7282 -1.3084  0.9267
 9360TIP3   OH249570   1.454   5.661  15.071  0.2708  0.4516 -0.2593
 9360TIP3    H149571   1.434   5.571  15.095  0.8942  0.0116 -1.3742
 9360TIP3    H249572   1.390   5.714  15.120  0.6267 -0.5029  1.2610
 9361TIP3   OH249573   5.038   3.106  11.078 -0.2946 -0.4924 -0.3367
 9361TIP3    H149574   5.127   3.115  11.113 -0.3683 -0.6744 -0.0979
 9361TIP3    H249575   5.042   3.148  10.992 -0.2333  0.4164  0.0921
 9362TIP3   OH249576   1.875   2.645  16.358  0.2169  0.5641  0.6019
 9362TIP3    H149577   1.815   2.574  16.382 -1.8978  1.7338 -1.0405
 9362TIP3    H249578   1.949   2.634  16.417 -0.6797 -2.1836  1.3166
 9363TIP3   OH249579   2.050   2.838  12.348  0.8715  0.2691  0.0927
 9363TIP3    H149580   2.061   2.785  12.426 -1.2324  1.3587  1.1693
 9363TIP3    H249581   2.131   2.889  12.342  2.0185 -1.4819  0.2166
 9364TIP3   OH249582   4.414   2.559  12.660  0.2045 -0.4557 -0.3629
 9364TIP3    H149583   4.447   2.649  12.654  1.5327 -0.9339 -0.2254
 9364TIP3    H249584   4.484   2.505  12.624 -0.4371 -1.4776 -0.0906
 9365TIP3   OH249585   4.451   5.910  11.240  0.2017 -0.4017 -0.5963
 9365TIP3    H149586   4.399   5.925  11.319  0.3768 -3.2579  0.1235
 9365TIP3    H249587   4.418   5.827  11.206  2.9424 -1.2852 -1.2035
 9366TIP3   OH249588   3.833   5.961   3.426 -0.3611  0.1934 -0.5812
 9366TIP3    H149589   3.873   5.952   3.340 -1.3025 -2.4637 -0.7965
 9366TIP3    H249590   3.739   5.955   3.409 -0.8095  3.8388  0.2013
 9367TIP3   OH249591   5.845   0.410  15.717  0.2706 -0.2075  0.3461
 9367TIP3    H149592   5.856   0.486  15.659 -0.6448  0.7316  1.3781
 9367TIP3    H249593   5.904   0.427  15.790  0.2530 -0.6152  0.4560
 9368TIP3   OH249594   0.815   6.120   4.882 -0.0228 -0.5808  0.1594
 9368TIP3    H149595   0.855   6.206   4.868 -0.1330 -0.6445 -0.5799
 9368TIP3    H249596   0.723   6.133   4.857 -0.0560 -0.8933  0.1251
 9369TIP3   OH249597   3.521   1.993   3.888 -0.3891 -0.6075 -0.1283
 9369TIP3    H149598   3.595   1.992   3.827  0.7536  1.2158  1.1878
 9369TIP3    H249599   3.488   1.903   3.887  0.4202 -0.9248 -2.4244
 9370TIP3   OH249600   6.315   4.259  16.164 -0.0215  0.3448  0.0130
 9370TIP3    H149601   6.379   4.254  16.093  0.3908 -0.4250  0.4338
 9370TIP3    H249602   6.241   4.306  16.126 -0.1651 -0.8474 -1.2096
 9371TIP3   OH249603   3.703   5.854   1.624 -0.1375  0.1985  0.0218
 9371TIP3    H149604   3.724   5.905   1.546 -0.5859 -1.0986 -0.9668
 9371TIP3    H249605   3.724   5.764   1.600  2.4763  0.1115  2.3988
 9372TIP3   OH249606   2.979   5.441   0.075 -0.3029  0.4444 -0.2052
 9372TIP3    H149607   3.045   5.405   0.015 -0.6016 -2.0833  0.9457
 9372TIP3    H249608   2.905   5.463   0.018  0.5950  1.0615 -1.1732
 9373TIP3   OH249609   0.614   3.686  12.089  0.0738  0.1548  0.3801
 9373TIP3    H149610   0.708   3.703  12.096  0.4206 -1.6942  0.5421
 9373TIP3    H249611   0.582   3.753  12.028  1.1153  2.0325  1.8270
 9374TIP3   OH249612   4.619   0.725   3.313 -0.3161  0.6708 -0.3653
 9374TIP3    H149613   4.532   0.687   3.326  0.0870 -0.5991 -1.2198
 9374TIP3    H249614   4.611   0.816   3.342 -1.6939  0.3232  0.3662
 9375TIP3   OH249615   3.746   0.991  17.022 -0.6867 -0.6331 -0.0955
 9375TIP3    H149616   3.837   1.007  17.045 -0.6003  0.3784 -1.0830
 9375TIP3    H249617   3.743   0.898  16.999  0.3432 -0.4219 -1.1416
 9376TIP3   OH249618   2.413   5.258   1.401  0.3598  0.4497 -0.0054
 9376TIP3    H149619   2.339   5.313   1.428  1.1455  1.0308  0.9784
 9376TIP3    H249620   2.490   5.301   1.437  0.8419 -2.2339  2.3385
 9377TIP3   OH249621   5.624   6.386  16.455 -0.2947 -0.1811 -0.8380
 9377TIP3    H149622   5.694   6.369  16.391  0.3029  0.6372 -0.4193
 9377TIP3    H249623   5.630   6.480  16.471  0.8882 -0.6583  1.9217
 9378TIP3   OH249624   6.151   5.704   1.996 -0.3257 -0.2596 -0.2050
 9378TIP3    H149625   6.076   5.740   2.044 -1.5587 -1.6936 -1.0487
 9378TIP3    H249626   6.181   5.776   1.941  0.0399  0.8725  1.4166
 9379TIP3   OH249627   3.495   3.832  14.857  0.2725 -0.0368 -0.6412
 9379TIP3    H149628   3.423   3.825  14.793  0.3981 -2.0304 -0.5982
 9379TIP3    H249629   3.488   3.752  14.909  0.8976  1.0254  1.1031
 9380TIP3   OH249630   1.593   1.952  16.796  0.5695  0.1631 -0.1721
 9380TIP3    H149631   1.573   1.870  16.841  1.4626 -0.1359 -0.3036
 9380TIP3    H249632   1.571   2.020  16.860 -3.9627  0.0354 -1.4689
 9381TIP3   OH249633   2.830   6.141   3.211  0.0099 -0.2564 -0.3107
 9381TIP3    H149634   2.912   6.117   3.254 -0.6117 -1.5362  0.1798
 9381TIP3    H249635   2.856   6.167   3.122  0.9549 -0.5568 -0.1224
 9382TIP3   OH249636   5.739   6.423  15.789  0.2010  0.0420 -0.2012
 9382TIP3    H149637   5.679   6.469  15.730 -1.8856 -1.3969  0.7510
 9382TIP3    H249638   5.781   6.358  15.733  1.3856  1.4628 -1.0125
 9383TIP3   OH249639   3.081   1.060   3.989  0.4734 -0.2844  0.0867
 9383TIP3    H149640   3.015   1.067   3.920  0.7773 -1.2664 -0.3162
 9383TIP3    H249641   3.146   1.128   3.968 -1.6096  2.3842  1.8719
 9384TIP3   OH249642   3.445   4.043   3.546 -0.5531  0.5865 -0.4574
 9384TIP3    H149643   3.458   4.113   3.610  2.8203  0.0390 -0.4931
 9384TIP3    H249644   3.426   3.965   3.599  0.7891  0.4449 -0.1730
 9385TIP3   OH249645   5.650   6.274   5.193 -0.4683  0.0164 -0.2605
 9385TIP3    H149646   5.615   6.332   5.260  2.4835  2.0711 -0.3658
 9385TIP3    H249647   5.640   6.186   5.228 -2.7839  0.7616  1.0125
 9386TIP3   OH249648   6.090   2.707   1.237  0.1011  0.1125  0.2244
 9386TIP3    H149649   6.177   2.748   1.231 -0.1777  0.7946  0.7607
 9386TIP3    H249650   6.093   2.657   1.319  0.7044 -1.6008 -0.8007
 9387TIP3   OH249651   5.418   6.310   3.274  0.3337 -0.6341  0.7405
 9387TIP3    H149652   5.469   6.234   3.302 -0.1367 -0.5517  1.8360
 9387TIP3    H249653   5.329   6.277   3.266  0.4779 -0.6756 -0.7602
 9388TIP3   OH249654   6.074   1.196   3.474 -0.2089 -0.2480  0.4214
 9388TIP3    H149655   6.025   1.277   3.461 -0.8562 -0.8935 -1.2821
 9388TIP3    H249656   6.057   1.145   3.395  1.4315 -1.4115  0.8067
 9389TIP3   OH249657   0.084   2.102  10.984 -0.0754  0.3242  0.2226
 9389TIP3    H149658   0.087   2.145  11.069 -0.9377  0.6650  0.0861
 9389TIP3    H249659   0.005   2.137  10.942  0.3891  0.2239 -0.7483
 9390TIP3   OH249660   5.836   4.003  14.412  0.4481 -0.2743  0.3813
 9390TIP3    H149661   5.845   4.097  14.401  0.6445 -0.2335  0.8919
 9390TIP3    H249662   5.877   3.984  14.496  0.7496 -0.8694  0.1043
 9391TIP3   OH249663   6.633   6.542  13.807 -0.5926  0.1457  0.1705
 9391TIP3    H149664   6.615   6.460  13.761  0.6655 -0.0023 -0.0590
 9391TIP3    H249665   6.607   6.610  13.745  0.1398 -0.0640 -0.3729
 9392TIP3   OH249666   5.957   4.573   5.046  0.1763  0.7741 -0.2500
 9392TIP3    H149667   5.903   4.495   5.028  1.4276 -0.1277 -0.1218
 9392TIP3    H249668   5.894   4.645   5.046 -1.0242 -0.2456 -0.2654
 9393TIP3   OH249669   6.732   4.519  15.341  0.2067  0.1869 -0.2143
 9393TIP3    H149670   6.739   4.489  15.432 -0.3383 -0.7236 -0.4710
 9393TIP3    H249671   6.650   4.569  15.339  1.5136  2.4626  0.4133
 9394TIP3   OH249672   3.887   5.129   2.746 -0.1048 -0.2215  0.1470
 9394TIP3    H149673   3.856   5.220   2.745  0.8931  0.1251 -0.2891
 9394TIP3    H249674   3.980   5.136   2.769 -0.5015 -1.2969  2.2468
 9395TIP3   OH249675   0.428   2.526   4.494  0.2113 -0.1857 -0.6394
 9395TIP3    H149676   0.409   2.600   4.436  1.0945  0.2377 -0.3885
 9395TIP3    H249677   0.466   2.460   4.436  1.5581  0.4249 -0.4694
 9396TIP3   OH249678   6.749   6.502   1.652  0.0274  0.0464  0.2757
 9396TIP3    H149679   6.754   6.553   1.734  1.4900  0.2879  0.0505
 9396TIP3    H249680   6.736   6.412   1.681  0.0254  0.2030  0.7679
 9397TIP3   OH249681   0.929   3.094  14.960 -0.0742  0.1753  0.0655
 9397TIP3    H149682   0.968   3.068  14.876  1.2750 -0.2706  0.8053
 9397TIP3    H249683   0.870   3.021  14.982 -1.0423  0.6648 -0.8688
 9398TIP3   OH249684   6.023   0.089  14.452  0.0084  0.3774 -0.7482
 9398TIP3    H149685   6.096   0.125  14.401  2.5552 -0.5721  2.0750
 9398TIP3    H249686   5.988   0.163  14.501 -0.9755  0.8268 -2.0836
 9399TIP3   OH249687   6.690   1.618   4.736  0.4549  0.0825 -0.3083
 9399TIP3    H149688   6.734   1.533   4.746  2.1092  0.5256 -3.2959
 9399TIP3    H249689   6.641   1.610   4.654  1.4546  2.3298 -1.1635
 9400TIP3   OH249690   0.687   0.815   4.998  0.5280 -0.6766 -0.0531
 9400TIP3    H149691   0.721   0.815   5.087  0.0899  1.6305  0.1297
 9400TIP3    H249692   0.603   0.770   5.005 -1.3726  2.9034  1.4972
 9401TIP3   OH249693   1.645   5.732   0.119  0.5101 -0.2818 -0.0117
 9401TIP3    H149694   1.559   5.752   0.081  0.6750  0.6320  0.0851
 9401TIP3    H249695   1.641   5.767   0.208  0.9110 -0.4245  0.0626
 9402TIP3   OH249696   1.578   6.360   5.482  0.3791  0.0336  0.0214
 9402TIP3    H149697   1.556   6.453   5.492 -1.1951 -0.2478 -0.5914
 9402TIP3    H249698   1.539   6.335   5.398  3.9946 -0.2943 -1.6273
 9403TIP3   OH249699   0.202   5.124  13.489 -0.2725  1.2458  0.3462
 9403TIP3    H149700   0.148   5.134  13.411 -0.4124 -1.0072  0.1303
 9403TIP3    H249701   0.140   5.132  13.562 -1.0850 -2.0609  0.0871
 9404TIP3   OH249702   3.280   0.538   2.938 -0.1652  0.0493  0.0028
 9404TIP3    H149703   3.372   0.547   2.914 -0.0846 -0.5696  0.0645
 9404TIP3    H249704   3.275   0.569   3.029  0.3670 -1.8188  0.6923
 9405TIP3   OH249705   5.451   3.067   6.135  0.2795  0.2273  0.2046
 9405TIP3    H149706   5.442   3.144   6.191 -0.6907 -0.8019  1.5081
 9405TIP3    H249707   5.482   2.998   6.194  1.0428 -0.4207 -0.9233
 9406TIP3   OH249708   2.127   1.013  15.768 -0.8269 -0.5334 -0.1345
 9406TIP3    H149709   2.157   0.995  15.679 -1.1949  0.0083 -0.3720
 9406TIP3    H249710   2.100   1.105  15.766  0.0836 -0.2361  0.7992
 9407TIP3   OH249711   2.082   1.309  12.126  0.4360  0.1682  0.6078
 9407TIP3    H149712   2.143   1.338  12.194 -0.3618  1.0406  0.9489
 9407TIP3    H249713   2.120   1.340  12.045  0.3471  0.8745  0.8386
 9408TIP3   OH249714   2.938   4.933  16.031 -0.1072  0.9460 -0.2505
 9408TIP3    H149715   2.848   4.945  16.061 -0.3846  0.6264 -0.9317
 9408TIP3    H249716   2.955   5.008  15.974  0.0130  0.9481 -0.2130
 9409TIP3   OH249717   2.059   6.617   4.606 -0.0187  0.0392  0.3208
 9409TIP3    H149718   2.025   6.530   4.584  1.2466 -0.6867  1.1773
 9409TIP3    H249719   1.983   6.666   4.637 -1.3377  0.2403 -3.0817
 9410TIP3   OH249720   0.259   4.454  12.099  0.4143  0.4056 -0.1269
 9410TIP3    H149721   0.189   4.407  12.054  0.9676 -0.5224 -0.0334
 9410TIP3    H249722   0.226   4.544  12.108 -0.0275  0.4073 -1.6507
 9411TIP3   OH249723   2.581   1.418  10.833 -0.1130 -0.1545 -0.8623
 9411TIP3    H149724   2.545   1.332  10.811 -0.3666  0.2504 -2.0898
 9411TIP3    H249725   2.670   1.399  10.862 -0.7087 -0.9890  0.5279
 9412TIP3   OH249726   5.204   6.041   5.771  0.3612  0.2759 -0.0335
 9412TIP3    H149727   5.136   6.043   5.703  0.8960  0.5464 -0.5656
 9412TIP3    H249728   5.285   6.028   5.722  0.7977  0.9020  0.5245
 9413TIP3   OH249729   0.712   6.764   4.472  0.2064  0.1309  0.0305
 9413TIP3    H149730   0.760   6.815   4.537 -0.5725  1.9853 -0.8154
 9413TIP3    H249731   0.646   6.716   4.522  0.9418 -0.0540  0.8290
 9414TIP3   OH249732   6.506   3.462   1.446 -1.2195 -0.4465 -0.4336
 9414TIP3    H149733   6.494   3.368   1.460 -0.6917 -0.7542 -1.9702
 9414TIP3    H249734   6.555   3.492   1.522 -2.3071 -1.2113  0.5855
 9415TIP3   OH249735   3.684   2.635   1.750  0.4030  0.1278  0.3568
 9415TIP3    H149736   3.734   2.658   1.829  2.1411  0.2797 -0.7643
 9415TIP3    H249737   3.597   2.673   1.766  0.1120 -1.4778  3.0124
 9416TIP3   OH249738   6.478   4.975  15.734  0.1567  0.2967 -0.1654
 9416TIP3    H149739   6.455   5.026  15.812 -0.0178 -0.1666  0.0910
 9416TIP3    H249740   6.573   4.978  15.731  0.1807  0.0661  0.2403
 9417TIP3   OH249741   5.143   0.329  15.442 -0.0425  0.5631  0.0411
 9417TIP3    H149742   5.138   0.307  15.535 -0.6620 -0.3301 -0.1920
 9417TIP3    H249743   5.135   0.245  15.397  1.1450  0.8923 -0.8038
 9418TIP3   OH249744   0.046   4.056   0.887  0.0118 -0.2241 -0.7831
 9418TIP3    H149745   0.067   4.045   0.794  2.3531 -0.6608 -0.2492
 9418TIP3    H249746   0.038   4.150   0.899 -0.7861 -0.1935 -1.5305
 9419TIP3   OH249747   6.603   3.348  12.608 -0.0454  0.0744 -0.0149
 9419TIP3    H149748   6.630   3.318  12.694  1.5419  1.5429  0.0260
 9419TIP3    H249749   6.669   3.313  12.548 -0.3368  0.2621 -0.4525
 9420TIP3   OH249750   4.504   0.486   0.806  0.3747 -0.1257  0.0149
 9420TIP3    H149751   4.594   0.486   0.773  0.4542  1.8682  0.1468
 9420TIP3    H249752   4.451   0.519   0.733 -0.4267 -2.2977 -0.4288
 9421TIP3   OH249753   1.808   3.244  16.653  0.0368 -0.4190  0.1407
 9421TIP3    H149754   1.815   3.182  16.580  1.7309 -0.7519  0.5633
 9421TIP3    H249755   1.894   3.242  16.695 -1.0138 -0.5179  2.3927
 9422TIP3   OH249756   5.492   1.239  13.218 -0.2727 -0.1923 -0.1777
 9422TIP3    H149757   5.445   1.314  13.181  0.5688  1.3985  1.8556
 9422TIP3    H249758   5.435   1.207  13.288  1.1864  1.1233  1.6424
 9423TIP3   OH249759   6.198   4.573   5.460  0.4590  0.0101 -0.0716
 9423TIP3    H149760   6.153   4.522   5.393  1.2891  0.6573 -1.1351
 9423TIP3    H249761   6.287   4.537   5.461 -0.0274 -1.2290  1.9697
 9424TIP3   OH249762   2.330   3.839   0.657 -0.6200  0.8024 -0.3632
 9424TIP3    H149763   2.262   3.773   0.652  0.6143 -0.4710 -0.7931
 9424TIP3    H249764   2.377   3.820   0.738 -1.5040  2.4341  0.5728
 9425TIP3   OH249765   1.280   4.893   3.206 -0.3720  0.2067  0.5909
 9425TIP3    H149766   1.350   4.901   3.142  0.2124  0.1204  1.2175
 9425TIP3    H249767   1.305   4.953   3.277 -2.6301  2.8097 -0.6919
 9426TIP3   OH249768   2.984   6.560  16.458  0.0782  0.1796  0.0791
 9426TIP3    H149769   3.050   6.543  16.524 -0.2747 -1.1311  0.1121
 9426TIP3    H249770   2.904   6.579  16.508 -0.3809 -1.5723  0.0675
 9427TIP3   OH249771   1.701   6.787   0.616 -1.1037 -0.0158  0.2022
 9427TIP3    H149772   1.684   6.877   0.591 -1.0440 -0.0050  0.2017
 9427TIP3    H249773   1.783   6.764   0.572  0.3791  0.8403  2.4349
 9428TIP3   OH249774   5.440   6.584   2.152 -0.5510 -0.0899  0.4604
 9428TIP3    H149775   5.466   6.557   2.063 -1.4767 -2.4987  0.8849
 9428TIP3    H249776   5.513   6.638   2.182  2.2743 -3.5706  0.1870
 9429TIP3   OH249777   5.916   3.695  12.321  0.1588 -0.1263  0.1842
 9429TIP3    H149778   5.900   3.636  12.247  1.7690 -1.9758  1.2437
 9429TIP3    H249779   5.880   3.648  12.397 -0.1334  1.0734  0.7951
 9430TIP3   OH249780   2.431   0.548  15.484  0.3554 -0.5121 -0.5563
 9430TIP3    H149781   2.473   0.510  15.406 -1.3276  0.6580 -2.0704
 9430TIP3    H249782   2.409   0.637  15.458  0.9015  0.3055  1.7182
 9431TIP3   OH249783   0.245   4.719  11.243 -0.3367  0.4897 -0.6380
 9431TIP3    H149784   0.238   4.804  11.200  2.3916 -0.2530 -2.6634
 9431TIP3    H249785   0.159   4.680  11.233 -1.3622  2.6265 -0.4847
 9432TIP3   OH249786   5.299   5.814   3.793  0.0875  0.0190 -0.0543
 9432TIP3    H149787   5.228   5.769   3.746  1.7190 -0.0506 -2.5029
 9432TIP3    H249788   5.379   5.776   3.758  1.3751 -0.0367  2.8472
 9433TIP3   OH249789   0.812   1.870  10.912 -0.1471  0.2169  0.8352
 9433TIP3    H149790   0.743   1.906  10.967 -0.3463 -0.8709  1.3114
 9433TIP3    H249791   0.873   1.829  10.973  0.1290 -0.1576  0.3097
 9434TIP3   OH249792   2.753   1.040  17.112  0.1557  0.2097 -0.3038
 9434TIP3    H149793   2.809   0.985  17.058  0.9626  1.8355 -1.1220
 9434TIP3    H249794   2.669   1.042  17.065  0.2914  0.1253 -0.5492
 9435TIP3   OH249795   5.201   6.033   3.880 -0.4090  0.1610 -0.1924
 9435TIP3    H149796   5.143   6.054   3.807  0.5763 -0.0446 -1.0418
 9435TIP3    H249797   5.247   5.954   3.852  1.6044  1.3535 -0.2871
 9436TIP3   OH249798   5.030   6.189  11.916  0.1727  0.3629 -0.1258
 9436TIP3    H149799   4.996   6.115  11.865 -0.7442  0.4750  0.3279
 9436TIP3    H249800   5.036   6.260  11.852  2.2140 -0.4128 -0.8619
 9437TIP3   OH249801   4.355   6.122  16.917  0.2888 -0.2116  0.7212
 9437TIP3    H149802   4.322   6.164  16.838 -1.6207  1.0384  2.1298
 9437TIP3    H249803   4.437   6.167  16.936 -0.9157  1.8382  1.2826
 9438TIP3   OH249804   4.506   5.717   1.268  0.3435 -0.1537  0.2567
 9438TIP3    H149805   4.413   5.737   1.277  0.0854 -0.3529 -1.7092
 9438TIP3    H249806   4.525   5.732   1.176  1.9103 -1.5852  0.3206
 9439TIP3   OH249807   6.602   2.545   2.493 -0.3323 -0.1764 -0.1005
 9439TIP3    H149808   6.695   2.544   2.517 -0.3656  0.8556  0.0764
 9439TIP3    H249809   6.571   2.632   2.517 -1.2443 -0.3576 -0.5708
 9440TIP3   OH249810   6.783   3.259   1.402 -0.5641  0.4476 -0.5448
 9440TIP3    H149811   6.840   3.294   1.471 -0.5893 -0.0659 -0.2648
 9440TIP3    H249812   6.702   3.237   1.448 -0.2285 -0.8403 -0.5613
 9441TIP3   OH249813   3.799   0.437   4.694  0.0504  0.2786  0.0738
 9441TIP3    H149814   3.861   0.415   4.764  0.2862 -1.1698 -0.5835
 9441TIP3    H249815   3.848   0.495   4.636 -0.0494  1.2414  0.9232
 9442TIP3   OH249816   1.452   4.187  14.168  0.0577  0.0240  0.1493
 9442TIP3    H149817   1.373   4.192  14.114 -0.1653 -0.6288  0.4108
 9442TIP3    H249818   1.426   4.226  14.251 -0.1677 -0.7425  0.4395
 9443TIP3   OH249819   0.943   5.725   3.893 -0.2045 -0.6331 -0.0136
 9443TIP3    H149820   0.857   5.699   3.925 -0.2028  0.7170  1.1215
 9443TIP3    H249821   0.926   5.763   3.807 -0.8267  0.2247  0.4868
 9444TIP3   OH249822   4.036   1.687  11.956  0.3765  0.6710  0.1998
 9444TIP3    H149823   4.018   1.696  12.050  0.3999  1.1161  0.1610
 9444TIP3    H249824   4.109   1.625  11.952 -1.2467 -1.3288  0.3511
 9445TIP3   OH249825   4.665   4.067  12.642  0.2341  0.3737  0.3169
 9445TIP3    H149826   4.698   4.011  12.572  0.3106  0.3730  0.3525
 9445TIP3    H249827   4.724   4.050  12.716  0.1591  0.3808  0.3776
 9446TIP3   OH249828   6.729   3.789  14.469 -0.0645 -0.1228 -0.1170
 9446TIP3    H149829   6.778   3.867  14.443  0.3391 -0.2126  0.3680
 9446TIP3    H249830   6.704   3.748  14.386  0.2734  0.1761 -0.3684
 9447TIP3   OH249831   0.286   6.269  17.171  0.2678  0.2352 -0.3179
 9447TIP3    H149832   0.209   6.280  17.115  0.2544  0.5004 -0.2501
 9447TIP3    H249833   0.361   6.283  17.112  0.2624  0.0462 -0.3693
 9448TIP3   OH249834   6.565   2.282  12.537  0.3816 -0.3151 -0.0399
 9448TIP3    H149835   6.570   2.377  12.539  0.9645 -0.3388 -0.1414
 9448TIP3    H249836   6.486   2.263  12.486 -0.5579  0.1162  1.2303
 9449TIP3   OH249837   4.901   3.686  11.674 -0.3986  0.3745 -0.5555
 9449TIP3    H149838   4.823   3.638  11.702  0.0274 -1.1384 -1.8972
 9449TIP3    H249839   4.974   3.636  11.710  0.0301  0.4876 -1.2719
 9450TIP3   OH249840   4.574   4.128   2.606  0.5146 -0.1666 -0.4681
 9450TIP3    H149841   4.508   4.190   2.576  0.9569  0.2284 -0.6304
 9450TIP3    H249842   4.563   4.052   2.549 -0.4052 -0.4681  0.1002
 9451TIP3   OH249843   3.616   3.996   5.463 -0.6336 -0.1990 -0.6333
 9451TIP3    H149844   3.529   4.004   5.504 -0.6012 -0.0396 -0.5951
 9451TIP3    H249845   3.599   3.948   5.381 -0.3636 -2.6315  0.6713
 9452TIP3   OH249846   1.325   0.728  15.464  0.2574 -0.0397  0.2195
 9452TIP3    H149847   1.251   0.674  15.436  0.7009 -1.3162  1.4880
 9452TIP3    H249848   1.388   0.666  15.501  1.4812  1.1672  0.2028
 9453TIP3   OH249849   6.592   6.308  15.544  0.7207 -0.5208 -0.2131
 9453TIP3    H149850   6.611   6.279  15.633  0.3766  1.3974  0.5020
 9453TIP3    H249851   6.553   6.232  15.502 -2.3188 -0.4369  2.3072
 9454TIP3   OH249852   4.342   4.066  16.186 -0.2334  0.2704 -0.3896
 9454TIP3    H149853   4.313   3.979  16.213 -0.4495  0.5737  0.3578
 9454TIP3    H249854   4.424   4.080  16.233 -1.6845  1.6675  1.7981
 9455TIP3   OH249855   0.362   5.623   3.545 -0.0413  0.4289 -0.6061
 9455TIP3    H149856   0.327   5.658   3.627 -0.1262 -0.5672 -0.2161
 9455TIP3    H249857   0.372   5.530   3.561  0.7426  0.3653 -1.4506
 9456TIP3   OH249858   1.131   1.776   0.161 -0.4144  0.0707 -0.1230
 9456TIP3    H149859   1.205   1.810   0.212  1.2354 -0.4968 -2.0801
 9456TIP3    H249860   1.170   1.750   0.077 -2.7875 -0.5654 -1.0488
 9457TIP3   OH249861   1.000   4.815  16.063  0.2459 -0.1746 -0.3609
 9457TIP3    H149862   0.975   4.794  15.973 -0.8031 -1.0536  0.1225
 9457TIP3    H249863   0.917   4.830  16.108  0.8034  0.9796  0.2905
 9458TIP3   OH249864   6.501   1.141  11.712 -0.7413 -0.0563 -0.1240
 9458TIP3    H149865   6.592   1.150  11.740 -1.0159  1.3242  0.3570
 9458TIP3    H249866   6.508   1.123  11.618  0.0936 -2.5785  0.3611
 9459TIP3   OH249867   6.542   3.219   5.099 -0.3902  0.4936  0.2586
 9459TIP3    H149868   6.538   3.297   5.044  0.0966  0.7554  0.5872
 9459TIP3    H249869   6.604   3.161   5.055 -2.3865 -0.6330 -1.1401
 9460TIP3   OH249870   0.704   3.103  12.562 -0.0089 -0.0915  0.8370
 9460TIP3    H149871   0.730   3.070  12.648  3.3366  3.7656  1.4231
 9460TIP3    H249872   0.618   3.143  12.577  0.5072  0.4704  2.3352
 9461TIP3   OH249873   3.983   2.964   0.978 -0.8987 -0.0015 -0.2179
 9461TIP3    H149874   3.943   2.877   0.984  0.8490 -0.8271 -0.3949
 9461TIP3    H249875   3.959   3.007   1.060 -2.0548 -0.5116 -0.2733
 9462TIP3   OH249876   4.435   2.979  15.344  0.6443 -0.0933 -0.8493
 9462TIP3    H149877   4.444   2.888  15.375  3.0072  0.2438 -0.4664
 9462TIP3    H249878   4.463   3.032  15.418  0.6918  0.9123 -1.5789
 9463TIP3   OH249879   2.289   2.264   4.791  0.4967 -0.2454 -0.2712
 9463TIP3    H149880   2.344   2.188   4.811  0.6594 -0.2881 -0.8840
 9463TIP3    H249881   2.294   2.273   4.696 -2.6167 -1.8545 -0.6724
 9464TIP3   OH249882   6.362   3.004  12.588  0.4760  1.0030  0.0290
 9464TIP3    H149883   6.357   3.018  12.683  1.1914  0.9568  0.0794
 9464TIP3    H249884   6.453   3.024  12.566  1.1264 -1.8963 -0.1577
 9465TIP3   OH249885   6.706   3.277   0.275 -0.4764  0.2849  0.3142
 9465TIP3    H149886   6.749   3.268   0.191  1.4724 -0.5056  1.3599
 9465TIP3    H249887   6.752   3.216   0.333  0.2204  2.9364  2.7096
 9466TIP3   OH249888   2.729   3.809   4.248 -0.0777 -0.2211  0.3572
 9466TIP3    H149889   2.767   3.721   4.255  0.8320  0.0013 -1.4502
 9466TIP3    H249890   2.646   3.803   4.295 -1.9159 -3.1552 -3.0319
 9467TIP3   OH249891   2.133   0.635  13.875 -0.5406  0.5549  0.0101
 9467TIP3    H149892   2.221   0.673  13.880  0.1569 -1.1313  1.2660
 9467TIP3    H249893   2.075   0.710  13.869  1.0544  1.6604 -2.2391
 9468TIP3   OH249894   5.827   6.498   5.553 -0.1586 -0.7760 -0.0347
 9468TIP3    H149895   5.878   6.542   5.485 -0.3660 -0.7888 -0.1989
 9468TIP3    H249896   5.794   6.570   5.608 -0.4739 -0.7270 -0.2859
 9469TIP3   OH249897   0.745   0.120   5.540  0.5780  0.2705  0.3989
 9469TIP3    H149898   0.691   0.164   5.474  0.5132 -2.0928 -1.1647
 9469TIP3    H249899   0.828   0.168   5.539 -0.9021  2.9778  1.7413
 9470TIP3   OH249900   3.891   5.965   2.334  1.0821 -0.4076  0.2796
 9470TIP3    H149901   3.877   5.945   2.241  1.1340 -2.3139  0.6752
 9470TIP3    H249902   3.803   5.974   2.370  1.0690  1.5964 -0.2063
 9471TIP3   OH249903   0.832   1.153   0.883 -0.1609 -0.0721 -0.2335
 9471TIP3    H149904   0.928   1.145   0.883 -0.2447 -1.1162  0.2521
 9471TIP3    H249905   0.809   1.166   0.975 -0.4239  1.1482 -0.4546
 9472TIP3   OH249906   3.178   0.140   2.666  0.2471  0.1292  0.1793
 9472TIP3    H149907   3.108   0.169   2.724 -0.3339  0.1943 -0.5403
 9472TIP3    H249908   3.152   0.173   2.579  1.6209  0.9317  0.0628
 9473TIP3   OH249909   2.905   2.416  15.051 -0.0199  0.0522  0.2993
 9473TIP3    H149910   2.946   2.338  15.015  1.3034  1.0611 -0.3951
 9473TIP3    H249911   2.829   2.431  14.995 -0.3325 -0.7866  0.4926
 9474TIP3   OH249912   2.363   1.161   2.799  0.1248  0.0695 -0.0722
 9474TIP3    H149913   2.329   1.171   2.710 -1.6039 -2.4983  0.2421
 9474TIP3    H249914   2.327   1.236   2.847 -0.3898  0.4992 -1.1162
 9475TIP3   OH249915   3.053   1.692   5.111  0.6757 -0.4227  0.3025
 9475TIP3    H149916   3.043   1.715   5.019  0.4483  0.6690  0.5928
 9475TIP3    H249917   3.023   1.769   5.158  1.9604 -0.5043  1.2862
 9476TIP3   OH249918   0.682   0.842  15.063 -0.2695 -0.4019 -0.1503
 9476TIP3    H149919   0.766   0.796  15.070 -1.3924 -2.4810 -0.1728
 9476TIP3    H249920   0.656   0.830  14.972  1.0789  3.3002 -1.1337
 9477TIP3   OH249921   5.177   1.360  15.636  0.1470  0.1570 -0.2201
 9477TIP3    H149922   5.100   1.409  15.663 -1.6976 -2.8602  0.2487
 9477TIP3    H249923   5.204   1.312  15.715 -0.3251 -2.3504 -1.5137
 9478TIP3   OH249924   0.406   1.998  12.758 -0.1819 -0.7928 -0.9201
 9478TIP3    H149925   0.350   2.033  12.828 -0.7717 -0.8822 -1.3422
 9478TIP3    H249926   0.403   2.065  12.689 -0.6257 -1.2857 -1.3773
 9479TIP3   OH249927   5.957   5.307   0.871 -0.1181  0.0618  0.2686
 9479TIP3    H149928   6.025   5.240   0.879  0.7413  0.9135  0.2650
 9479TIP3    H249929   5.988   5.363   0.799  0.5689  2.0309  2.0368
 9480TIP3   OH249930   5.180   2.659   3.176 -0.3973  0.7757 -0.1142
 9480TIP3    H149931   5.231   2.740   3.178  2.3820 -0.8855 -1.2544
 9480TIP3    H249932   5.220   2.604   3.244 -1.7674  0.0425  0.1242
 9481TIP3   OH249933   2.415   1.210  10.746 -0.2458  0.1733 -0.2520
 9481TIP3    H149934   2.327   1.240  10.726  0.0319  1.6971  0.7283
 9481TIP3    H249935   2.409   1.175  10.834  0.1897  0.6109 -0.0432
 9482TIP3   OH249936   2.030   1.930  14.708  0.2124  0.5344  0.8399
 9482TIP3    H149937   2.044   1.860  14.644 -0.4624  1.1246  0.0238
 9482TIP3    H249938   1.952   1.902  14.757  0.7414  0.0726  1.4222
 9483TIP3   OH249939   2.481   4.719   5.504 -0.3268  0.6624  0.2882
 9483TIP3    H149940   2.465   4.685   5.415 -2.4211  0.1828  0.8095
 9483TIP3    H249941   2.451   4.809   5.500 -1.4250  0.3275  0.7713
 9484TIP3   OH249942   5.782   3.297   3.996 -0.0873  0.0357  0.1175
 9484TIP3    H149943   5.789   3.375   4.051 -1.4601 -2.0478  3.3474
 9484TIP3    H249944   5.869   3.257   4.000 -0.5464 -0.8227  1.9141
 9485TIP3   OH249945   6.398   5.282   0.609  0.0697 -0.1225  0.0746
 9485TIP3    H149946   6.489   5.285   0.579  0.1259  0.0395  0.2602
 9485TIP3    H249947   6.394   5.348   0.679  0.2102 -1.2821  1.1822
 9486TIP3   OH249948   1.375   1.299  15.811 -0.2841 -0.3205  0.3708
 9486TIP3    H149949   1.438   1.301  15.883 -0.5696 -0.9260  0.6356
 9486TIP3    H249950   1.324   1.379  15.822 -0.1481 -0.2762  0.6837
 9487TIP3   OH249951   6.070   6.473   3.942  0.3932 -0.3150 -0.3048
 9487TIP3    H149952   5.995   6.463   3.884  0.0937 -1.7681  0.2966
 9487TIP3    H249953   6.125   6.396   3.923 -0.0507 -1.1889  1.8050
 9488TIP3   OH249954   4.928   2.496   3.344  0.1775  0.0719 -0.0656
 9488TIP3    H149955   4.980   2.487   3.423  0.1919  2.4963  0.2284
 9488TIP3    H249956   4.985   2.462   3.274  1.3453  0.7388  0.5454
 9489TIP3   OH249957   2.007   0.812  15.530 -0.4301 -0.6741  0.0910
 9489TIP3    H149958   1.931   0.813  15.587  0.6036  0.4046  1.4964
 9489TIP3    H249959   2.015   0.902  15.499  0.6567 -0.6269  0.4857
 9490TIP3   OH249960   1.926   0.726  14.988  0.1363  0.1989  0.7818
 9490TIP3    H149961   1.923   0.632  15.006 -0.6596 -0.0258 -0.4548
 9490TIP3    H249962   1.859   0.764  15.045 -1.6083 -0.3727 -0.8301
 9491TIP3   OH249963   0.225   3.503  14.557 -0.3588  0.0384  0.1391
 9491TIP3    H149964   0.262   3.588  14.531 -0.8998  0.6060  1.1563
 9491TIP3    H249965   0.132   3.520  14.569 -0.5196 -0.7773  0.0775
 9492TIP3   OH249966   4.416   3.707  11.150 -0.1505 -0.2353 -0.7242
 9492TIP3    H149967   4.333   3.750  11.172  1.4936  3.4682 -1.3991
 9492TIP3    H249968   4.427   3.641  11.218 -2.4868  0.8215  0.7641
 9493TIP3   OH249969   4.802   3.516   5.402 -0.5127 -0.8507  0.3967
 9493TIP3    H149970   4.874   3.535   5.462 -1.4336 -0.9502  1.5529
 9493TIP3    H249971   4.725   3.557   5.443 -0.8600  0.4961 -1.5466
 9494TIP3   OH249972   3.968   0.674  16.344 -0.4043 -0.7903 -0.2171
 9494TIP3    H149973   3.980   0.593  16.294 -0.5677 -2.0999  1.8085
 9494TIP3    H249974   3.877   0.700  16.325 -0.5477 -1.4016 -0.3973
 9495TIP3   OH249975   1.263   6.327   0.563 -0.2032 -0.0033 -0.0090
 9495TIP3    H149976   1.219   6.368   0.638 -1.0975 -2.5570  0.9047
 9495TIP3    H249977   1.251   6.233   0.576  1.1144 -0.5618 -2.4752
 9496TIP3   OH249978   1.161   1.191  16.406  0.1208 -0.2990 -0.6876
 9496TIP3    H149979   1.222   1.125  16.373  0.2135 -0.1305 -0.8478
 9496TIP3    H249980   1.147   1.250  16.333 -0.4681 -0.5058 -0.7392
 9497TIP3   OH249981   0.849   4.178  15.186 -0.4083 -0.6087  0.2296
 9497TIP3    H149982   0.831   4.106  15.247 -2.1535  0.3112  0.8452
 9497TIP3    H249983   0.768   4.187  15.135  0.0978  0.3656 -0.4066
 9498TIP3   OH249984   5.635   6.417   4.759 -0.4023 -0.3537 -0.9119
 9498TIP3    H149985   5.561   6.401   4.818  0.0134 -1.5667 -0.7175
 9498TIP3    H249986   5.663   6.330   4.730  2.0198 -0.0378  0.3520
 9499TIP3   OH249987   4.798   4.712  16.944  0.1703 -0.4869 -0.3324
 9499TIP3    H149988   4.842   4.696  17.028 -1.3726  1.3118  0.8525
 9499TIP3    H249989   4.859   4.767  16.895 -1.2589  3.1853  1.8528
 9500TIP3   OH249990   5.308   6.736   0.900  0.2304 -0.1759 -0.2593
 9500TIP3    H149991   5.358   6.681   0.960  2.2836  1.1437 -0.7098
 9500TIP3    H249992   5.285   6.679   0.827 -0.7827 -1.3465  0.9594
 9501TIP3   OH249993   1.708   5.520   1.298  0.0866 -0.0097  0.2313
 9501TIP3    H149994   1.712   5.429   1.270  0.4276  0.0371  0.1238
 9501TIP3    H249995   1.743   5.570   1.224  0.7859  0.1296  0.6458
 9502TIP3   OH249996   5.315   4.408  16.503 -0.0339  0.0491 -0.3173
 9502TIP3    H149997   5.243   4.452  16.457  1.2872 -0.3144 -2.8280
 9502TIP3    H249998   5.385   4.403  16.438  2.3170  0.4939  2.1278
 9503TIP3   OH249999   4.852   1.917   1.027 -0.4097 -0.2199  0.2948
 9503TIP3    H150000   4.785   1.872   0.974  0.6631 -2.6506  0.9115
 9503TIP3    H250001   4.812   1.925   1.114 -0.2624 -0.8688  0.4296
 9504TIP3   OH250002   6.516   3.707  11.233  0.0343 -0.5053  0.0553
 9504TIP3    H150003   6.506   3.710  11.138 -1.8206  1.0104  0.2609
 9504TIP3    H250004   6.581   3.774  11.252 -0.2460 -0.1898 -0.0852
 9505TIP3   OH250005   2.237   0.941  15.273  0.4036  0.3490  0.0124
 9505TIP3    H150006   2.261   0.995  15.198  0.9442 -0.2495 -0.2450
 9505TIP3    H250007   2.173   0.994  15.321  1.1269  1.3223 -0.0907
 9506TIP3   OH250008   0.995   0.239  16.643  0.6606  0.3305 -0.2224
 9506TIP3    H150009   1.049   0.160  16.642 -1.0872 -0.8846  0.0449
 9506TIP3    H250010   0.963   0.247  16.553  0.5776  0.5600 -0.1738
 9507TIP3   OH250011   3.920   4.351   1.430 -0.3042 -0.3583  0.3998
 9507TIP3    H150012   3.890   4.300   1.354 -1.0806  0.1083  0.3803
 9507TIP3    H250013   3.979   4.292   1.476 -0.7105 -1.0636  0.0459
 9508TIP3   OH250014   1.886   2.023  11.572 -0.0105 -0.1562  0.3325
 9508TIP3    H150015   1.945   2.066  11.510  0.0280 -1.7959 -0.7826
 9508TIP3    H250016   1.812   1.994  11.518 -1.7855  1.6946  1.6772
 9509TIP3   OH250017   2.698   1.511   3.270 -0.3278  0.2776 -0.3933
 9509TIP3    H150018   2.666   1.591   3.312  0.2540  0.4629 -0.2886
 9509TIP3    H250019   2.746   1.466   3.339  0.1014  0.2773 -0.6895
 9510TIP3   OH250020   2.355   1.840  13.431 -0.2344 -0.2367  0.5563
 9510TIP3    H150021   2.360   1.770  13.366 -0.5260 -0.3738  0.6843
 9510TIP3    H250022   2.299   1.805  13.501 -1.6294  0.6979 -0.0796
 9511TIP3   OH250023   5.047   4.485   4.266 -0.3125  0.6478  0.3207
 9511TIP3    H150024   4.993   4.490   4.345 -1.9174 -0.6707 -0.6420
 9511TIP3    H250025   4.986   4.505   4.195  1.4650  3.4363 -0.5026
 9512TIP3   OH250026   4.539   0.734   2.149 -0.2020 -0.0594  0.3101
 9512TIP3    H150027   4.579   0.751   2.064 -0.5614 -0.3885  0.0730
 9512TIP3    H250028   4.495   0.816   2.172  0.0721  0.0975  0.2797
 9513TIP3   OH250029   0.331   0.456  12.272  0.5816  0.1032  0.5661
 9513TIP3    H150030   0.351   0.542  12.234  0.5607 -0.8985 -1.8563
 9513TIP3    H250031   0.246   0.433  12.234  0.5815 -0.9756  1.2022
 9514TIP3   OH250032   4.135   5.592   1.666  0.2541  0.4992  0.0155
 9514TIP3    H150033   4.193   5.597   1.590  0.9244 -1.2348  0.4015
 9514TIP3    H250034   4.056   5.550   1.633 -0.7372  2.6420 -0.4530
 9515TIP3   OH250035   0.582   2.319   5.762  0.1255  0.1953  0.3942
 9515TIP3    H150036   0.604   2.226   5.766 -2.2957 -0.5182 -1.7185
 9515TIP3    H250037   0.488   2.323   5.778  0.3122  2.3469  1.1412
 9516TIP3   OH250038   5.961   3.475  14.897  0.0843  0.1264  0.4278
 9516TIP3    H150039   5.934   3.489  14.806  0.9505  2.3070  0.4754
 9516TIP3    H250040   6.035   3.414  14.891 -0.1556 -0.1080 -0.2762
 9517TIP3   OH250041   4.282   2.935  16.662 -0.2321 -0.3018 -0.0171
 9517TIP3    H150042   4.216   2.922  16.730  0.0843 -0.5859  0.2370
 9517TIP3    H250043   4.318   3.022  16.680 -1.6125  0.5224 -1.0846
 9518TIP3   OH250044   3.034   1.469   2.589 -0.2460 -0.1369  0.1399
 9518TIP3    H150045   2.984   1.389   2.606 -0.7168  0.7146  3.1316
 9518TIP3    H250046   3.125   1.445   2.604  0.0007 -0.9683 -2.4844
 9519TIP3   OH250047   3.180   3.799  11.707  0.0533  0.4708 -0.1541
 9519TIP3    H150048   3.145   3.742  11.639  0.1266 -1.5312  1.4219
 9519TIP3    H250049   3.241   3.743  11.756  1.8470  2.5460  0.0697
 9520TIP3   OH250050   1.022   1.559   3.387 -0.6133 -0.4382  0.5149
 9520TIP3    H150051   0.926   1.558   3.392 -0.5810 -1.8913  1.0691
 9520TIP3    H250052   1.043   1.496   3.318 -0.0362 -0.3366  0.5991
 9521TIP3   OH250053   5.535   3.545  12.153  0.0453  0.0064  0.9538
 9521TIP3    H150054   5.615   3.493  12.148 -0.8115 -1.4053  1.5181
 9521TIP3    H250055   5.470   3.494  12.104 -0.3038  1.5723 -0.2811
 9522TIP3   OH250056   5.493   6.397   4.992 -0.7372 -0.0910 -0.0875
 9522TIP3    H150057   5.572   6.375   5.041 -0.2907  2.6523  0.4798
 9522TIP3    H250058   5.423   6.347   5.035  0.0463  0.4738  1.8528
 9523TIP3   OH250059   4.269   4.736   4.229  0.2036 -0.1698  0.2594
 9523TIP3    H150060   4.330   4.807   4.249  0.3599  0.0180 -0.8327
 9523TIP3    H250061   4.251   4.746   4.135 -2.2961  0.4227  0.7504
 9524TIP3   OH250062   0.268   5.768  14.063  0.0652  0.4394 -0.4131
 9524TIP3    H150063   0.325   5.705  14.020 -1.2790 -1.0421 -0.0860
 9524TIP3    H250064   0.286   5.758  14.157 -1.3779 -0.7423 -0.2317
 9525TIP3   OH250065   2.756   0.003   0.833 -0.5417  0.0604  0.5151
 9525TIP3    H150066   2.764  -0.087   0.864  0.6194  0.1103  0.4050
 9525TIP3    H250067   2.718   0.051   0.907 -0.9869 -0.4847  0.6381
 9526TIP3   OH250068   0.906   3.578   1.257 -0.2891  0.0756  0.4623
 9526TIP3    H150069   0.965   3.641   1.215 -0.3105 -0.7304 -0.8123
 9526TIP3    H250070   0.847   3.631   1.310 -0.4367  1.1406 -0.7533
 9527TIP3   OH250071   2.375   5.530  11.917 -0.6862 -0.2702  0.6544
 9527TIP3    H150072   2.386   5.622  11.893  0.1162 -0.7270 -0.7658
 9527TIP3    H250073   2.390   5.528  12.012 -0.6159  1.0327  0.6839
 9528TIP3   OH250074   3.993   1.521   5.371  0.4639 -0.3851  0.1538
 9528TIP3    H150075   4.044   1.595   5.339  1.2547 -1.0770 -0.2234
 9528TIP3    H250076   3.953   1.552   5.452  1.2307  0.2757  0.2862
 9529TIP3   OH250077   2.113   2.954   0.125 -0.4950  0.0483  0.0221
 9529TIP3    H150078   2.048   2.978   0.059 -1.3733 -0.6673  0.6161
 9529TIP3    H250079   2.187   2.921   0.074 -0.2236  1.6762 -0.6973
 9530TIP3   OH250080   0.831   5.797  11.292 -0.4257 -0.1440  0.2553
 9530TIP3    H150081   0.822   5.861  11.221  2.3730 -0.0564 -0.0821
 9530TIP3    H250082   0.815   5.846  11.372  0.6535  0.7321 -0.0674
 9531TIP3   OH250083   6.378   0.571   1.995  0.6514  0.3823  0.1103
 9531TIP3    H150084   6.450   0.580   1.932  0.7142 -0.1609  0.1020
 9531TIP3    H250085   6.303   0.545   1.941  0.0853  2.3373 -0.0843
 9532TIP3   OH250086   3.327   0.869   3.475  0.0217  0.1322  0.3205
 9532TIP3    H150087   3.324   0.950   3.525 -1.6115 -0.8342  1.8189
 9532TIP3    H250088   3.417   0.864   3.442 -0.0406  2.8536 -0.3491
 9533TIP3   OH250089   5.859   5.253  10.852 -0.6640 -0.7787 -0.2762
 9533TIP3    H150090   5.846   5.330  10.908  1.2750 -0.2427 -0.5137
 9533TIP3    H250091   5.786   5.255  10.790  0.6568  2.3136 -1.8470
 9534TIP3   OH250092   3.633   0.610   5.750  0.1680 -0.7545  0.1174
 9534TIP3    H150093   3.589   0.533   5.787  0.4924 -0.5882  0.8761
 9534TIP3    H250094   3.586   0.629   5.669  1.1219 -2.7500 -0.9321
 9535TIP3   OH250095   5.033   2.318   0.130 -0.6947 -0.0078 -0.0864
 9535TIP3    H150096   5.064   2.339   0.218 -2.1291  0.3416  0.3551
 9535TIP3    H250097   5.085   2.243   0.103  0.6124  0.6487  0.5700
 9536TIP3   OH250098   6.637   4.164  15.657  0.0334 -0.1866  0.2648
 9536TIP3    H150099   6.617   4.150  15.749  1.1868  0.6098  0.6348
 9536TIP3    H250100   6.567   4.117  15.611 -0.5794 -0.5466  1.5287
 9537TIP3   OH250101   3.015   5.699  16.522 -0.7004 -0.5060  0.1150
 9537TIP3    H150102   3.021   5.710  16.617 -2.2926  0.6026  0.1159
 9537TIP3    H250103   3.049   5.612  16.506  0.0777 -0.5046  1.6558
 9538TIP3   OH250104   1.016   2.683  13.504  0.0280  0.2818  0.4476
 9538TIP3    H150105   1.007   2.758  13.444 -0.7824 -0.6563 -0.6231
 9538TIP3    H250106   1.064   2.617  13.454  1.7200  0.4726  1.7714
 9539TIP3   OH250107   5.236   3.930  12.397  0.0790 -0.0137  0.2693
 9539TIP3    H150108   5.247   3.968  12.310  0.9547 -0.7654  0.0513
 9539TIP3    H250109   5.275   3.843  12.391 -0.9133 -0.5286  1.0784
 9540TIP3   OH250110   3.421   4.506   4.258 -0.1641  0.1524 -0.5561
 9540TIP3    H150111   3.432   4.435   4.322 -0.5858 -0.3123 -0.9913
 9540TIP3    H250112   3.463   4.581   4.299 -1.1497  0.0713  0.6406
 9541TIP3   OH250113   1.297   6.429   4.829 -0.3891 -0.3338  0.2007
 9541TIP3    H150114   1.279   6.335   4.832  2.1145 -0.8451  0.5697
 9541TIP3    H250115   1.393   6.435   4.829 -0.4763  2.1582 -2.1479
 9542TIP3   OH250116   1.735   2.344   3.819 -0.1462 -0.2644  0.7330
 9542TIP3    H150117   1.665   2.402   3.848 -0.0179  0.6131 -0.6786
 9542TIP3    H250118   1.691   2.278   3.766 -0.5457 -2.5557  3.7593
 9543TIP3   OH250119   3.625   2.802   6.279 -0.1669 -0.5889 -0.0284
 9543TIP3    H150120   3.532   2.795   6.257  0.5201 -0.0951 -3.3844
 9543TIP3    H250121   3.627   2.808   6.374 -3.4858 -1.9282  0.1950
 9544TIP3   OH250122   1.716   1.799  12.191  0.0295  0.4266 -0.3127
 9544TIP3    H150123   1.778   1.805  12.264  1.1851 -1.7889 -1.0578
 9544TIP3    H250124   1.682   1.710  12.197 -0.2140  0.3868 -2.2135
 9545TIP3   OH250125   0.686   1.488  12.373 -0.6260 -0.0612  0.5678
 9545TIP3    H150126   0.664   1.450  12.458  1.6408  1.8059  2.0516
 9545TIP3    H250127   0.604   1.523  12.340 -1.7835 -1.9507  1.3713
 9546TIP3   OH250128   3.892   3.529   6.120 -0.0054  0.2637  0.0614
 9546TIP3    H150129   3.987   3.538   6.126 -0.1766  1.9040  0.6762
 9546TIP3    H250130   3.862   3.527   6.211 -0.6555  1.0222 -0.1318
 9547TIP3   OH250131   1.577   5.320   1.670  0.1433  0.4841 -0.0634
 9547TIP3    H150132   1.500   5.280   1.631  0.1679  0.0156  0.3700
 9547TIP3    H250133   1.628   5.353   1.595 -0.4320  0.7238 -0.3524
 9548TIP3   OH250134   1.059   0.970  11.973 -0.1261  0.1137  0.0116
 9548TIP3    H150135   1.027   0.926  11.894 -0.0144 -0.2621  0.1749
 9548TIP3    H250136   1.155   0.969  11.963 -0.1118  0.0452  0.1663
 9549TIP3   OH250137   4.964   3.364  16.907  0.3825 -0.0773  0.0241
 9549TIP3    H150138   4.996   3.377  16.996  2.6702 -1.4581 -0.5545
 9549TIP3    H250139   5.043   3.360  16.853 -0.9594  0.4801 -2.0475
 9550TIP3   OH250140   2.404   3.234   3.137 -0.1715 -0.6166  0.5547
 9550TIP3    H150141   2.397   3.329   3.125  1.3851 -0.1414  2.8871
 9550TIP3    H250142   2.318   3.207   3.167  0.0608  0.5206  2.3338
 9551TIP3   OH250143   6.338   2.815  12.241  0.0000 -0.3812  0.3115
 9551TIP3    H150144   6.421   2.803  12.286  1.6673 -0.6761 -2.7225
 9551TIP3    H250145   6.330   2.909  12.228  0.9326 -0.4942 -1.2458
 9552TIP3   OH250146   4.833   3.374   2.662  0.1598  0.0973  0.8173
 9552TIP3    H150147   4.855   3.466   2.680  1.1423  0.2603 -1.0773
 9552TIP3    H250148   4.738   3.373   2.660  0.1510  1.2759 -0.0526
 9553TIP3   OH250149   0.126   3.928   5.768 -0.0693  0.4013 -0.2808
 9553TIP3    H150150   0.047   3.931   5.822  1.5315 -0.4998  2.2092
 9553TIP3    H250151   0.173   4.009   5.791  0.7973 -0.1727 -0.0116
 9554TIP3   OH250152   3.833   0.450   2.150 -0.6102 -0.1617 -0.7568
 9554TIP3    H150153   3.810   0.374   2.203  0.7334 -0.4834 -0.5993
 9554TIP3    H250154   3.783   0.522   2.188 -0.6836 -0.6569  0.1023
 9555TIP3   OH250155   5.465   3.266   3.607  0.1297  0.1257  0.1856
 9555TIP3    H150156   5.377   3.243   3.635 -0.5026  1.5358 -0.5878
 9555TIP3    H250157   5.514   3.276   3.689 -0.1316 -1.6778  0.5903
 9556TIP3   OH250158   3.607   3.953   5.738 -0.3629 -0.1086 -0.2974
 9556TIP3    H150159   3.677   3.915   5.791 -0.6106 -0.3747 -0.1573
 9556TIP3    H250160   3.649   3.974   5.654  0.1515  0.8163  0.1875
 9557TIP3   OH250161   1.143   3.889  10.551 -0.6280 -0.3901  0.0524
 9557TIP3    H150162   1.050   3.877  10.531 -1.1094 -0.2401  2.0819
 9557TIP3    H250163   1.183   3.910  10.467 -2.7568  1.4857 -0.5491
 9558TIP3   OH250164   5.271   5.475   5.198  0.6480 -0.3682  0.6923
 9558TIP3    H150165   5.329   5.399   5.200 -1.3164 -1.9871 -1.2952
 9558TIP3    H250166   5.292   5.520   5.117 -1.3946 -1.4528 -0.4904
 9559TIP3   OH250167   3.074   1.584   2.836 -0.5999 -0.4807  0.0677
 9559TIP3    H150168   3.073   1.505   2.782  0.2502 -0.0814 -0.5515
 9559TIP3    H250169   3.065   1.552   2.925 -1.9033 -1.1530 -0.2966
 9560TIP3   OH250170   5.847   6.667  14.420  0.2290 -0.5892  0.9132
 9560TIP3    H150171   5.882   6.621  14.344  1.0459 -0.9183  1.4821
 9560TIP3    H250172   5.922   6.713  14.457 -0.4918  0.8501  0.6138
 9561TIP3   OH250173   0.668   5.887  17.062  0.1745 -0.1594 -0.0250
 9561TIP3    H150174   0.626   5.964  17.025  0.1897  0.0272  0.3417
 9561TIP3    H250175   0.639   5.885  17.153  0.6842 -0.2239  0.1406
 9562TIP3   OH250176   2.913   5.901   5.094 -0.0082  0.2411  0.2429
 9562TIP3    H150177   2.929   5.861   5.180  0.7297 -0.0515 -0.0292
 9562TIP3    H250178   2.894   5.828   5.036 -1.4593  0.5107  0.3544
 9563TIP3   OH250179   2.159   2.536   3.943  0.0703  0.1652 -0.6985
 9563TIP3    H150180   2.210   2.523   3.863 -0.9327  0.3465 -1.3728
 9563TIP3    H250181   2.068   2.524   3.916 -0.2553 -0.0879  0.4829
 9564TIP3   OH250182   2.956   4.999   1.362 -0.5416 -0.3722  0.1068
 9564TIP3    H150183   3.020   5.055   1.318  0.3028 -2.1525 -0.9616
 9564TIP3    H250184   2.882   5.058   1.380  0.6928  1.3107 -0.1326
 9565TIP3   OH250185   3.709   6.408   5.728  0.2153  0.5531 -0.9565
 9565TIP3    H150186   3.734   6.357   5.805  0.3672  2.6776  0.4491
 9565TIP3    H250187   3.641   6.467   5.759  0.5848  1.7472 -2.3476
 9566TIP3   OH250188   0.800   5.570   0.817 -0.5419 -0.0471  0.3059
 9566TIP3    H150189   0.787   5.663   0.831 -0.9350  0.0653 -0.7188
 9566TIP3    H250190   0.712   5.532   0.824 -0.2049 -0.5252  2.0232
 9567TIP3   OH250191   2.680   4.286  12.482 -0.1803 -0.2020  0.1176
 9567TIP3    H150192   2.589   4.262  12.464 -1.4758  2.9312  1.9819
 9567TIP3    H250193   2.676   4.332  12.566  3.1154  0.2038  0.1059
 9568TIP3   OH250194   1.997   5.718   1.393 -0.4145  0.2950  0.1709
 9568TIP3    H150195   2.093   5.718   1.389 -0.4595  1.0694 -1.1207
 9568TIP3    H250196   1.970   5.669   1.315 -1.0491 -1.0242  1.2175
 9569TIP3   OH250197   0.959   0.179  11.632 -0.2777  0.0416 -0.1531
 9569TIP3    H150198   0.955   0.092  11.593 -0.1150 -0.2784  0.5395
 9569TIP3    H250199   0.869   0.196  11.662 -0.3195  0.1266 -0.3289
 9570TIP3   OH250200   3.543   5.143   3.912 -0.2800  0.6707 -0.2791
 9570TIP3    H150201   3.589   5.155   3.996 -0.2461 -0.1091 -0.1792
 9570TIP3    H250202   3.581   5.063   3.876 -0.1773  1.0912 -1.1248
 9571TIP3   OH250203   2.414   4.988   3.750 -0.1116 -0.0906 -0.5606
 9571TIP3    H150204   2.473   4.956   3.818  1.6118  0.4570 -1.7707
 9571TIP3    H250205   2.361   5.054   3.794  2.0534  1.4019 -0.1107
 9572TIP3   OH250206   4.717   2.197   3.392  0.3756 -0.3387 -0.2180
 9572TIP3    H150207   4.698   2.105   3.374 -1.3206  0.0962 -0.7365
 9572TIP3    H250208   4.772   2.225   3.319  0.0891 -0.6810 -0.5693
 9573TIP3   OH250209   6.121   2.082  16.574  0.1689 -0.9288 -1.0391
 9573TIP3    H150210   6.202   2.091  16.524  1.6623 -1.9457  1.1082
 9573TIP3    H250211   6.128   1.995  16.615 -1.4342 -0.5161  0.1527
 9574TIP3   OH250212   3.054   5.434   0.379  0.5216 -0.6306 -0.0704
 9574TIP3    H150213   3.039   5.431   0.284  0.1199 -2.1926  0.0368
 9574TIP3    H250214   2.967   5.449   0.417  0.8429  1.1206  0.0060
 9575TIP3   OH250215   5.077   5.409   1.478 -0.0469 -0.5785 -0.4639
 9575TIP3    H150216   5.101   5.339   1.417 -1.3115 -2.2550  0.9281
 9575TIP3    H250217   5.129   5.484   1.449  2.3236 -2.4268 -1.2236
 9576TIP3   OH250218   6.462   3.712   5.453  0.0461  0.0186 -0.4498
 9576TIP3    H150219   6.534   3.682   5.508 -0.2097 -1.2744 -0.8084
 9576TIP3    H250220   6.383   3.694   5.504 -0.1686 -0.8576 -1.0739
 9577TIP3   OH250221   4.656   1.041   0.479  0.1287  0.1662  0.1547
 9577TIP3    H150222   4.699   1.012   0.399 -0.9784 -0.4436 -0.2266
 9577TIP3    H250223   4.585   0.978   0.492 -0.8888  1.3912  0.5593
 9578TIP3   OH250224   0.515   1.999   4.776 -0.4401 -0.5932 -0.2152
 9578TIP3    H150225   0.593   1.990   4.722 -0.6339 -1.3327 -0.3848
 9578TIP3    H250226   0.497   1.910   4.808 -1.3855 -0.4948 -0.4395
 9579TIP3   OH250227   2.367   1.856   3.857 -0.1134  0.0600 -0.1042
 9579TIP3    H150228   2.398   1.919   3.923 -1.3138  0.1916  0.3526
 9579TIP3    H250229   2.273   1.849   3.874 -0.0903 -1.3880 -0.5581
 9580TIP3   OH250230   3.948   3.774  12.370 -0.2527 -0.3916 -0.2322
 9580TIP3    H150231   3.894   3.707  12.328  0.8107 -1.6790  0.3787
 9580TIP3    H250232   3.974   3.734  12.454  1.7319  0.1284 -0.5729
 9581TIP3   OH250233   1.542   2.532   5.276  0.2334  0.2995  0.3744
 9581TIP3    H150234   1.470   2.537   5.338  0.5920 -2.3039  1.0364
 9581TIP3    H250235   1.618   2.507   5.328  1.2851  1.4354 -0.5762
 9582TIP3   OH250236   5.016   4.550  14.353 -0.0433 -0.3529  0.0189
 9582TIP3    H150237   5.093   4.507  14.390  1.4736  1.6767 -0.6514
 9582TIP3    H250238   4.944   4.522  14.408  1.4524 -0.9397  1.7433
 9583TIP3   OH250239   1.792   3.865  12.393  0.1859 -1.0172  0.1250
 9583TIP3    H150240   1.803   3.771  12.377  3.0929 -0.4321 -1.7154
 9583TIP3    H250241   1.809   3.877  12.486 -0.2534 -2.3014  0.3757
 9584TIP3   OH250242   3.518   5.103  13.889 -0.1902  0.3963  0.5481
 9584TIP3    H150243   3.422   5.104  13.898 -0.3622  1.1344 -1.3513
 9584TIP3    H250244   3.545   5.192  13.908  0.0067  0.4987 -0.2231
 9585TIP3   OH250245   4.249   1.616  12.744  0.3653 -0.1949 -0.2856
 9585TIP3    H150246   4.161   1.584  12.765 -0.3394  0.3138 -2.3404
 9585TIP3    H250247   4.307   1.567  12.802 -1.2867 -0.2643  1.3762
 9586TIP3   OH250248   1.198   3.142  16.209  0.0072 -0.1187  0.4240
 9586TIP3    H150249   1.279   3.131  16.258  0.4859 -2.1698 -0.7512
 9586TIP3    H250250   1.224   3.131  16.117 -1.2313  1.4511 -0.1410
 9587TIP3   OH250251   5.637   3.901  13.030 -0.2392  0.0295  0.0147
 9587TIP3    H150252   5.652   3.824  12.975  0.2715  1.2554 -1.6068
 9587TIP3    H250253   5.708   3.899  13.094 -0.5254 -1.1231  0.3097
 9588TIP3   OH250254   4.669   3.129   2.475  0.5546  0.0368  0.4846
 9588TIP3    H150255   4.747   3.073   2.474  0.3523 -0.2501  0.7591
 9588TIP3    H250256   4.622   3.103   2.554 -0.5857 -0.8444 -0.4645
 9589TIP3   OH250257   3.918   4.375   5.947 -0.1262 -0.1905 -0.1247
 9589TIP3    H150258   3.945   4.296   5.994 -0.5299  0.6237  1.5207
 9589TIP3    H250259   3.846   4.347   5.891  0.9203 -1.3571 -0.8977
 9590TIP3   OH250260   0.791   5.458   3.631 -0.6036  0.4146 -0.3689
 9590TIP3    H150261   0.795   5.552   3.613 -0.9269  0.6465  0.7595
 9590TIP3    H250262   0.700   5.434   3.614 -0.3543  0.1447 -1.3872
 9591TIP3   OH250263   3.962   1.298   3.001  0.6239 -0.0331  0.4410
 9591TIP3    H150264   3.946   1.281   3.094  0.3564  0.4075  0.4802
 9591TIP3    H250265   3.912   1.378   2.983  0.8658  0.0133 -0.0240
 9592TIP3   OH250266   5.098   5.662  10.258 -0.6557 -0.6436 -0.1379
 9592TIP3    H150267   5.131   5.577  10.288  0.7104 -0.0519  0.0478
 9592TIP3    H250268   5.003   5.652  10.258 -0.4725 -2.5633 -1.2813
 9593TIP3   OH250269   1.527   1.458   2.257 -0.3066 -0.2388  0.3127
 9593TIP3    H150270   1.472   1.526   2.217 -0.6814  0.1185  1.4030
 9593TIP3    H250271   1.533   1.484   2.350  0.2572 -1.2315  0.5612
 9594TIP3   OH250272   3.153   1.115   1.731 -0.3086  0.7199 -0.5849
 9594TIP3    H150273   3.096   1.165   1.790 -0.1122 -0.7180  0.8775
 9594TIP3    H250274   3.239   1.119   1.772 -0.3393 -0.9844 -0.3248
 9595TIP3   OH250275   5.416   2.396   0.245  0.5575  0.4468 -0.5427
 9595TIP3    H150276   5.381   2.420   0.160  2.7580  3.9444 -0.5605
 9595TIP3    H250277   5.510   2.413   0.238  0.7189  1.2359  2.6765
 9596TIP3   OH250278   0.980   0.064   4.072  0.2966  0.8454  0.2491
 9596TIP3    H150279   0.914   0.107   4.125  0.5873 -0.7267  1.9701
 9596TIP3    H250280   0.933   0.030   3.996 -0.2639  2.4964 -0.1446
 9597TIP3   OH250281   1.820   6.447  13.965  0.0858 -0.3666  0.5076
 9597TIP3    H150282   1.774   6.504  14.027 -0.8919 -1.6671  1.0259
 9597TIP3    H250283   1.831   6.500  13.886 -1.1289  0.4046  0.8450
 9598TIP3   OH250284   4.104   4.309  14.309 -0.6271 -0.0173  0.4311
 9598TIP3    H150285   4.040   4.379  14.297  0.4412  0.7483 -0.9200
 9598TIP3    H250286   4.069   4.257  14.382 -1.5272  1.8129  1.3416
 9599TIP3   OH250287   1.492   0.902   5.652 -0.3726  0.2408 -0.1379
 9599TIP3    H150288   1.417   0.956   5.677 -0.6967 -0.0879 -0.3996
 9599TIP3    H250289   1.505   0.921   5.559  0.5423  1.1084  0.1458
 9600TIP3   OH250290   5.965   6.761  16.023 -0.7348  0.0900 -0.4155
 9600TIP3    H150291   6.003   6.720  15.946 -2.4078  0.2321 -1.3541
 9600TIP3    H250292   6.040   6.793  16.074  0.3744  0.0812 -2.0254
 9601TIP3   OH250293   0.242   1.195   4.571  0.4312  0.6266 -0.2376
 9601TIP3    H150294   0.226   1.287   4.547  1.1644  1.0596  0.8922
 9601TIP3    H250295   0.269   1.153   4.489 -0.0120  1.3879 -0.7860
 9602TIP3   OH250296   0.502   3.860  11.892  0.2614  0.9364 -0.1014
 9602TIP3    H150297   0.424   3.842  11.839  0.7761 -2.0291  0.0225
 9602TIP3    H250298   0.525   3.950  11.872 -1.9343  1.1553 -1.8105
 9603TIP3   OH250299   5.593   0.238   1.095  0.0369  0.0564  0.2741
 9603TIP3    H150300   5.558   0.313   1.047  1.7305  0.3214 -0.6168
 9603TIP3    H250301   5.593   0.265   1.186 -0.3010  0.7557  0.0678
 9604TIP3   OH250302   1.590   3.932   3.683  0.4018 -0.9931  0.0815
 9604TIP3    H150303   1.522   3.974   3.736  0.5524  0.1801 -0.6358
 9604TIP3    H250304   1.556   3.937   3.594  1.3621 -0.5513 -0.2586
 9605TIP3   OH250305   2.984   4.565  13.478  0.8466  0.1585 -0.6335
 9605TIP3    H150306   2.973   4.636  13.415 -0.3660  0.7456  0.2251
 9605TIP3    H250307   3.023   4.608  13.555 -1.0421  0.1416  0.3443
 9606TIP3   OH250308   0.374   2.327   3.002  0.1077 -0.1499  0.6754
 9606TIP3    H150309   0.425   2.288   2.932 -1.3065  0.1643 -0.5558
 9606TIP3    H250310   0.422   2.405   3.027  0.8439 -0.5005  0.3633
 9607TIP3   OH250311   5.446   5.593  16.922 -0.2523 -0.4574 -0.0218
 9607TIP3    H150312   5.426   5.639  16.841 -1.5389 -0.4600  0.2782
 9607TIP3    H250313   5.427   5.501  16.903  0.8612 -0.6636 -0.1622
 9608TIP3   OH250314   5.750   1.818  14.090  0.1336  0.5634 -0.2129
 9608TIP3    H150315   5.739   1.727  14.063 -2.1003  0.6071  0.4940
 9608TIP3    H250316   5.699   1.868  14.027 -1.0740  1.0708  1.1437
 9609TIP3   OH250317   5.298   3.262   5.326  0.0744 -0.4136 -0.6361
 9609TIP3    H150318   5.274   3.265   5.419  1.3307  1.1117 -0.3496
 9609TIP3    H250319   5.380   3.310   5.320  0.0268 -0.5174 -2.5419
 9610TIP3   OH250320   2.543   3.106   2.948  0.3261  0.5131  0.1938
 9610TIP3    H150321   2.582   3.184   2.908 -1.4696  1.5623  0.4063
 9610TIP3    H250322   2.491   3.140   3.021 -1.8365 -0.6840 -0.7290
 9611TIP3   OH250323   1.731   3.372  14.890  0.3133  0.3167 -0.0109
 9611TIP3    H150324   1.766   3.287  14.916 -1.0396  0.0843  1.0716
 9611TIP3    H250325   1.808   3.425  14.870  1.1642 -1.1399 -0.6365
 9612TIP3   OH250326   6.164   1.668   2.651 -0.4104 -0.5302 -0.1628
 9612TIP3    H150327   6.221   1.608   2.602  0.0272  0.3475 -0.7351
 9612TIP3    H250328   6.105   1.704   2.585  0.1272  0.5980 -0.0297
 9613TIP3   OH250329   4.243   3.193  13.290 -0.5281  0.2438 -0.8712
 9613TIP3    H150330   4.231   3.252  13.216  1.0723  1.2482 -0.3594
 9613TIP3    H250331   4.185   3.119  13.271 -2.1545  1.7042 -1.7913
 9614TIP3   OH250332   0.008   5.478   0.408 -0.2883 -0.4784  0.0975
 9614TIP3    H150333  -0.088   5.475   0.415 -0.2462 -3.3727  0.3012
 9614TIP3    H250334   0.027   5.424   0.331  1.0930  2.1256 -1.4665
 9615TIP3   OH250335   5.492   5.200  11.657  0.0402  0.3637 -0.2890
 9615TIP3    H150336   5.414   5.182  11.605 -0.7739 -0.1770  1.0992
 9615TIP3    H250337   5.560   5.144  11.618 -0.0860  1.2584 -1.8593
 9616TIP3   OH250338   3.368   5.682  16.618 -0.4813  0.2050  0.1341
 9616TIP3    H150339   3.322   5.765  16.631 -1.0664 -0.1244  0.1885
 9616TIP3    H250340   3.349   5.657  16.527  0.5297  0.6292 -0.2094
 9617TIP3   OH250341   5.617   3.528   3.286 -0.3578  0.3695 -0.6413
 9617TIP3    H150342   5.577   3.496   3.367  2.7655 -0.0809  0.8004
 9617TIP3    H250343   5.678   3.596   3.315  0.1221  0.8602 -2.7204
 9618TIP3   OH250344   5.249   2.495  14.450  0.0540 -0.4569  0.2710
 9618TIP3    H150345   5.326   2.442  14.428  0.4324  0.7150 -1.3354
 9618TIP3    H250346   5.259   2.515  14.543  2.8382  1.5068 -0.4124
 9619TIP3   OH250347   0.772   1.881  15.200  0.3115  0.1054 -0.1756
 9619TIP3    H150348   0.823   1.902  15.278 -0.2770  0.1350  0.2086
 9619TIP3    H250349   0.837   1.866  15.132  0.8076  0.9932  0.0954
 9620TIP3   OH250350   1.491   1.679   3.060 -0.5670  0.7973 -0.1511
 9620TIP3    H150351   1.583   1.662   3.043 -0.2115  0.4457  1.9365
 9620TIP3    H250352   1.491   1.749   3.126 -1.6100 -2.2007  3.1983
 9621TIP3   OH250353   1.904   4.407   4.077  0.6894  0.4592  0.6579
 9621TIP3    H150354   1.867   4.494   4.062 -1.1314 -0.3777  0.1674
 9621TIP3    H250355   1.965   4.394   4.004  2.6181  2.1582  1.8862
 9622TIP3   OH250356   1.487   1.816  13.716 -0.0905  0.1438  0.6129
 9622TIP3    H150357   1.428   1.746  13.689  1.1238 -0.6771  0.0270
 9622TIP3    H250358   1.452   1.846  13.799 -1.3396 -0.3213  0.2707
 9623TIP3   OH250359   1.272   1.982  14.395  0.2484  1.1770  0.2159
 9623TIP3    H150360   1.360   2.016  14.412  0.7104  1.2875 -2.2364
 9623TIP3    H250361   1.220   2.059  14.371 -0.4792  1.0795  1.4277
 9624TIP3   OH250362   3.856   5.783  17.132  0.3042  0.2000 -0.0331
 9624TIP3    H150363   3.913   5.820  17.200 -1.8832  0.8111  1.5329
 9624TIP3    H250364   3.863   5.844  17.059  0.6079  1.0132  0.6671
 9625TIP3   OH250365   4.080   6.161  11.378 -0.0650 -0.2878  0.3002
 9625TIP3    H150366   4.030   6.106  11.318 -0.1225  0.0797  0.0152
 9625TIP3    H250367   4.101   6.240  11.328  1.5326 -0.7864  0.1367
 9626TIP3   OH250368   2.494   1.366  12.985 -0.1504  0.6307 -0.1296
 9626TIP3    H150369   2.459   1.277  12.993 -0.5199  0.5891 -1.8989
 9626TIP3    H250370   2.494   1.400  13.074  1.8881 -1.8305  0.8647
 9627TIP3   OH250371   5.888   5.038  12.188  0.2324 -0.1711 -0.2840
 9627TIP3    H150372   5.874   4.998  12.102 -2.5829  0.2877 -0.0843
 9627TIP3    H250373   5.822   4.997  12.245  0.3961  1.3585  1.0553
 9628TIP3   OH250374   6.565   5.342   1.517 -0.4244 -0.3099 -0.2080
 9628TIP3    H150375   6.505   5.281   1.559 -1.2731  0.5548 -0.1482
 9628TIP3    H250376   6.625   5.287   1.467 -0.5171 -1.2431  0.7007
 9629TIP3   OH250377   5.307   2.057   1.433 -0.5383  0.9754  0.1529
 9629TIP3    H150378   5.301   2.037   1.340 -0.4539 -0.2060  0.3855
 9629TIP3    H250379   5.231   2.014   1.472  0.1070  0.3871  0.7937
 9630TIP3   OH250380   0.422   1.443  12.006  0.0969 -0.1882 -0.0587
 9630TIP3    H150381   0.447   1.423  12.096 -1.6235  0.9830  0.7130
 9630TIP3    H250382   0.433   1.361  11.959  2.7711 -0.3694  0.7879
 9631TIP3   OH250383   1.037   3.686  15.595 -0.0547 -0.0846  0.5447
 9631TIP3    H150384   1.127   3.685  15.562 -0.5417  2.9437 -1.0541
 9631TIP3    H250385   0.997   3.607  15.557  1.5694 -0.8199  0.3029
 9632TIP3   OH250386   5.114   6.813   3.767  0.3313  0.6312 -0.6207
 9632TIP3    H150387   5.099   6.720   3.781 -2.4813  1.2859  1.0287
 9632TIP3    H250388   5.180   6.837   3.833  0.6197 -0.0376 -0.6636
 9633TIP3   OH250389   3.285   5.633   1.109 -0.3419  0.1330 -0.4721
 9633TIP3    H150390   3.198   5.663   1.135 -0.9097 -1.8844  0.0937
 9633TIP3    H250391   3.273   5.602   1.019 -0.2763 -0.3568 -0.3147
 9634TIP3   OH250392   0.233   5.558   0.050  0.6348  0.1595 -0.1564
 9634TIP3    H150393   0.164   5.617   0.019  0.7792  0.1363 -0.5266
 9634TIP3    H250394   0.220   5.554   0.144  1.6400  2.1000  0.1004
 9635TIP3   OH250395   4.614   5.267   4.378 -0.2908  0.2453 -0.5236
 9635TIP3    H150396   4.534   5.241   4.423  0.3141  0.6646  0.8362
 9635TIP3    H250397   4.584   5.313   4.299 -1.3683 -0.6873 -0.6576
 9636TIP3   OH250398   0.026   4.481   2.100  0.1164 -0.0664  0.2080
 9636TIP3    H150399  -0.067   4.498   2.082 -0.2722 -1.5760  0.6978
 9636TIP3    H250400   0.071   4.558   2.066 -1.2437  0.3173 -0.7929
 9637TIP3   OH250401   3.297   6.388  13.593  0.2729 -0.3301  0.0865
 9637TIP3    H150402   3.204   6.365  13.583  0.3158 -0.4131 -0.1128
 9637TIP3    H250403   3.295   6.476  13.632  0.1030  0.3107 -1.3397
 9638TIP3   OH250404   1.053   5.023  14.002  0.2893  0.2675  0.1822
 9638TIP3    H150405   1.107   4.952  13.969  2.9398  1.0035  2.6956
 9638TIP3    H250406   0.984   4.980  14.052 -0.1895 -0.6127 -1.2143
 9639TIP3   OH250407   0.749   6.491  14.848  0.1104 -0.0616 -0.2395
 9639TIP3    H150408   0.808   6.453  14.782 -1.0949  1.1333 -2.0412
 9639TIP3    H250409   0.803   6.556  14.894  0.6986 -0.2590 -0.6454
 9640TIP3   OH250410   6.759   0.736  15.698 -0.0173 -0.4775  0.0422
 9640TIP3    H150411   6.797   0.659  15.740  0.5450 -0.9508 -1.3062
 9640TIP3    H250412   6.804   0.742  15.613 -0.1501  1.2507  0.0657
 9641TIP3   OH250413   2.865   5.071  15.509  0.2948  0.0444 -0.3386
 9641TIP3    H150414   2.849   5.134  15.439  0.2033  1.6536  1.1016
 9641TIP3    H250415   2.920   5.118  15.572 -0.6829 -0.9286  1.2795
 9642TIP3   OH250416   4.633   0.946  16.054 -0.4763 -0.3503 -0.0276
 9642TIP3    H150417   4.593   0.869  16.015 -0.4828  0.1188 -0.9804
 9642TIP3    H250418   4.700   0.973  15.990 -1.6066  1.3987 -0.5305
 9643TIP3   OH250419   3.999   2.342  11.694  0.1743  0.5071  0.1369
 9643TIP3    H150420   3.979   2.433  11.671 -0.5632  1.4631  4.1303
 9643TIP3    H250421   4.092   2.344  11.718 -0.0328  0.3798  0.9567
 9644TIP3   OH250422   3.915   5.031  13.656 -0.6750  0.0623  0.4566
 9644TIP3    H150423   3.897   4.944  13.692  0.2805  0.2912  1.4930
 9644TIP3    H250424   3.828   5.067  13.636 -1.1243 -0.7461  0.9362
 9645TIP3   OH250425   3.228   6.362   3.397 -0.0051 -0.4177  0.7890
 9645TIP3    H150426   3.195   6.452   3.400  2.0013  0.4970 -1.9935
 9645TIP3    H250427   3.181   6.321   3.325  1.3875 -0.5882 -0.0411
 9646TIP3   OH250428   2.069   5.793   0.590  0.1527 -0.2674 -0.3327
 9646TIP3    H150429   2.015   5.732   0.641  0.2218 -0.2441 -0.2343
 9646TIP3    H250430   2.012   5.818   0.516 -0.6433  1.1867  0.7480
 9647TIP3   OH250431   3.929   3.920  15.766 -0.2276 -0.7445 -0.4455
 9647TIP3    H150432   3.851   3.930  15.821  1.3836  0.0293  1.7595
 9647TIP3    H250433   3.912   3.975  15.690 -1.6598 -0.2807  0.1975
 9648TIP3   OH250434   6.069   1.076   2.938  0.3246  0.0344  0.0630
 9648TIP3    H150435   6.091   0.985   2.917  2.0996  0.5831 -0.5771
 9648TIP3    H250436   5.986   1.091   2.893  0.3120 -1.0943 -0.3186
 9649TIP3   OH250437   3.011   1.694   1.538 -0.3155  0.7957  0.7228
 9649TIP3    H150438   3.035   1.731   1.623  1.1479 -0.1321  0.7354
 9649TIP3    H250439   3.067   1.617   1.529 -1.5443  0.0269 -0.4160
 9650TIP3   OH250440   0.677   3.543  14.390 -0.3817 -0.1325  0.4107
 9650TIP3    H150441   0.617   3.599  14.341  0.0147  0.9345  1.1174
 9650TIP3    H250442   0.729   3.498  14.323  1.1071  2.3374 -0.1767
 9651TIP3   OH250443   3.276   4.951   2.100  0.5312  0.4245 -0.3798
 9651TIP3    H150444   3.269   4.956   2.195  1.1607  2.9967 -0.4236
 9651TIP3    H250445   3.187   4.968   2.069  0.3373 -0.3582 -0.2509
 9652TIP3   OH250446   2.456   4.513   0.440  0.2706  0.3500  0.4332
 9652TIP3    H150447   2.422   4.599   0.417  0.0035  0.4517  1.1915
 9652TIP3    H250448   2.496   4.480   0.359 -0.5575  0.7376 -0.1381
 9653TIP3   OH250449   3.737   4.210  15.847  0.0527 -0.0849  0.2899
 9653TIP3    H150450   3.668   4.157  15.807  0.1844  0.5529 -0.8142
 9653TIP3    H250451   3.690   4.278  15.895 -0.1074 -0.7446  1.0589
 9654TIP3   OH250452   6.128   2.582   3.530 -0.0587  0.5589  0.1438
 9654TIP3    H150453   6.094   2.654   3.476 -0.3787  0.4099  0.1483
 9654TIP3    H250454   6.107   2.503   3.482 -0.6669  0.4029  0.6605
 9655TIP3   OH250455   2.192   6.768   2.010 -0.5007  0.0338 -0.0878
 9655TIP3    H150456   2.282   6.772   1.977  0.6220 -1.2294  2.5893
 9655TIP3    H250457   2.150   6.700   1.958 -0.1317  1.1136 -1.8327
 9656TIP3   OH250458   5.367   4.091   2.251 -0.1060  0.0795  0.1133
 9656TIP3    H150459   5.395   4.005   2.219  0.0334  0.1812 -0.0383
 9656TIP3    H250460   5.378   4.086   2.346 -2.0927 -0.8081  0.3436
 9657TIP3   OH250461   5.170   4.665   2.707 -0.2829  0.2969 -0.0494
 9657TIP3    H150462   5.166   4.570   2.699 -0.0201 -0.1251  3.8666
 9657TIP3    H250463   5.078   4.693   2.710 -0.4056 -0.2356  2.1481
 9658TIP3   OH250464   4.952   5.169  16.566  0.4324 -0.5147  0.2691
 9658TIP3    H150465   4.993   5.166  16.480 -1.0848  0.4924 -0.5121
 9658TIP3    H250466   5.002   5.234  16.615  0.1954  0.2052 -0.4472
 9659TIP3   OH250467   1.288   1.456   0.149  1.0917  0.0366  0.4977
 9659TIP3    H150468   1.303   1.533   0.205 -0.0166 -0.9791  2.2546
 9659TIP3    H250469   1.249   1.391   0.208 -0.2900 -1.0143 -1.5202
 9660TIP3   OH250470   5.104   3.344   1.407  0.1578 -0.2030  0.2298
 9660TIP3    H150471   5.054   3.397   1.345  0.0801 -0.6784 -0.1130
 9660TIP3    H250472   5.163   3.407   1.450 -0.1328  0.2094  0.0289
 9661TIP3   OH250473   2.522   1.818  11.478 -0.3346 -0.4752 -0.4228
 9661TIP3    H150474   2.571   1.750  11.524 -0.3589 -0.7000 -0.7259
 9661TIP3    H250475   2.438   1.823  11.524 -0.5251 -1.0023 -0.7074
 9662TIP3   OH250476   6.730   3.715   3.941  0.6019  0.2174  0.5405
 9662TIP3    H150477   6.676   3.695   4.017 -2.7223 -0.4745 -1.9101
 9662TIP3    H250478   6.713   3.808   3.924 -0.4381 -0.1980 -0.7043
 9663TIP3   OH250479   2.349   3.144  12.396 -0.0462 -0.1871  0.0636
 9663TIP3    H150480   2.402   3.164  12.473  1.1449 -0.2665 -0.7113
 9663TIP3    H250481   2.363   3.051  12.381  0.5970  0.0456 -0.8660
 9664TIP3   OH250482   4.096   3.509  14.532 -0.5248  0.3648 -0.2057
 9664TIP3    H150483   4.019   3.456  14.510 -1.0016  0.0275  2.2020
 9664TIP3    H250484   4.170   3.452  14.512 -1.0402 -1.5216  2.9754
 9665TIP3   OH250485   5.245   1.993  14.407 -0.1244 -0.3430 -0.0835
 9665TIP3    H150486   5.177   2.023  14.347  1.2536  1.2479 -0.8757
 9665TIP3    H250487   5.282   1.916  14.364 -1.5882 -1.3840  0.4819
 9666TIP3   OH250488   5.738   2.397  13.888 -0.1853  0.0061 -0.1516
 9666TIP3    H150489   5.717   2.453  13.813  1.5973  0.9007 -0.0088
 9666TIP3    H250490   5.699   2.313  13.866 -0.2031  0.4236 -1.8144
 9667TIP3   OH250491   1.060   6.393  11.349 -0.2742  0.0005 -0.1178
 9667TIP3    H150492   1.050   6.474  11.299  0.9095  1.0943  1.3883
 9667TIP3    H250493   1.048   6.324  11.284  1.1661  1.3953 -1.9261
 9668TIP3   OH250494   2.209   4.133  15.294  0.0478  0.0842  0.2174
 9668TIP3    H150495   2.264   4.210  15.310  1.1312 -0.8253  0.9614
 9668TIP3    H250496   2.119   4.165  15.301  0.4962  1.2636  0.6189
 9669TIP3   OH250497   0.376   4.243  15.512  0.1898  0.6219  0.0416
 9669TIP3    H150498   0.321   4.287  15.577 -1.0655  1.1672 -1.3824
 9669TIP3    H250499   0.397   4.159  15.553  0.4565  1.4577  1.6822
 9670TIP3   OH250500   1.343   1.990  14.897  1.1635 -0.3094 -0.1741
 9670TIP3    H150501   1.392   1.999  14.978 -0.0653 -2.0198  0.7689
 9670TIP3    H250502   1.291   2.070  14.892  2.6787  0.6896 -0.2764
 9671TIP3   OH250503   1.278   2.723   5.742 -0.3710  0.5375  0.4326
 9671TIP3    H150504   1.213   2.667   5.783 -0.4084  0.6077  0.4685
 9671TIP3    H250505   1.230   2.771   5.674  0.3014 -1.8975 -1.8773
 9672TIP3   OH250506   6.343   2.042   2.454 -0.3757  0.5864 -0.4862
 9672TIP3    H150507   6.432   2.005   2.458 -0.5869  0.2375  1.0423
 9672TIP3    H250508   6.316   2.026   2.363  0.6793 -0.3516 -0.6587
 9673TIP3   OH250509   2.390   4.079  15.806  0.0947  0.6527  0.1788
 9673TIP3    H150510   2.429   4.021  15.741 -3.2788  0.0830 -1.4366
 9673TIP3    H250511   2.460   4.092  15.871  2.6998 -0.7875 -2.2091
 9674TIP3   OH250512   0.180   3.967   5.483  0.0110 -0.0415  0.3121
 9674TIP3    H150513   0.158   3.954   5.576 -0.6560  3.1584  0.6750
 9674TIP3    H250514   0.095   3.971   5.439  0.0837  3.2046  0.3378
 9675TIP3   OH250515   2.386   4.830   2.382  0.5892 -0.0978 -0.2711
 9675TIP3    H150516   2.460   4.879   2.346  1.4341 -0.2806  1.1651
 9675TIP3    H250517   2.426   4.755   2.426 -0.6078 -1.3821 -1.3240
 9676TIP3   OH250518   3.421   1.210  16.577 -0.2627 -0.0853 -0.1414
 9676TIP3    H150519   3.342   1.155  16.574 -0.9242  0.8031  0.6991
 9676TIP3    H250520   3.482   1.166  16.518 -1.0598 -1.2910 -0.1065
 9677TIP3   OH250521   4.001   2.287  13.887  0.1456  0.3712 -0.2894
 9677TIP3    H150522   4.068   2.352  13.863  0.9253  0.9026  2.9767
 9677TIP3    H250523   4.047   2.203  13.883  0.9193  0.6898  1.4986
 9678TIP3   OH250524   5.466   0.088   3.726 -0.6573  0.7049 -0.6589
 9678TIP3    H150525   5.454   0.108   3.818  0.0092  0.5859 -0.5423
 9678TIP3    H250526   5.470  -0.007   3.722 -1.2340  0.6837 -0.8861
 9679TIP3   OH250527   4.415   3.195   1.882  0.8484 -0.4915  0.5308
 9679TIP3    H150528   4.323   3.170   1.873  0.6024  1.0399 -1.4475
 9679TIP3    H250529   4.459   3.114   1.908 -0.7402 -1.7209 -0.5103
 9680TIP3   OH250530   1.790   6.243  12.592 -0.1750  0.2540  0.0652
 9680TIP3    H150531   1.882   6.218  12.590  0.1095  1.3207 -1.2387
 9680TIP3    H250532   1.759   6.225  12.503 -0.8717  1.1721  0.1162
 9681TIP3   OH250533   5.407   2.855   2.509  0.3432  0.5981 -0.6008
 9681TIP3    H150534   5.457   2.921   2.461 -0.5167  2.3638  0.8914
 9681TIP3    H250535   5.441   2.858   2.598 -1.2795  0.6533  0.0382
 9682TIP3   OH250536   1.539   3.826   3.991 -0.2947  0.0095 -0.9714
 9682TIP3    H150537   1.484   3.776   3.930 -0.0466 -1.5232  0.0456
 9682TIP3    H250538   1.480   3.849   4.063 -0.3400  0.9838 -1.3083
 9683TIP3   OH250539   0.846   0.885  13.073  0.0772 -0.7313 -0.7131
 9683TIP3    H150540   0.781   0.940  13.116  0.7774 -0.4689  0.0316
 9683TIP3    H250541   0.868   0.932  12.993  0.0799 -0.3213 -0.4738
 9684TIP3   OH250542   3.702   0.033  10.690 -0.2030  0.2454 -0.0888
 9684TIP3    H150543   3.647   0.027  10.612  0.9546  0.5443 -0.9341
 9684TIP3    H250544   3.791   0.039  10.657  0.2585  0.9929  1.2428
 9685TIP3   OH250545   6.744   3.112  12.096 -0.1482 -0.2146  0.2085
 9685TIP3    H150546   6.698   3.047  12.042 -2.6264  0.6332  1.2436
 9685TIP3    H250547   6.683   3.133  12.166  1.1154  2.3245  0.6120
 9686TIP3   OH250548   2.713   1.642  11.697  0.4545 -0.0753 -0.2409
 9686TIP3    H150549   2.749   1.563  11.657  2.0562  0.2512  0.5148
 9686TIP3    H250550   2.725   1.628  11.791 -0.3664  0.5364 -0.0503
 9687TIP3   OH250551   4.178   0.344   0.434 -0.2115 -0.3471 -0.1286
 9687TIP3    H150552   4.126   0.361   0.356  1.3769  0.7851 -0.9627
 9687TIP3    H250553   4.188   0.430   0.475 -0.3741 -0.8169  0.9154
 9688TIP3   OH250554   4.678   6.167   1.528 -0.1079 -0.1169  0.1377
 9688TIP3    H150555   4.771   6.181   1.541 -0.5732  1.2413  2.2568
 9688TIP3    H250556   4.645   6.142   1.615 -1.9224  0.6116 -0.3108
 9689TIP3   OH250557   0.553   5.611   5.913  0.7254 -0.3890 -0.3028
 9689TIP3    H150558   0.599   5.533   5.881  2.7660  1.6095 -2.3524
 9689TIP3    H250559   0.606   5.641   5.987  1.9367  1.0731 -1.7462
 9690TIP3   OH250560   6.757   3.434  11.386 -0.5646 -0.2628  0.0041
 9690TIP3    H150561   6.709   3.513  11.410 -0.7876 -0.7869  1.3159
 9690TIP3    H250562   6.734   3.419  11.294  0.6875  2.0575 -0.7453
 9691TIP3   OH250563   3.688   3.209  15.391  0.1520  0.4524  0.3875
 9691TIP3    H150564   3.711   3.129  15.343  1.6198 -0.1391  2.0391
 9691TIP3    H250565   3.601   3.233  15.358  0.0121 -1.4111 -0.6440
 9692TIP3   OH250566   5.507   3.447   5.358  0.0341 -0.2755  0.6782
 9692TIP3    H150567   5.557   3.383   5.408  0.1128 -0.6481  0.1292
 9692TIP3    H250568   5.570   3.516   5.337 -0.5232  1.0236  3.0337
 9693TIP3   OH250569   6.317   3.421  12.590 -1.0764  0.0373  0.9406
 9693TIP3    H150570   6.396   3.404  12.540 -1.5982 -0.7195  0.3693
 9693TIP3    H250571   6.343   3.489  12.653 -0.5378  1.2979 -0.6065
 9694TIP3   OH250572   1.372   5.884  17.009 -0.3847  0.1202 -0.3412
 9694TIP3    H150573   1.375   5.954  17.074 -3.0616 -1.4013  1.5091
 9694TIP3    H250574   1.319   5.920  16.938  0.2434  0.8175 -0.4618
 9695TIP3   OH250575   2.864   0.599  16.070 -0.0810  0.5478  0.3555
 9695TIP3    H150576   2.958   0.581  16.065  0.0032  0.6319  1.3667
 9695TIP3    H250577   2.826   0.558  15.993  0.5956 -0.7892  0.7294
 9696TIP3   OH250578   6.521   3.839   4.449 -0.4986 -0.3177  0.6957
 9696TIP3    H150579   6.499   3.746   4.440 -0.3742 -0.2712 -0.0656
 9696TIP3    H250580   6.504   3.858   4.541 -2.1990 -0.6576  0.4574
 9697TIP3   OH250581   1.568   3.755   1.761  0.1556  0.3793 -0.3831
 9697TIP3    H150582   1.581   3.660   1.761 -1.0401  0.1898 -2.0141
 9697TIP3    H250583   1.550   3.777   1.670 -0.7139  2.0165  0.1526
 9698TIP3   OH250584   4.196   3.886  14.155 -0.1154 -0.2200 -0.1661
 9698TIP3    H150585   4.155   3.936  14.085  2.1154 -0.1285 -1.4623
 9698TIP3    H250586   4.169   3.796  14.141 -0.7322 -0.0041 -0.3558
 9699TIP3   OH250587   0.141   3.464  16.350 -0.0247 -0.1154 -0.5079
 9699TIP3    H150588   0.057   3.444  16.391  0.2781  0.8750  0.6117
 9699TIP3    H250589   0.189   3.514  16.416  1.5745 -0.9480 -1.0091
 9700TIP3   OH250590   6.361   5.166   3.199  0.0803  0.6516  0.4306
 9700TIP3    H150591   6.438   5.181   3.144  0.7342 -0.6402  0.9796
 9700TIP3    H250592   6.389   5.188   3.287 -0.4129  0.9291  0.5192
 9701TIP3   OH250593   6.705   0.258   5.581 -0.1784  0.5567  0.2097
 9701TIP3    H150594   6.739   0.198   5.514  0.7413  1.6176 -0.2984
 9701TIP3    H250595   6.773   0.261   5.647 -0.2616  0.9658  0.2771
 9702TIP3   OH250596   6.372   3.371  15.550  0.0402 -0.3238 -0.4594
 9702TIP3    H150597   6.390   3.439  15.614  0.3430  0.1003 -0.9855
 9702TIP3    H250598   6.394   3.411  15.466 -1.4512 -0.4923 -0.9381
 9703TIP3   OH250599   3.383   4.422  11.388 -0.1764 -0.6514  0.1232
 9703TIP3    H150600   3.372   4.351  11.325  0.6665 -0.5681 -0.1206
 9703TIP3    H250601   3.458   4.472  11.356 -0.5858  0.1833  0.4454
 9704TIP3   OH250602   0.929   0.605  13.012 -0.1131  0.1284 -0.4641
 9704TIP3    H150603   1.018   0.641  13.011 -0.5015  1.1445  0.6001
 9704TIP3    H250604   0.875   0.674  13.050 -0.8003 -1.7216  2.1424
 9705TIP3   OH250605   3.977   3.223   2.891  0.3399 -0.2147 -0.4012
 9705TIP3    H150606   3.893   3.244   2.849  0.3807 -0.2181 -0.4853
 9705TIP3    H250607   4.009   3.307   2.924  0.7713 -0.0423 -1.2273
 9706TIP3   OH250608   5.550   3.298   4.316 -0.2122  0.5850 -0.2272
 9706TIP3    H150609   5.639   3.270   4.336 -0.8641  0.2935  2.4636
 9706TIP3    H250610   5.496   3.220   4.327 -1.1289  1.3269  0.7580
 9707TIP3   OH250611   6.542   0.658  11.745  0.0377 -0.4793 -0.2297
 9707TIP3    H150612   6.505   0.741  11.775  0.2463  1.3106 -4.5323
 9707TIP3    H250613   6.491   0.637  11.666  2.3026 -2.6168 -1.1653
 9708TIP3   OH250614   1.861   4.050  15.234 -0.7558 -0.5764  0.2745
 9708TIP3    H150615   1.932   4.006  15.186 -0.6629 -0.6115  0.4438
 9708TIP3    H250616   1.903   4.084  15.313 -0.9956 -0.8866  0.5383
 9709TIP3   OH250617   2.552   6.548  11.503 -0.2922  0.0697 -0.0697
 9709TIP3    H150618   2.632   6.527  11.552 -0.7307 -0.6515  0.3332
 9709TIP3    H250619   2.502   6.605  11.561  0.2089  1.0422 -0.5728
 9710TIP3   OH250620   6.657   4.752  17.268  0.0486  0.6033  0.0094
 9710TIP3    H150621   6.727   4.816  17.252 -0.5110  0.9483 -1.1725
 9710TIP3    H250622   6.582   4.805  17.293 -0.4625  0.4346 -1.1274
 9711TIP3   OH250623   2.376   4.500  17.008 -0.2775  0.1338 -0.4336
 9711TIP3    H150624   2.291   4.456  17.005  1.9163 -4.1693 -1.9155
 9711TIP3    H250625   2.408   4.484  17.097 -0.3645  0.6227 -0.3037
 9712TIP3   OH250626   2.874   1.188   0.384 -0.5285 -0.2880 -0.0282
 9712TIP3    H150627   2.847   1.222   0.298  1.8374 -0.2966 -0.8123
 9712TIP3    H250628   2.913   1.103   0.364  0.4656 -0.0805  1.0120
 9713TIP3   OH250629   0.884   5.327   0.668 -0.6173 -0.1847  0.0541
 9713TIP3    H150630   0.927   5.289   0.592 -1.5312 -1.2144  0.0487
 9713TIP3    H250631   0.840   5.405   0.634 -1.6517 -1.0609 -0.6219
 9714TIP3   OH250632   5.806   4.782  14.431  0.6275 -0.0829  0.0319
 9714TIP3    H150633   5.806   4.785  14.335  1.1490 -2.1127 -0.0678
 9714TIP3    H250634   5.887   4.735  14.453 -0.5139 -1.4727  1.3709
 9715TIP3   OH250635   0.690   2.804  15.698  0.0054  0.2173 -0.1955
 9715TIP3    H150636   0.768   2.786  15.645 -0.7868  1.3509 -1.7915
 9715TIP3    H250637   0.697   2.745  15.773  1.6083 -0.7843 -1.1248
 9716TIP3   OH250638   6.767   1.697  13.171  0.4316  0.5166 -0.0138
 9716TIP3    H150639   6.735   1.650  13.095  0.2410  0.0267  0.3669
 9716TIP3    H250640   6.745   1.641  13.246  1.6024  0.4628  0.3083
 9717TIP3   OH250641   3.437   2.142   4.540 -0.0789 -0.3544  0.3126
 9717TIP3    H150642   3.448   2.211   4.606  1.8284 -0.5804  0.2621
 9717TIP3    H250643   3.394   2.071   4.587 -0.6459  0.2783  0.7699
 9718TIP3   OH250644   4.829   2.892   4.044 -0.5095 -0.0203  0.1603
 9718TIP3    H150645   4.754   2.833   4.050 -0.9550  0.5311  0.0841
 9718TIP3    H250646   4.790   2.977   4.022  0.4223 -0.4859 -3.6641
 9719TIP3   OH250647   4.552   5.547  13.922  0.2148  0.0671 -0.0930
 9719TIP3    H150648   4.487   5.609  13.955 -0.3818 -1.0504  0.8578
 9719TIP3    H250649   4.631   5.566  13.973 -0.1176 -0.2973  0.5617
 9720TIP3   OH250650   0.893   3.983   5.045  0.1030 -0.2999 -0.4208
 9720TIP3    H150651   0.863   3.896   5.074 -0.3971 -0.5596 -1.6980
 9720TIP3    H250652   0.939   3.967   4.964  1.4530  0.4466  0.1892
 9721TIP3   OH250653   0.213   2.312   3.415 -0.0144 -0.7598  0.0636
 9721TIP3    H150654   0.139   2.289   3.358  0.2930 -1.1884 -0.1722
 9721TIP3    H250655   0.230   2.231   3.464 -0.3167 -0.3711  0.8049
 9722TIP3   OH250656   0.207   0.802  17.211 -0.6029  0.0507  0.4505
 9722TIP3    H150657   0.211   0.862  17.136  0.7433  0.2554  0.6708
 9722TIP3    H250658   0.260   0.844  17.278  2.4898 -2.5317 -0.2421
 9723TIP3   OH250659   1.577   4.083   5.273 -0.5491 -0.1059  0.2402
 9723TIP3    H150660   1.558   4.088   5.367 -1.7247  2.3008 -0.0801
 9723TIP3    H250661   1.532   4.005   5.244 -1.6270  0.0682  1.3799
 9724TIP3   OH250662   2.364   2.848   5.254 -0.2354  0.5721  0.0506
 9724TIP3    H150663   2.345   2.857   5.161  4.4594 -0.0292 -1.0709
 9724TIP3    H250664   2.421   2.922   5.275  1.2398 -0.9642  1.6917
 9725TIP3   OH250665   4.672   3.446   4.223 -0.2799 -0.4621 -0.3279
 9725TIP3    H150666   4.662   3.361   4.266 -2.3343  0.7713  1.7559
 9725TIP3    H250667   4.752   3.483   4.260 -0.0909 -0.9369 -0.2661
 9726TIP3   OH250668   0.536   4.363   2.167 -0.2703 -0.0630 -0.0652
 9726TIP3    H150669   0.544   4.419   2.090  1.1010 -0.8398 -0.4907
 9726TIP3    H250670   0.471   4.408   2.222 -0.0517  1.3417 -0.9237
 9727TIP3   OH250671   5.415   5.902   3.098  0.1534  0.0580 -0.1262
 9727TIP3    H150672   5.474   5.897   3.023  0.0268 -0.8758 -0.1705
 9727TIP3    H250673   5.339   5.950   3.066  0.1887 -0.1577 -0.5407
 9728TIP3   OH250674   0.203   6.407   3.582  0.0893  0.1647  0.0265
 9728TIP3    H150675   0.260   6.471   3.539  0.6846 -0.4571 -0.1228
 9728TIP3    H250676   0.135   6.460   3.624  0.2701  0.8603 -0.5430
 9729TIP3   OH250677   1.955   3.266   1.586  0.3660  0.1847  0.3228
 9729TIP3    H150678   1.944   3.174   1.610 -1.0482  0.6548  1.5285
 9729TIP3    H250679   1.924   3.272   1.496  0.0932 -0.4291  0.3764
 9730TIP3   OH250680   3.225   0.888   5.185 -0.0451  0.3308 -0.1327
 9730TIP3    H150681   3.283   0.892   5.109  1.7995  1.4782  1.3129
 9730TIP3    H250682   3.172   0.967   5.179 -2.0001 -1.0497 -1.8249
 9731TIP3   OH250683   6.606   6.253   1.024  0.0793 -0.1217  0.6626
 9731TIP3    H150684   6.515   6.243   1.051  0.2452 -0.0939  1.2384
 9731TIP3    H250685   6.615   6.346   1.003  0.2512  0.0846  1.6270
 9732TIP3   OH250686   3.757   2.897  12.284 -0.1626 -0.1217 -0.0444
 9732TIP3    H150687   3.673   2.939  12.266 -0.2209  0.0863  0.7102
 9732TIP3    H250688   3.814   2.969  12.312 -0.0242 -0.4226  0.4505
 9733TIP3   OH250689   3.312   0.165   5.997 -0.4091 -0.3524 -0.0095
 9733TIP3    H150690   3.292   0.256   6.019  0.2618 -0.4196  0.9023
 9733TIP3    H250691   3.226   0.125   5.981 -0.8392  0.0069  1.3133
 9734TIP3   OH250692   3.300   5.799  12.144 -0.2266 -0.1416 -0.0955
 9734TIP3    H150693   3.319   5.885  12.108  1.2526  0.2107  1.4787
 9734TIP3    H250694   3.378   5.775  12.193 -1.3115 -1.5809  0.9925
 9735TIP3   OH250695   5.894   4.794  12.916 -0.2501 -0.2127  0.2574
 9735TIP3    H150696   5.826   4.818  12.852 -1.8599 -0.5241  1.8210
 9735TIP3    H250697   5.939   4.876  12.935  0.4294 -0.1572 -1.4537
 9736TIP3   OH250698   2.792   6.680   3.287 -0.3070 -0.6602 -0.4506
 9736TIP3    H150699   2.738   6.755   3.310 -0.9991 -1.3526  0.2302
 9736TIP3    H250700   2.767   6.612   3.349  1.3985 -0.9889 -0.0968
 9737TIP3   OH250701   6.769   5.275  14.421  0.1018  0.3189  0.3213
 9737TIP3    H150702   6.835   5.342  14.402  1.5682 -1.1727  0.0724
 9737TIP3    H250703   6.788   5.247  14.510  0.6200 -1.0094 -0.1946
 9738TIP3   OH250704   4.053   2.564   5.091 -0.0580  0.0516 -0.0182
 9738TIP3    H150705   4.000   2.510   5.149 -0.7931 -0.9000 -1.5252
 9738TIP3    H250706   4.139   2.566   5.132 -1.1363  1.2742  2.2459
 9739TIP3   OH250707   6.600   6.265   1.340  0.5112 -0.3148 -0.7397
 9739TIP3    H150708   6.646   6.224   1.267  0.3400  0.6695 -1.4123
 9739TIP3    H250709   6.543   6.197   1.375  0.5498 -0.7693 -1.5702
 9740TIP3   OH250710   1.330   0.246   0.464  0.5575  0.4039 -0.1872
 9740TIP3    H150711   1.367   0.174   0.516 -0.0712  0.1383 -0.1047
 9740TIP3    H250712   1.370   0.325   0.501  0.5034  0.1738  0.3668
 9741TIP3   OH250713   2.529   1.974   5.153  0.4557 -0.4178  0.1595
 9741TIP3    H150714   2.497   2.004   5.238 -0.9232 -1.4420  0.0239
 9741TIP3    H250715   2.567   1.889   5.170 -2.9838 -2.2385 -0.7802
 9742TIP3   OH250716   0.553   3.590   2.283  0.4370 -0.6024  0.3962
 9742TIP3    H150717   0.621   3.616   2.345  1.1334 -1.2170 -0.0928
 9742TIP3    H250718   0.578   3.633   2.201 -0.3459  0.0126  0.4747
 9743TIP3   OH250719   1.910   1.828  13.033  0.4907 -0.4023 -0.1081
 9743TIP3    H150720   1.883   1.784  13.113  0.5507  0.0916  0.1822
 9743TIP3    H250721   2.006   1.825  13.035  0.4908 -0.4693 -0.2044
 9744TIP3   OH250722   3.968   4.645   4.953 -0.0764  0.2137  0.2021
 9744TIP3    H150723   3.962   4.667   4.859  2.9729 -1.3087 -0.3945
 9744TIP3    H250724   3.978   4.730   4.996 -0.9886  0.8929 -0.8698
 9745TIP3   OH250725   5.771   3.128   0.433 -0.1410  0.1995 -0.1091
 9745TIP3    H150726   5.854   3.127   0.385 -0.4954  1.8133 -0.8169
 9745TIP3    H250727   5.744   3.220   0.430 -2.6311 -0.5355 -1.0910
 9746TIP3   OH250728   2.219   5.742   0.820 -0.1763 -0.2702 -0.0762
 9746TIP3    H150729   2.250   5.833   0.824 -0.9592 -0.0341  0.7572
 9746TIP3    H250730   2.175   5.736   0.735  1.7223 -0.4852 -1.0818
 9747TIP3   OH250731   4.344   6.544   0.235 -0.6077 -0.3074 -0.5674
 9747TIP3    H150732   4.396   6.485   0.290 -1.1148  1.2966  1.6633
 9747TIP3    H250733   4.314   6.489   0.163  2.1576 -1.8550 -0.6136
 9748TIP3   OH250734   2.304   5.628   1.670 -0.5592 -0.3099  0.0180
 9748TIP3    H150735   2.273   5.719   1.669 -0.4924 -0.2833  0.2893
 9748TIP3    H250736   2.400   5.635   1.664 -0.6559 -0.4334 -2.1867
 9749TIP3   OH250737   2.728   2.105   1.248  0.1691 -0.5435 -0.5247
 9749TIP3    H150738   2.816   2.071   1.264  0.8167  0.7389 -1.2904
 9749TIP3    H250739   2.679   2.081   1.326  2.1632  1.9066  1.5947
 9750TIP3   OH250740   3.508   1.455  11.203 -0.3820  0.2236  0.1173
 9750TIP3    H150741   3.500   1.512  11.279  0.8839  0.3378  0.1694
 9750TIP3    H250742   3.510   1.515  11.128  0.7710  0.2526  0.1603
 9751TIP3   OH250743   0.865   1.757  16.065 -0.0171 -0.1693 -0.1307
 9751TIP3    H150744   0.882   1.718  16.151 -0.1496  1.9640  0.9102
 9751TIP3    H250745   0.928   1.829  16.059 -0.3426  0.0090 -1.6153
 9752TIP3   OH250746   2.442   2.554   5.051  0.5117  0.2447 -0.0953
 9752TIP3    H150747   2.461   2.461   5.036 -0.1629 -0.0112  0.5790
 9752TIP3    H250748   2.409   2.586   4.967  0.0313 -0.3179 -0.1286
 9753TIP3   OH250749   1.491   3.760  11.181  0.6705  0.7842  0.7425
 9753TIP3    H150750   1.517   3.686  11.235  0.3401 -0.2298 -0.4531
 9753TIP3    H250751   1.469   3.721  11.096  2.6873  2.4771 -0.6390
 9754TIP3   OH250752   2.706   4.389  14.922  0.2445  0.1038  0.5116
 9754TIP3    H150753   2.674   4.399  15.011 -0.1091  2.2478  0.1671
 9754TIP3    H250754   2.785   4.336  14.930  1.2554  1.8292  2.3150
 9755TIP3   OH250755   2.452   4.682   3.519  0.3315 -0.1320 -0.0615
 9755TIP3    H150756   2.498   4.765   3.507 -0.5697  0.2566 -0.9079
 9755TIP3    H250757   2.361   4.707   3.535  0.1909 -0.9333  0.4241
 9756TIP3   OH250758   2.788   1.561   5.083 -0.2262 -0.5010  0.1666
 9756TIP3    H150759   2.880   1.571   5.107  0.2166  0.0244 -1.6078
 9756TIP3    H250760   2.740   1.609   5.150  1.1587  3.7453 -1.6938
 9757TIP3   OH250761   3.188   5.286   0.760 -0.1439 -0.0107 -0.3925
 9757TIP3    H150762   3.214   5.294   0.669  1.5836 -2.5619 -0.1738
 9757TIP3    H250763   3.107   5.235   0.758  0.3345 -0.7739 -0.4600
 9758TIP3   OH250764   4.891   6.180  17.013  0.2033  0.7053  0.1911
 9758TIP3    H150765   4.907   6.249  17.077  0.6420 -0.0097  0.8686
 9758TIP3    H250766   4.939   6.105  17.047  0.9216  0.4752 -1.2668
 9759TIP3   OH250767   0.105   6.317  13.872 -0.4854  0.0806  0.0907
 9759TIP3    H150768   0.186   6.283  13.834  0.9307  3.0298  0.3508
 9759TIP3    H250769   0.056   6.350  13.797 -1.4566 -1.6142 -0.0534
 9760TIP3   OH250770   6.069   2.613  16.408  1.1249 -0.5390 -0.1419
 9760TIP3    H150771   6.125   2.674  16.359  0.2606 -0.4735 -1.0700
 9760TIP3    H250772   6.110   2.528  16.396  0.5715 -0.6213 -1.5302
 9761TIP3   OH250773   3.201   0.217   4.979  0.0563  0.3569  0.0868
 9761TIP3    H150774   3.277   0.165   4.954 -2.4536 -3.4295 -0.0533
 9761TIP3    H250775   3.166   0.250   4.896  0.5337  0.6892  0.0135
 9762TIP3   OH250776   4.873   3.827   4.238 -0.4043 -0.7141  0.0016
 9762TIP3    H150777   4.941   3.891   4.217  0.2601 -0.8565  1.6325
 9762TIP3    H250778   4.915   3.742   4.223 -0.3961 -0.7931  0.4596
 9763TIP3   OH250779   5.060   1.352   4.792 -0.3368  0.3931 -0.0669
 9763TIP3    H150780   5.060   1.390   4.704  0.9845  1.8315  0.5310
 9763TIP3    H250781   5.104   1.417   4.847 -3.5578  0.7410  2.2290
 9764TIP3   OH250782   0.627   0.746  12.415  0.0834  0.0847  0.3292
 9764TIP3    H150783   0.625   0.650  12.414  1.4011  0.0541 -1.7449
 9764TIP3    H250784   0.719   0.768  12.425  0.0865  1.0992 -1.5818
 9765TIP3   OH250785   3.148   0.778  15.033  0.0787  0.7074 -0.0298
 9765TIP3    H150786   3.097   0.858  15.015  0.0879  0.6478 -0.3354
 9765TIP3    H250787   3.095   0.707  14.996  0.7125  0.7186 -0.9937
 9766TIP3   OH250788   2.102   1.935  11.265  0.1122  0.0709 -0.7231
 9766TIP3    H150789   2.175   1.892  11.221  0.1199 -0.2433 -0.4079
 9766TIP3    H250790   2.050   1.863  11.301 -1.9403  0.1024 -3.3918
 9767TIP3   OH250791   4.614   1.639  17.268 -0.7677 -0.0053  0.1899
 9767TIP3    H150792   4.675   1.568  17.247 -0.8833 -0.5916  1.7442
 9767TIP3    H250793   4.598   1.682  17.185  0.3836 -0.9586 -0.5488
 9768TIP3   OH250794   6.517   2.784   3.054  0.2264  0.2057  0.2129
 9768TIP3    H150795   6.460   2.839   3.108 -0.6498  0.0040 -0.4856
 9768TIP3    H250796   6.490   2.695   3.074  0.0356  0.1213 -0.3982
 9769TIP3   OH250797   2.499   1.399   2.246  0.2940 -0.1204  0.5591
 9769TIP3    H150798   2.434   1.369   2.184  1.1308  1.2121 -1.0004
 9769TIP3    H250799   2.448   1.434   2.319 -0.6897 -1.5493  0.5801
 9770TIP3   OH250800   1.011   2.755  16.593  0.1087 -0.3848  0.4167
 9770TIP3    H150801   1.065   2.721  16.521  0.8196  0.8841  0.3388
 9770TIP3    H250802   0.966   2.830  16.555 -0.4060 -0.4077  0.9815
 9771TIP3   OH250803   2.957   3.040   2.021  0.7297  0.0463 -0.3166
 9771TIP3    H150804   2.999   3.113   1.976 -0.5641  1.0369  0.0792
 9771TIP3    H250805   2.878   3.077   2.060  0.2970 -1.4580  0.2776
 9772TIP3   OH250806   3.595   1.446   5.757  0.0268  0.3740  0.2162
 9772TIP3    H150807   3.658   1.484   5.695 -0.2512 -2.1835 -1.7145
 9772TIP3    H250808   3.512   1.444   5.708  0.1350 -3.0657  0.0637
 9773TIP3   OH250809   5.720   3.267   5.456  0.1097 -0.4681  0.4302
 9773TIP3    H150810   5.711   3.199   5.388 -0.7302  1.2593 -1.2268
 9773TIP3    H250811   5.778   3.332   5.417 -0.6695  0.7147  1.2175
 9774TIP3   OH250812   0.328   5.947  16.214 -0.0929  0.2303  0.0699
 9774TIP3    H150813   0.260   5.966  16.278 -0.0788 -0.8711  0.4094
 9774TIP3    H250814   0.290   5.972  16.130 -1.0636 -0.7886  0.2084
 9775TIP3   OH250815   6.495   5.042  11.343  0.2203  0.2886 -0.5295
 9775TIP3    H150816   6.532   4.988  11.274 -1.0382 -1.2594 -0.0221
 9775TIP3    H250817   6.538   5.013  11.423 -0.6970 -0.1990 -0.2096
 9776TIP3   OH250818   1.425   6.028  15.477 -0.3664 -0.2166 -0.4792
 9776TIP3    H150819   1.420   6.078  15.558 -0.2497 -1.0545  0.0509
 9776TIP3    H250820   1.480   5.953  15.498  1.6014  0.7760 -1.9925
 9777TIP3   OH250821   6.677   2.404   2.047 -0.7669 -0.2606  0.2267
 9777TIP3    H150822   6.639   2.430   2.131 -0.5859  0.5313  0.0670
 9777TIP3    H250823   6.701   2.486   2.006  0.3921 -0.7198 -0.0206
 9778TIP3   OH250824   6.313   5.970  16.684 -0.0887 -0.7926  0.0076
 9778TIP3    H150825   6.348   5.920  16.757  2.0409  0.7330  0.0748
 9778TIP3    H250826   6.290   6.055  16.721 -1.7001 -0.9909 -0.5201
 9779TIP3   OH250827   1.626   0.796   0.791 -0.0393  0.5248 -0.0500
 9779TIP3    H150828   1.669   0.711   0.805  0.9516  0.8849 -0.7876
 9779TIP3    H250829   1.694   0.860   0.812  0.1229  1.1050 -2.2311
 9780TIP3   OH250830   2.789   2.945   3.867  0.5641 -0.6036  0.4962
 9780TIP3    H150831   2.790   2.940   3.962  0.6835  0.2616  0.5406
 9780TIP3    H250832   2.796   3.038   3.847 -1.5959 -0.5748 -0.3229
 9781TIP3   OH250833   3.948   0.347  14.288 -0.1967 -0.2681  0.3366
 9781TIP3    H150834   4.003   0.317  14.360 -0.4869  1.4344  1.3008
 9781TIP3    H250835   3.958   0.443  14.289 -3.1878  0.0801  0.5383
 9782TIP3   OH250836   6.640   1.919   5.779  0.2159  0.4411 -0.0566
 9782TIP3    H150837   6.627   1.885   5.868  2.5338  0.2841  0.2604
 9782TIP3    H250838   6.725   1.882   5.752  0.3873  1.9586 -1.6266
 9783TIP3   OH250839   1.513   5.750   0.716  0.2120 -0.4231 -0.3442
 9783TIP3    H150840   1.548   5.815   0.777 -0.4960 -0.5567  0.2007
 9783TIP3    H250841   1.534   5.666   0.755 -1.5828 -0.4985  0.4762
 9784TIP3   OH250842   5.109   5.814  12.627  0.2142  0.5678 -0.2464
 9784TIP3    H150843   5.078   5.810  12.718 -1.2634  1.4608 -0.6952
 9784TIP3    H250844   5.183   5.875  12.629  0.7490 -0.0947  0.5059
 9785TIP3   OH250845   2.258   1.349   5.661 -0.0773 -0.2106 -0.0164
 9785TIP3    H150846   2.172   1.387   5.682 -0.3854 -0.7249 -0.3240
 9785TIP3    H250847   2.308   1.358   5.742 -1.1064 -1.7533  0.8474
 9786TIP3   OH250848   2.539   2.933  16.825 -0.1164 -0.1176 -0.7615
 9786TIP3    H150849   2.507   3.021  16.803 -0.7914 -0.1494  0.0819
 9786TIP3    H250850   2.479   2.874  16.779  0.4218 -0.1488 -1.4451
 9787TIP3   OH250851   0.230   3.000  13.609 -0.1746  0.3518 -0.4523
 9787TIP3    H150852   0.239   3.072  13.548  1.0002  0.1776 -0.5001
 9787TIP3    H250853   0.317   2.992  13.650 -0.0697 -1.5225 -1.0059
 9788TIP3   OH250854   5.200   0.082  14.702  0.1379  0.3045  0.2157
 9788TIP3    H150855   5.165   0.171  14.704 -0.8472 -0.0643 -0.2523
 9788TIP3    H250856   5.293   0.092  14.723 -0.5394  1.1352  2.9132
 9789TIP3   OH250857   0.675   0.916  14.217  0.0435 -0.5221  0.1658
 9789TIP3    H150858   0.745   0.870  14.265  0.2329 -0.5273 -0.1158
 9789TIP3    H250859   0.703   1.008  14.217 -1.7426  0.0998  3.2660
 9790TIP3   OH250860   6.343   6.766   3.577  0.2387 -0.0182 -0.2260
 9790TIP3    H150861   6.358   6.745   3.485  0.0345  0.3738 -0.3495
 9790TIP3    H250862   6.364   6.859   3.585  0.7516 -0.1668  0.2324
 9791TIP3   OH250863   1.765   3.929   4.099  0.5465 -0.1415  0.4645
 9791TIP3    H150864   1.689   3.885   4.060  1.5368 -1.1447 -0.3672
 9791TIP3    H250865   1.745   3.934   4.193 -0.6482 -0.1635  0.2185
 9792TIP3   OH250866   0.087   1.813  15.392  0.3408  0.0418 -0.1066
 9792TIP3    H150867   0.135   1.786  15.313 -0.3195 -2.2941  0.2691
 9792TIP3    H250868  -0.003   1.822  15.363  0.1005 -0.7959  0.3763
 9793TIP3   OH250869   3.269   6.004   0.802  0.1228  1.1224 -0.1851
 9793TIP3    H150870   3.352   6.050   0.796 -0.2008  1.7003 -0.3007
 9793TIP3    H250871   3.248   6.003   0.895  1.1355 -0.6230  0.0560
 9794TIP3   OH250872   6.326   5.436   3.854 -0.1980 -0.1305 -0.0115
 9794TIP3    H150873   6.280   5.376   3.797 -2.5962 -0.7398  2.4396
 9794TIP3    H250874   6.342   5.386   3.934 -2.6145  2.4924  2.2403
 9795TIP3   OH250875   0.115   0.227   5.198  0.3776 -0.6566 -0.0476
 9795TIP3    H150876   0.047   0.286   5.167  0.4041 -0.8172 -0.4144
 9795TIP3    H250877   0.085   0.199   5.285  1.1242  1.1018  0.7973
 9796TIP3   OH250878   4.111   3.056   4.688  0.0132  0.1939 -0.6200
 9796TIP3    H150879   4.207   3.059   4.690 -0.0090  0.1838  2.7656
 9796TIP3    H250880   4.084   3.145   4.710 -0.7560 -0.2476  0.2148
 9797TIP3   OH250881   0.176   5.765  11.377 -0.1416  0.3661  0.0241
 9797TIP3    H150882   0.246   5.809  11.328  1.2669 -2.1259 -0.2718
 9797TIP3    H250883   0.095   5.802  11.341  0.9221  0.5844 -2.2660
 9798TIP3   OH250884   1.086   2.591   5.539 -0.4970 -0.3759  0.0529
 9798TIP3    H150885   1.029   2.622   5.609 -0.7952  0.7888 -0.6844
 9798TIP3    H250886   1.070   2.497   5.534 -0.5417 -0.4569  1.4721
 9799TIP3   OH250887   1.871   5.631   0.681  0.2077 -0.0576 -0.0432
 9799TIP3    H150888   1.901   5.550   0.722 -0.4733 -1.0987 -1.5822
 9799TIP3    H250889   1.777   5.632   0.695  0.4945  1.5884  1.9160
 9800TIP3   OH250890   4.694   2.629  11.856  0.2635  0.3313 -0.3660
 9800TIP3    H150891   4.782   2.653  11.887  0.7943 -0.1895 -1.4265
 9800TIP3    H250892   4.683   2.538  11.882 -1.0482  1.1674  2.1128
 9801TIP3   OH250893   2.339   1.773  12.508 -0.2537 -0.2997  0.4534
 9801TIP3    H150894   2.294   1.769  12.592 -1.6528 -3.4669 -0.3444
 9801TIP3    H250895   2.422   1.727  12.523 -0.6767 -1.2193  0.0514
 9802TIP3   OH250896   3.875   4.694  12.757 -0.1739 -0.1249 -0.5691
 9802TIP3    H150897   3.792   4.708  12.803 -0.6390  0.2504 -1.5159
 9802TIP3    H250898   3.914   4.782  12.750  0.5925 -0.3781  0.4071
 9803TIP3   OH250899   1.857   0.969  12.290  0.4965 -0.3962  0.1592
 9803TIP3    H150900   1.829   0.943  12.203  0.1104  1.0424 -0.1630
 9803TIP3    H250901   1.901   0.892  12.326  1.3317 -0.7590 -1.5907
 9804TIP3   OH250902   4.758   6.486  12.329  0.1408  0.4560  0.0310
 9804TIP3    H150903   4.686   6.520  12.275  0.4979  0.8188 -0.2178
 9804TIP3    H250904   4.805   6.426  12.272  0.5550  0.8858 -0.0829
 9805TIP3   OH250905   2.263   0.730   6.448  0.3050  0.3332  0.4153
 9805TIP3    H150906   2.212   0.806   6.419  0.4010  1.0815  2.1579
 9805TIP3    H250907   2.230   0.712   6.536  2.2341  0.1001  1.0966
 9806TIP3   OH250908   4.509   6.611   1.999 -0.1362 -0.0490  0.1388
 9806TIP3    H150909   4.430   6.651   1.963 -0.6888 -0.8860  0.4082
 9806TIP3    H250910   4.495   6.517   1.989 -0.2098 -0.3027  2.3526
 9807TIP3   OH250911   4.122   3.509   3.438  0.0025 -0.5573 -0.3659
 9807TIP3    H150912   4.084   3.593   3.412  1.3637 -0.2544 -1.4682
 9807TIP3    H250913   4.092   3.448   3.371 -0.3387 -0.7763 -0.0116
 9808TIP3   OH250914   1.955   2.273   1.042  0.4800 -0.0182 -0.2520
 9808TIP3    H150915   2.025   2.261   0.979 -0.1149 -0.1140 -0.9011
 9808TIP3    H250916   1.888   2.210   1.016 -0.2181  0.6779 -0.1775
 9809TIP3   OH250917   5.845   5.035   3.213 -0.4270  0.0446 -0.9334
 9809TIP3    H150918   5.906   5.106   3.194  0.3598 -0.5445 -0.6569
 9809TIP3    H250919   5.886   4.988   3.286 -0.7710 -0.8848 -1.3382
 9810TIP3   OH250920   6.572   6.053   4.153  0.4192 -0.1273  0.1520
 9810TIP3    H150921   6.485   6.015   4.142 -0.3424  1.3615  0.8780
 9810TIP3    H250922   6.629   5.999   4.098 -0.7024 -1.9919  0.7809
 9811TIP3   OH250923   0.878   1.766   4.840  0.1494 -0.8260 -0.0432
 9811TIP3    H150924   0.874   1.829   4.912 -1.7559 -1.3028  0.2951
 9811TIP3    H250925   0.886   1.820   4.762 -1.4694 -0.1538  0.2436
 9812TIP3   OH250926   3.208   0.455   4.763  0.0242 -0.0120 -0.7400
 9812TIP3    H150927   3.237   0.544   4.781  1.3759 -0.5769 -0.0745
 9812TIP3    H250928   3.174   0.459   4.673 -0.5561  1.3089 -0.4747
 9813TIP3   OH250929   3.619   1.915  11.012  0.3901 -0.4635  0.0595
 9813TIP3    H150930   3.532   1.877  11.023  0.3660 -0.4943 -0.2102
 9813TIP3    H250931   3.634   1.913  10.917  0.7579 -0.6195  0.1188
 9814TIP3   OH250932   1.795   3.511  16.697  0.4272  0.1002 -0.0729
 9814TIP3    H150933   1.878   3.558  16.711 -0.3942  1.2015  1.2928
 9814TIP3    H250934   1.821   3.420  16.685  1.7933  0.3190  1.0789
 9815TIP3   OH250935   4.343   2.189   6.490 -0.2173 -0.5608 -0.0865
 9815TIP3    H150936   4.344   2.174   6.585  0.0671  1.8924  0.3273
 9815TIP3    H250937   4.436   2.193   6.466 -0.2906 -0.8048 -0.4072
 9816TIP3   OH250938   3.929   4.897   5.586  0.1801 -0.3416 -0.2046
 9816TIP3    H150939   3.901   4.924   5.499 -0.0724  1.1128  0.3179
 9816TIP3    H250940   4.020   4.869   5.575 -0.2025 -1.2615 -1.1393
 9817TIP3   OH250941   4.714   2.296  14.654  0.8040  0.0224 -0.2501
 9817TIP3    H150942   4.647   2.302  14.585 -0.4046  0.0563  0.9005
 9817TIP3    H250943   4.791   2.337  14.616  0.1407  0.0761 -1.5770
 9818TIP3   OH250944   3.719   0.542  15.504 -0.2660 -0.0909  0.0995
 9818TIP3    H150945   3.777   0.613  15.478  0.4907 -0.6766  0.1886
 9818TIP3    H250946   3.647   0.546  15.442 -0.7676  1.4296  0.7535
 9819TIP3   OH250947   2.494   1.269  13.467 -0.2537 -0.0392  0.6992
 9819TIP3    H150948   2.527   1.184  13.438  0.0914  0.5951 -0.7759
 9819TIP3    H250949   2.569   1.310  13.512 -0.5543 -0.6850  1.8159
 9820TIP3   OH250950   2.239   2.767   1.859  0.2152  0.6211  0.7462
 9820TIP3    H150951   2.220   2.856   1.887 -0.4911  0.3827  1.0351
 9820TIP3    H250952   2.205   2.711   1.929 -4.7766 -0.1426 -2.0845
 9821TIP3   OH250953   5.233   1.215  12.058  0.4444 -0.1455  0.2742
 9821TIP3    H150954   5.302   1.181  12.115 -0.0444 -0.5831  0.6121
 9821TIP3    H250955   5.199   1.138  12.012  0.7826  0.1999 -0.5423
 9822TIP3   OH250956   5.077   1.351  17.086 -0.4034  0.1769  0.1372
 9822TIP3    H150957   4.984   1.344  17.062 -0.8828  0.2081  1.8740
 9822TIP3    H250958   5.085   1.439  17.123  0.4077  0.2969 -0.3163
 9823TIP3   OH250959   6.678   4.489   4.781  0.4002  0.7258  0.4452
 9823TIP3    H150960   6.647   4.443   4.704 -1.6983  0.2927  1.4996
 9823TIP3    H250961   6.748   4.547   4.749 -0.8267  0.9733 -1.8515
 9824TIP3   OH250962   3.607   1.961  13.744 -0.3745  0.2464  0.3203
 9824TIP3    H150963   3.690   2.003  13.766 -0.4547  0.4960  0.1393
 9824TIP3    H250964   3.550   2.033  13.717  0.6264 -0.3601 -3.6428
 9825TIP3   OH250965   2.379   2.695   2.633 -0.3561  0.3240  0.4605
 9825TIP3    H150966   2.380   2.607   2.673  1.2581  0.1943  0.1559
 9825TIP3    H250967   2.463   2.701   2.587 -0.0064  2.4196  1.3459
 9826TIP3   OH250968   5.845   5.053  16.930 -0.2263 -0.0725  0.8880
 9826TIP3    H150969   5.758   5.081  16.958 -0.3190  0.7276 -0.1476
 9826TIP3    H250970   5.830   4.996  16.855  0.1536  0.4874  0.3760
 9827TIP3   OH250971   3.820   6.165   4.706 -0.1020  0.1849  0.0095
 9827TIP3    H150972   3.813   6.100   4.776 -0.5992 -0.4461 -0.6182
 9827TIP3    H250973   3.732   6.168   4.667  0.1801  0.5130 -0.6112
 9828TIP3   OH250974   0.109   5.669   0.577 -0.1271  0.9495  0.0410
 9828TIP3    H150975   0.079   5.582   0.550  0.6875  1.2422 -1.9014
 9828TIP3    H250976   0.034   5.726   0.559 -0.0825  0.9122 -0.2707
 9829TIP3   OH250977   6.565   1.867   2.776  0.1937 -0.2014  0.4732
 9829TIP3    H150978   6.485   1.815   2.789 -0.1489  0.5833  1.5482
 9829TIP3    H250979   6.573   1.919   2.856  0.7805  1.0644 -0.3958
 9830TIP3   OH250980   1.819   5.513  11.925  0.5606  0.5922  0.3768
 9830TIP3    H150981   1.775   5.555  11.999 -1.0264  0.6023 -0.5474
 9830TIP3    H250982   1.903   5.559  11.918 -0.0481  1.8408  1.0188
 9831TIP3   OH250983   3.212   1.536   4.044 -0.2284  0.2419  0.0029
 9831TIP3    H150984   3.266   1.502   4.115 -0.5397 -1.6101 -0.6157
 9831TIP3    H250985   3.193   1.626   4.069  0.1630 -0.2032  1.9705
 9832TIP3   OH250986   2.820   4.913   1.594 -0.5724  0.3002 -0.2095
 9832TIP3    H150987   2.875   4.843   1.628 -0.0640  0.5781 -0.4626
 9832TIP3    H250988   2.866   4.945   1.517 -1.4410  0.0484 -0.8425
 9833TIP3   OH250989   2.970   3.750  11.261 -0.5161  0.0598  0.5538
 9833TIP3    H150990   3.038   3.692  11.296  0.0163  1.0397  1.1685
 9833TIP3    H250991   3.018   3.827  11.230 -1.2741  0.4606  0.3663
 9834TIP3   OH250992   6.340   6.314   0.713  0.4338 -0.7669  0.0235
 9834TIP3    H150993   6.381   6.358   0.787 -1.8600  0.3356  0.6750
 9834TIP3    H250994   6.321   6.384   0.651  2.9138 -1.7611 -1.9414
 9835TIP3   OH250995   1.868   0.749  12.725  0.1361 -0.3616 -0.3560
 9835TIP3    H150996   1.881   0.655  12.744  2.0192 -0.6505 -2.8183
 9835TIP3    H250997   1.822   0.750  12.642  0.9324  0.9164 -0.7842
 9836TIP3   OH250998   5.728   6.537  14.048  0.2007 -0.2121  0.0197
 9836TIP3    H150999   5.747   6.624  14.081  0.0430  0.3998 -1.4582
 9836TIP3    H251000   5.635   6.541  14.023  0.2343 -0.7547 -0.1973
 9837TIP3   OH251001   5.818   0.503  15.325 -0.1890  0.3007  0.3251
 9837TIP3    H151002   5.766   0.541  15.396 -0.8183  2.1304 -1.1160
 9837TIP3    H251003   5.901   0.477  15.368 -0.7560  0.9034  1.8213
 9838TIP3   OH251004   0.525   3.066  11.465 -0.0595 -0.3035 -0.5765
 9838TIP3    H151005   0.590   3.108  11.522  1.2783 -0.5429 -1.8949
 9838TIP3    H251006   0.461   3.027  11.525  0.7441  0.3642  0.7283
 9839TIP3   OH251007   4.075   6.478  14.540 -0.4296 -0.4108 -0.3100
 9839TIP3    H151008   4.088   6.390  14.575  0.7167 -0.3353 -0.5351
 9839TIP3    H251009   4.028   6.464  14.457 -2.3926 -0.6379  0.7891
 9840TIP3   OH251010   4.402   3.893   3.146 -0.1159  0.0349  0.0106
 9840TIP3    H151011   4.398   3.984   3.176 -2.1825 -0.0652  0.1021
 9840TIP3    H251012   4.329   3.884   3.085  1.8260 -0.7831 -2.2940
 9841TIP3   OH251013   6.470   2.466   0.691  0.2762 -0.3681 -0.6455
 9841TIP3    H151014   6.480   2.517   0.771 -0.4148  0.4284 -1.0627
 9841TIP3    H251015   6.485   2.375   0.718  2.8336  0.1777 -0.1609
 9842TIP3   OH251016   5.471   3.193  10.681 -0.3022 -0.1278  0.5074
 9842TIP3    H151017   5.452   3.287  10.686 -1.7803 -0.3057 -1.3016
 9842TIP3    H251018   5.445   3.158  10.766 -0.6407  0.9554  0.8542
 9843TIP3   OH251019   6.404   5.216   4.968 -0.0522 -0.2404  0.0936
 9843TIP3    H151020   6.414   5.121   4.980  2.3648 -0.0874 -0.5551
 9843TIP3    H251021   6.375   5.248   5.053  0.7424 -1.3375  0.7888
 9844TIP3   OH251022   6.170   3.848   0.247 -0.2007 -0.2630  0.3091
 9844TIP3    H151023   6.175   3.937   0.215 -1.7598  0.3563  1.6571
 9844TIP3    H251024   6.161   3.794   0.169 -0.6881  0.9074 -0.4538
 9845TIP3   OH251025   3.501   2.951  14.580 -0.1987  0.0518 -0.2798
 9845TIP3    H151026   3.507   2.885  14.649 -0.9604 -0.6717 -0.8805
 9845TIP3    H251027   3.578   2.936  14.525  0.0475  0.1826  0.0318
 9846TIP3   OH251028   0.975   1.644   2.619 -0.5905 -0.1197 -0.3147
 9846TIP3    H151029   0.993   1.557   2.583 -0.9053  0.2936 -1.5135
 9846TIP3    H251030   0.884   1.661   2.596 -1.4525 -0.6756  2.4912
 9847TIP3   OH251031   1.487   6.209  16.873  0.2465  1.0726 -0.0465
 9847TIP3    H151032   1.510   6.284  16.929 -0.0743  1.2187 -0.1050
 9847TIP3    H251033   1.397   6.227  16.846 -0.2651  0.0490  0.9369
 9848TIP3   OH251034   2.400   3.994   3.170 -0.2948  0.7911 -0.0100
 9848TIP3    H151035   2.378   3.901   3.167  0.9166  0.4146  1.6418
 9848TIP3    H251036   2.340   4.035   3.109 -0.1392 -1.2183 -1.5784
 9849TIP3   OH251037   5.745   3.585   6.016  0.1530  0.0599 -0.0453
 9849TIP3    H151038   5.830   3.630   6.019 -0.0155  0.3694  0.2338
 9849TIP3    H251039   5.686   3.645   6.062 -0.1105 -0.3810  0.1847
 9850TIP3   OH251040   0.522   2.965  16.606  0.9033  0.6810 -0.7648
 9850TIP3    H151041   0.544   3.038  16.663  0.9636  0.8338 -0.9797
 9850TIP3    H251042   0.428   2.953  16.616  0.8167  1.0898 -1.0785
 9851TIP3   OH251043   1.285   2.372  15.795 -0.2776  0.1857  0.3581
 9851TIP3    H151044   1.261   2.346  15.706  0.3767  0.0035  0.2382
 9851TIP3    H251045   1.361   2.429  15.785  0.2851 -0.4724  0.8590
 9852TIP3   OH251046   5.644   0.830  16.388 -0.3932 -0.3148  0.3665
 9852TIP3    H151047   5.632   0.910  16.440 -3.4433 -0.8765  0.6425
 9852TIP3    H251048   5.654   0.861  16.298 -1.3631  0.4018  0.4936
 9853TIP3   OH251049   3.190   2.402   1.859 -0.4814  0.0575 -0.0133
 9853TIP3    H151050   3.142   2.380   1.779 -0.4836 -0.8456  0.2236
 9853TIP3    H251051   3.153   2.485   1.888 -1.3570 -0.2510 -0.2534
 9854TIP3   OH251052   2.146   3.036  14.624  1.0676 -0.6079 -0.3063
 9854TIP3    H151053   2.201   3.114  14.618 -1.1313  1.0452  0.6367
 9854TIP3    H251054   2.188   2.982  14.691  0.2639  1.7402  2.1911
 9855TIP3   OH251055   0.125   1.037   0.299  0.0559  0.2013  0.4007
 9855TIP3    H151056   0.196   1.074   0.248 -0.4797  1.2990  0.4334
 9855TIP3    H251057   0.126   0.943   0.278  1.8370  0.1087  0.8188
 9856TIP3   OH251058   5.089   4.599  12.706  0.4636  0.0061  1.0136
 9856TIP3    H151059   5.050   4.522  12.664  0.3731  0.4239  0.3140
 9856TIP3    H251060   5.019   4.634  12.761  0.6185 -0.6118  1.5975
 9857TIP3   OH251061   4.388   4.148   1.074 -0.6282  0.1470  0.2120
 9857TIP3    H151062   4.333   4.226   1.088 -1.0970 -0.5401  2.3292
 9857TIP3    H251063   4.352   4.108   0.995 -2.0959  0.6494  0.6072
 9858TIP3   OH251064   0.111   6.077   2.246  0.8837  0.3174 -0.3620
 9858TIP3    H151065   0.174   6.004   2.245  1.6603  0.9618  0.9449
 9858TIP3    H251066   0.107   6.104   2.337 -2.3931 -0.6283 -0.1607
 9859TIP3   OH251067   6.160   5.179   2.473  0.4542 -0.8717 -0.5642
 9859TIP3    H151068   6.204   5.234   2.408 -0.4534 -1.1915 -1.4574
 9859TIP3    H251069   6.186   5.216   2.557  0.2514  0.6155 -1.1464
 9860TIP3   OH251070   2.771   1.927  16.870 -0.4654  0.1705 -0.9840
 9860TIP3    H151071   2.850   1.980  16.879  0.1817 -1.0555  0.8218
 9860TIP3    H251072   2.700   1.983  16.901 -0.4849  1.6844 -3.7047
 9861TIP3   OH251073   3.763   2.078  15.573  0.3935 -0.2562  0.5579
 9861TIP3    H151074   3.712   2.110  15.647  0.1563 -0.4406  0.4756
 9861TIP3    H251075   3.764   2.151  15.511 -2.9615 -1.4631 -1.0808
 9862TIP3   OH251076   5.645   6.165  15.422 -0.3337  0.0249 -0.3414
 9862TIP3    H151077   5.594   6.223  15.367 -1.7689 -0.2523  0.6822
 9862TIP3    H251078   5.604   6.079  15.412  0.3619 -0.3502 -0.0685
 9863TIP3   OH251079   4.510   1.112   4.177  0.0223 -0.0235 -0.3007
 9863TIP3    H151080   4.579   1.085   4.117 -0.0609  0.3761 -0.5783
 9863TIP3    H251081   4.508   1.044   4.244  1.1081  0.2703  0.0443
 9864TIP3   OH251082   5.847   2.060  12.524 -0.2760 -0.4868  0.2974
 9864TIP3    H151083   5.902   2.084  12.450 -1.4391  1.1172 -0.0594
 9864TIP3    H251084   5.901   1.999  12.574  1.0574 -0.5052 -1.1069
 9865TIP3   OH251085   2.271   1.949   0.514 -0.2833 -1.0542  0.0862
 9865TIP3    H151086   2.284   1.865   0.558  1.7895 -1.4577 -1.2617
 9865TIP3    H251087   2.323   1.943   0.434  0.5432  1.8015  0.3551
 9866TIP3   OH251088   4.819   3.547  13.457  0.3270  0.1541  0.1363
 9866TIP3    H151089   4.861   3.472  13.499  0.6882 -0.6143 -1.5291
 9866TIP3    H251090   4.726   3.528  13.461  0.4532 -0.8223 -1.0127
 9867TIP3   OH251091   6.651   6.342  13.531 -0.0233 -0.2768  0.1746
 9867TIP3    H151092   6.734   6.382  13.504 -0.4864  0.2876 -0.4275
 9867TIP3    H251093   6.677   6.263  13.579  0.8792  0.3836  0.7909
 9868TIP3   OH251094   3.357   1.375   4.209 -0.0007  0.4014  0.0708
 9868TIP3    H151095   3.447   1.350   4.230 -0.3788 -0.5815  0.5414
 9868TIP3    H251096   3.305   1.344   4.283 -0.7468  0.8694 -0.2510
 9869TIP3   OH251097   5.914   4.118  14.859  0.3191  0.4307  0.4895
 9869TIP3    H151098   5.949   4.090  14.774 -1.7086 -1.7950  0.3303
 9869TIP3    H251099   5.982   4.096  14.922  0.4278 -1.1043 -0.1527
 9870TIP3   OH251100   2.267   4.731  12.770  0.1067  0.4190  0.4070
 9870TIP3    H151101   2.289   4.805  12.714  1.4157 -0.8669 -0.8270
 9870TIP3    H251102   2.351   4.688  12.787 -0.7134 -1.2000  0.4751
 9871TIP3   OH251103   0.364   4.925  15.928  0.4478  0.1628 -0.3040
 9871TIP3    H151104   0.290   4.984  15.942  0.9721  0.7524  0.0336
 9871TIP3    H251105   0.385   4.934  15.835  0.4035  0.3660 -0.2933
 9872TIP3   OH251106   5.300   2.152  15.667 -0.1434 -0.0026  0.3574
 9872TIP3    H151107   5.276   2.122  15.755 -0.4176 -1.7051 -0.2825
 9872TIP3    H251108   5.301   2.072  15.614 -1.6916  1.2136 -1.5856
 9873TIP3   OH251109   3.232   5.931  14.061 -1.0408  0.5789  0.2248
 9873TIP3    H151110   3.276   5.942  14.145  0.2566 -0.4104 -0.3278
 9873TIP3    H251111   3.292   5.969  13.997 -0.5670 -1.5387 -0.6290
 9874TIP3   OH251112   6.090   4.070  15.461  0.0766 -0.1042 -0.1997
 9874TIP3    H151113   6.095   4.144  15.401  0.9409  0.6471  0.7886
 9874TIP3    H251114   6.053   3.999  15.408  0.0149  0.7894 -1.3764
 9875TIP3   OH251115   5.710   3.058   5.265  0.1528 -0.0715 -0.2632
 9875TIP3    H151116   5.800   3.033   5.244 -0.3676 -1.3170 -1.0535
 9875TIP3    H251117   5.662   3.044   5.184 -0.5327  1.7571 -0.2073
 9876TIP3   OH251118   2.535   0.489   3.619  0.3897  0.1553 -0.0432
 9876TIP3    H151119   2.507   0.468   3.708 -0.4277  0.3203 -0.2577
 9876TIP3    H251120   2.501   0.417   3.566  0.3706  0.3583 -0.3046
 9877TIP3   OH251121   1.331   1.503  16.682 -0.4524  0.1879 -0.0577
 9877TIP3    H151122   1.332   1.589  16.723 -0.4228 -0.7984  2.0949
 9877TIP3    H251123   1.417   1.466  16.702 -0.7308 -0.6121 -0.3271
 9878TIP3   OH251124   4.824   5.116  11.777 -0.0897  0.3159  0.9797
 9878TIP3    H151125   4.780   5.114  11.862 -0.8864  1.4994  0.6164
 9878TIP3    H251126   4.812   5.206  11.747  1.3821  0.2687  0.2351
 9879TIP3   OH251127   0.802   1.536  13.884  0.1085 -0.2491  0.2993
 9879TIP3    H151128   0.796   1.456  13.937  1.0405 -0.0765  0.6715
 9879TIP3    H251129   0.861   1.593  13.934 -1.6989  1.2589  0.7894
 9880TIP3   OH251130   3.717   6.521   0.291  0.3487  0.3397  0.1698
 9880TIP3    H151131   3.658   6.583   0.334 -1.0652 -0.1404 -1.0475
 9880TIP3    H251132   3.784   6.502   0.358 -1.2362  0.3796  1.8063
 9881TIP3   OH251133   1.077   3.164   5.645 -0.3459 -0.7949 -0.1784
 9881TIP3    H151134   1.122   3.099   5.698 -1.0532 -2.2278 -1.3164
 9881TIP3    H251135   1.077   3.243   5.699 -0.1732 -1.9484  1.5340
 9882TIP3   OH251136   0.804   1.595   1.777 -0.5753  0.7004 -0.4510
 9882TIP3    H151137   0.731   1.547   1.739  0.6706 -0.1598 -1.8030
 9882TIP3    H251138   0.882   1.556   1.737  0.6156  1.7487  0.7933
 9883TIP3   OH251139   3.666   5.197   5.299  0.1027  0.0126  0.0957
 9883TIP3    H151140   3.644   5.282   5.261  2.0679  0.2479 -0.5748
 9883TIP3    H251141   3.738   5.215   5.360  0.1459 -1.0790  0.3884
 9884TIP3   OH251142   2.908   4.522   2.985  0.1154 -0.8491  0.1799
 9884TIP3    H151143   2.823   4.515   3.028  0.5401 -1.8308  0.8575
 9884TIP3    H251144   2.902   4.462   2.911  0.3265 -1.1235  0.3891
 9885TIP3   OH251145   0.069   5.611  14.660 -0.1885  0.1957 -0.4315
 9885TIP3    H151146   0.124   5.682  14.626 -1.0151  0.3169 -1.5322
 9885TIP3    H251147  -0.009   5.613  14.605 -0.9696 -0.4594  0.6478
 9886TIP3   OH251148   5.686   2.807   4.547 -0.4848  0.1865  0.1416
 9886TIP3    H151149   5.660   2.894   4.577 -0.3388  0.5612 -0.7846
 9886TIP3    H251150   5.740   2.771   4.618  0.8083  1.4977 -0.1581
 9887TIP3   OH251151   5.111   3.723  16.066 -0.0635 -0.1434  0.1400
 9887TIP3    H151152   5.111   3.629  16.049 -0.5455  0.3998 -3.3482
 9887TIP3    H251153   5.020   3.750  16.054  0.4052  1.0474 -1.0336
 9888TIP3   OH251154   3.681   3.868  14.683 -0.1367  0.0572 -0.0252
 9888TIP3    H151155   3.715   3.780  14.694 -1.1495 -0.4841 -1.1060
 9888TIP3    H251156   3.600   3.870  14.734  0.3553  0.6460  0.7372
 9889TIP3   OH251157   5.292   6.638  13.513  0.0315 -0.3418 -0.6308
 9889TIP3    H151158   5.309   6.732  13.524 -0.0493 -0.2762 -1.0333
 9889TIP3    H251159   5.217   6.634  13.454  0.5927 -0.6687 -1.3353
 9890TIP3   OH251160   0.520   0.987  16.198  0.1014 -0.1245  0.2176
 9890TIP3    H151161   0.526   1.033  16.282  3.2684 -2.3700  1.3431
 9890TIP3    H251162   0.465   0.911  16.216  1.6097 -1.1518  0.5609
 9891TIP3   OH251163   4.450   1.884  14.614  0.7870 -0.3199 -0.0788
 9891TIP3    H151164   4.477   1.793  14.627  1.5260 -0.4764 -2.4233
 9891TIP3    H251165   4.360   1.886  14.644  0.5946 -1.9756 -0.4537
 9892TIP3   OH251166   0.688   3.099   0.575  0.1670  0.2415  0.9718
 9892TIP3    H151167   0.711   3.139   0.659 -0.1040 -0.2362  1.2731
 9892TIP3    H251168   0.594   3.081   0.581  0.0337  0.7199  0.3499
 9893TIP3   OH251169   1.912   6.244   0.378  0.6474  0.1497 -0.6922
 9893TIP3    H151170   1.988   6.187   0.383 -0.3420 -1.1131  0.2446
 9893TIP3    H251171   1.949   6.332   0.367  2.2004 -0.5413 -1.2321
 9894TIP3   OH251172   1.141   0.957  11.559 -0.3457 -0.3049  0.4684
 9894TIP3    H151173   1.077   0.990  11.496 -0.2216 -0.6418  0.1673
 9894TIP3    H251174   1.224   0.994  11.530 -0.4270  0.2649  0.9528
 9895TIP3   OH251175   3.656   5.475   4.332 -0.1512 -0.2040 -0.4985
 9895TIP3    H151176   3.629   5.437   4.416  0.6371  1.9438  0.7474
 9895TIP3    H251177   3.585   5.533   4.308  0.6202  0.9073 -0.1651
 9896TIP3   OH251178   4.044   2.062  15.438  0.7595 -0.7403 -0.0317
 9896TIP3    H151179   3.954   2.081  15.464  0.2056 -1.7803 -1.1414
 9896TIP3    H251180   4.070   1.988  15.493  0.7740 -0.7439 -0.0423
 9897TIP3   OH251181   2.018   2.825  15.536  0.0142  0.2310  0.1200
 9897TIP3    H151182   2.040   2.860  15.622  0.5486 -0.0355  0.0938
 9897TIP3    H251183   1.945   2.764  15.553 -1.5715  2.0559  0.0308
 9898TIP3   OH251184   5.516   4.494  10.884 -0.2503 -0.1052 -0.2375
 9898TIP3    H151185   5.559   4.410  10.901  1.4291  1.0504  1.3553
 9898TIP3    H251186   5.423   4.477  10.899  0.1778 -1.4476  0.9581
 9899TIP3   OH251187   0.353   5.174  13.117  0.1544  0.4357  0.5621
 9899TIP3    H151188   0.381   5.084  13.136 -0.6616  0.0049 -0.2254
 9899TIP3    H251189   0.262   5.177  13.147 -0.4369  0.4067 -1.1861
 9900TIP3   OH251190   0.617   1.174   3.713 -0.2584  0.3412 -0.1930
 9900TIP3    H151191   0.565   1.097   3.738 -0.0479 -0.4465 -2.0402
 9900TIP3    H251192   0.686   1.179   3.778 -0.8395 -0.4667  0.5026
 9901TIP3   OH251193   5.798   2.166   4.163 -0.1981 -0.1292 -0.0664
 9901TIP3    H151194   5.795   2.089   4.219 -0.1992 -0.7369 -0.8878
 9901TIP3    H251195   5.771   2.134   4.077  2.1036  0.2720 -0.9734
 9902TIP3   OH251196   1.309   6.601  10.919  0.3499  0.2338 -0.1933
 9902TIP3    H151197   1.325   6.510  10.947  1.2315  1.0214  1.9406
 9902TIP3    H251198   1.388   6.648  10.944 -0.0043  1.5525 -1.5348
 9903TIP3   OH251199   1.648   0.049  16.861  0.8645 -0.9787 -0.1015
 9903TIP3    H151200   1.577   0.037  16.799 -0.3078 -0.2106  1.0677
 9903TIP3    H251201   1.686   0.134  16.838  1.4099 -1.3874 -0.7257
 9904TIP3   OH251202   3.596   4.534  14.574  0.3668 -0.0156 -0.0598
 9904TIP3    H151203   3.581   4.541  14.480  1.1020 -0.2492 -0.2004
 9904TIP3    H251204   3.524   4.582  14.614 -0.5276 -0.7971 -0.7125
 9905TIP3   OH251205   0.087   6.144   2.503  0.3685 -0.4992  0.3235
 9905TIP3    H151206   0.108   6.084   2.575  0.0814  1.0236  1.6993
 9905TIP3    H251207   0.002   6.181   2.526 -2.1960 -3.7026 -3.3104
 9906TIP3   OH251208   0.968   6.753   0.030 -0.7930  0.0527 -0.0167
 9906TIP3    H151209   0.903   6.719  -0.031  1.3353 -3.7326 -0.3336
 9906TIP3    H251210   1.037   6.789  -0.026 -0.6482  0.1685  0.2358
 9907TIP3   OH251211   4.252   3.266  12.290 -0.5788 -0.1313 -0.0482
 9907TIP3    H151212   4.268   3.184  12.243  0.0188  2.2399 -4.1941
 9907TIP3    H251213   4.159   3.285  12.274 -0.6239  0.2356  0.5952
 9908TIP3   OH251214   6.639   4.046   4.303  0.0681  0.0971 -0.3949
 9908TIP3    H151215   6.599   3.969   4.344  0.9219  0.0576  0.3752
 9908TIP3    H251216   6.718   4.012   4.260 -0.6070  0.2081 -1.7341
 9909TIP3   OH251217   5.874   0.454  14.320 -0.5895 -0.3042 -0.1460
 9909TIP3    H151218   5.826   0.389  14.270 -0.1247 -0.5819 -0.2393
 9909TIP3    H251219   5.810   0.523  14.339 -1.2450 -1.0858  0.4911
 9910TIP3   OH251220   6.077   0.362  13.961 -0.6767 -0.1696 -0.2149
 9910TIP3    H151221   6.014   0.290  13.951 -0.1212 -0.8205  0.8949
 9910TIP3    H251222   6.135   0.333  14.031 -0.5773  1.4757  0.3934
 9911TIP3   OH251223   3.109   2.137  14.014 -0.6151 -0.5777  0.1054
 9911TIP3    H151224   3.202   2.149  14.032 -0.1529 -1.9103 -1.3324
 9911TIP3    H251225   3.068   2.215  14.052  0.7921 -1.1209  2.8850
 9912TIP3   OH251226   2.322   1.474  16.329 -0.3788 -0.3326  0.1849
 9912TIP3    H151227   2.253   1.539  16.314  0.7815  1.2903  1.7680
 9912TIP3    H251228   2.371   1.473  16.247  0.0167  1.2973  0.3954
 9913TIP3   OH251229   1.925   4.500  14.005 -0.2374 -0.4589 -0.5401
 9913TIP3    H151230   1.858   4.556  13.967 -0.1027  0.4020  0.4459
 9913TIP3    H251231   1.886   4.465  14.085  1.4357  2.4271  1.6652
 9914TIP3   OH251232   2.898   3.196  11.809  0.9307 -0.1930  0.4912
 9914TIP3    H151233   2.845   3.210  11.730 -0.0359  1.0732  1.3272
 9914TIP3    H251234   2.988   3.207  11.779  0.7545 -2.5032 -0.9883
 9915TIP3   OH251235   1.055   6.500   3.328  0.0705  0.6778 -0.6593
 9915TIP3    H151236   1.025   6.527   3.415 -0.0565 -0.7297 -0.2600
 9915TIP3    H251237   1.056   6.404   3.331  1.5414  0.6424 -1.7080
 9916TIP3   OH251238   1.170   5.969   2.576  0.0169  0.1812 -0.1588
 9916TIP3    H151239   1.193   6.028   2.504  0.6095 -0.7224 -0.7126
 9916TIP3    H251240   1.251   5.956   2.624  0.6391 -2.6547 -1.8626
 9917TIP3   OH251241   4.407   0.178  11.297 -0.7049 -0.1367  0.6119
 9917TIP3    H151242   4.344   0.248  11.280  0.0642  0.3885 -0.1325
 9917TIP3    H251243   4.354   0.105  11.330 -1.7993  0.0639 -0.6542
 9918TIP3   OH251244   3.847   6.411  11.439  0.4413  0.0751 -0.4452
 9918TIP3    H151245   3.807   6.346  11.497  1.5637  0.9405  1.3534
 9918TIP3    H251246   3.776   6.471  11.416 -0.2023 -0.7694 -0.6619
 9919TIP3   OH251247   3.134   0.049  15.110  0.1835  0.4134  0.5404
 9919TIP3    H151248   3.217   0.000  15.113  0.8442  1.5974  3.2455
 9919TIP3    H251249   3.069  -0.012  15.145 -0.2031 -0.6311 -1.8877
 9920TIP3   OH251250   4.255   1.643  17.005 -0.0569  0.0223  0.1781
 9920TIP3    H151251   4.275   1.724  16.958 -0.3669 -0.3477 -0.5804
 9920TIP3    H251252   4.284   1.661  17.095  2.2656  0.0490 -0.5445
 9921TIP3   OH251253   4.790   5.001  13.038 -0.4225  0.1328  0.9803
 9921TIP3    H151254   4.733   5.044  13.102 -0.2939 -0.5686  1.5737
 9921TIP3    H251255   4.867   4.975  13.088  1.0874  2.3406 -0.1138
 9922TIP3   OH251256   2.112   6.562  15.758  0.6236  0.2673 -0.0638
 9922TIP3    H151257   2.089   6.655  15.749  0.8520  0.2634 -0.7324
 9922TIP3    H251258   2.169   6.559  15.835  0.3785  0.6369  0.1322
 9923TIP3   OH251259   3.735   2.538  12.819  0.1270  0.1317  0.0075
 9923TIP3    H151260   3.779   2.616  12.854  0.4633 -0.3768  0.7616
 9923TIP3    H251261   3.665   2.520  12.882  0.5084 -0.5877  0.2332
 9924TIP3   OH251262   3.106   6.766   3.890 -0.2374  0.2173 -0.2209
 9924TIP3    H151263   3.144   6.840   3.842  2.0578 -0.2467  0.8173
 9924TIP3    H251264   3.048   6.807   3.954  0.5380  1.1087 -0.0665
 9925TIP3   OH251265   6.426   0.905   6.222  0.4391 -0.1522  0.5725
 9925TIP3    H151266   6.434   0.823   6.272 -1.2555 -0.0896  0.9638
 9925TIP3    H251267   6.507   0.953   6.243  0.2320 -0.5668  2.4766
 9926TIP3   OH251268   4.420   3.492   3.689  0.1560 -0.2055 -0.4573
 9926TIP3    H151269   4.452   3.477   3.778  1.9576  0.6101 -0.9533
 9926TIP3    H251270   4.326   3.509   3.701  0.5065  0.6189  1.3592
 9927TIP3   OH251271   3.878   2.766  11.813  0.5578 -0.0146  0.2158
 9927TIP3    H151272   3.845   2.852  11.839  1.1431  0.4335 -0.5042
 9927TIP3    H251273   3.883   2.770  11.718 -0.5695 -1.2845  0.0898
 9928TIP3   OH251274   5.465   0.969  14.912  0.6194 -0.5430  0.3241
 9928TIP3    H151275   5.521   0.915  14.966  2.2111  0.2043 -0.5342
 9928TIP3    H251276   5.518   0.988  14.834 -1.2837 -0.8678 -1.0795
 9929TIP3   OH251277   1.012   6.368  16.140  0.5656  0.2664 -0.0116
 9929TIP3    H151278   1.073   6.425  16.186  2.3788 -2.5777  1.2709
 9929TIP3    H251279   0.938   6.358  16.199  0.6207  0.6203  0.1164
 9930TIP3   OH251280   3.816   0.677   4.912 -0.2002 -0.2513 -0.0038
 9930TIP3    H151281   3.889   0.695   4.852 -0.4648  0.1868 -0.1940
 9930TIP3    H251282   3.825   0.583   4.932 -0.1052 -0.3981 -0.7207
 9931TIP3   OH251283   4.630   4.390  13.734 -0.1233  0.2533  0.4133
 9931TIP3    H151284   4.603   4.387  13.826 -0.1884 -1.0981  0.3559
 9931TIP3    H251285   4.719   4.425  13.736 -0.2633  0.5749  0.9651
 9932TIP3   OH251286   3.280   0.410   6.125  0.4722 -0.4076 -0.4455
 9932TIP3    H151287   3.198   0.450   6.098  0.4624  1.1501  1.7289
 9932TIP3    H251288   3.334   0.484   6.154  1.9493 -1.5810 -0.1545
 9933TIP3   OH251289   1.415   1.933   5.951 -0.3627  0.0742  0.1798
 9933TIP3    H151290   1.358   1.892   6.016  1.6306 -1.6821  0.8535
 9933TIP3    H251291   1.365   1.928   5.869 -1.5540 -0.5875  0.9388
 9934TIP3   OH251292   3.170   2.814  15.103  0.0374  0.4229 -0.2508
 9934TIP3    H151293   3.125   2.898  15.104  0.2038  0.5165 -0.7300
 9934TIP3    H251294   3.103   2.751  15.131 -0.3836  0.5649 -0.9308
 9935TIP3   OH251295   3.699   4.191  13.834  0.3121  0.1514 -0.3597
 9935TIP3    H151296   3.714   4.272  13.786  0.4809  0.2961 -0.0677
 9935TIP3    H251297   3.723   4.212  13.925  1.8227 -0.6658 -0.5684
 9936TIP3   OH251298   3.586   3.805  15.549  0.0491  0.0113 -0.3846
 9936TIP3    H151299   3.539   3.721  15.549  0.4970 -0.2429 -0.0350
 9936TIP3    H251300   3.672   3.784  15.513  1.7992 -0.6510  3.8727
 9937TIP3   OH251301   2.852   0.204   2.666  0.1636 -0.2526 -0.0309
 9937TIP3    H151302   2.859   0.118   2.624  0.2026 -1.1009  1.6739
 9937TIP3    H251303   2.757   0.219   2.672  0.1552 -0.2298 -0.1977
 9938TIP3   OH251304   0.909   3.614  14.786  0.1176 -0.3650 -0.1347
 9938TIP3    H151305   0.849   3.645  14.853  0.6172 -2.1103  1.1511
 9938TIP3    H251306   0.906   3.519  14.792  1.5340 -0.5204 -1.3644
 9939TIP3   OH251307   6.309   0.886   4.673 -0.3335 -0.0217 -0.3415
 9939TIP3    H151308   6.300   0.842   4.757 -0.2872  0.7203  0.0552
 9939TIP3    H251309   6.394   0.929   4.677 -0.4637  0.2699 -0.6426
 9940TIP3   OH251310   0.386   1.488   4.877  0.1928 -0.2383 -0.0996
 9940TIP3    H151311   0.394   1.451   4.965  1.9358 -0.0184 -0.1497
 9940TIP3    H251312   0.431   1.425   4.821  0.0308  0.1718 -0.6909
 9941TIP3   OH251313   0.631   2.220  16.178 -0.7362 -0.0612  0.3280
 9941TIP3    H151314   0.710   2.166  16.173 -1.8659 -1.7287  0.0972
 9941TIP3    H251315   0.624   2.258  16.090 -1.0217 -1.1444 -0.1334
 9942TIP3   OH251316   2.257   4.536  15.159  0.1352 -0.4554 -0.3765
 9942TIP3    H151317   2.312   4.490  15.095  0.7818 -0.7633  0.3824
 9942TIP3    H251318   2.241   4.470  15.228 -0.3656 -0.0619 -0.1123
 9943TIP3   OH251319   4.929   4.797   2.653 -0.4701 -0.0707 -0.3754
 9943TIP3    H151320   4.926   4.892   2.663 -1.1038 -0.1547  0.2690
 9943TIP3    H251321   4.841   4.768   2.677  0.0197 -0.9188  0.4156
 9944TIP3   OH251322   1.583   5.363   1.080 -0.0418  0.1068  0.3429
 9944TIP3    H151323   1.678   5.351   1.082  0.1251  0.8360 -1.9033
 9944TIP3    H251324   1.570   5.438   1.022 -2.0514 -0.4528  0.0444
 9945TIP3   OH251325   4.185   0.026  16.647  0.3393  0.4600 -0.2005
 9945TIP3    H151326   4.153   0.017  16.737 -0.9415  1.4921 -0.5467
 9945TIP3    H251327   4.228  -0.058  16.629 -2.1533 -0.9651  0.2652
 9946TIP3   OH251328   2.214   5.305  14.888  0.2583 -0.0672 -0.0802
 9946TIP3    H151329   2.169   5.234  14.934 -1.9757  1.5369  0.3017
 9946TIP3    H251330   2.181   5.300  14.798 -0.6225  1.0261  0.1682
 9947TIP3   OH251331   4.351   2.486  12.966 -0.1076 -0.4658 -0.3326
 9947TIP3    H151332   4.432   2.527  12.998 -1.3371  1.1652  0.8111
 9947TIP3    H251333   4.360   2.487  12.871  2.2619 -2.5323 -0.1637
 9948TIP3   OH251334   3.095   0.248  17.043  0.1812  0.2808  0.3464
 9948TIP3    H151335   3.072   0.159  17.069 -0.5397  0.5607  0.6813
 9948TIP3    H251336   3.013   0.286  17.013  0.0262  1.5391  2.2707
 9949TIP3   OH251337   5.057   0.194  10.607 -0.1249 -0.0193  0.1791
 9949TIP3    H151338   4.991   0.146  10.657 -0.2950 -0.6160 -0.6136
 9949TIP3    H251339   5.008   0.239  10.538  0.2312 -0.0286 -0.0853
 9950TIP3   OH251340   4.022   1.379  16.429  0.4113 -0.2792  0.7057
 9950TIP3    H151341   3.988   1.409  16.345  2.1007  0.7732  0.3788
 9950TIP3    H251342   3.948   1.336  16.471 -0.8967  0.6360 -0.6249
 9951TIP3   OH251343   6.161   3.137   5.375  0.2359 -0.4994  0.5279
 9951TIP3    H151344   6.186   3.229   5.385 -1.7916  0.1465  0.0256
 9951TIP3    H251345   6.132   3.110   5.463 -3.7473  0.8398 -0.2443
 9952TIP3   OH251346   4.724   1.265   5.651  0.2511 -0.0629  0.0389
 9952TIP3    H151347   4.648   1.322   5.658  0.4322  0.1363  0.3761
 9952TIP3    H251348   4.797   1.324   5.634  0.1180 -0.3576 -1.7252
 9953TIP3   OH251349   6.070   2.645  12.851  0.2804  0.6769 -0.0871
 9953TIP3    H151350   6.012   2.645  12.775  0.1827  0.1898 -0.0158
 9953TIP3    H251351   6.103   2.735  12.856  0.7685  0.5567 -1.0604
 9954TIP3   OH251352   5.117   5.058  11.724  0.2919  0.4169  0.1067
 9954TIP3    H151353   5.030   5.096  11.738 -0.0127  0.0498 -0.7718
 9954TIP3    H251354   5.142   5.024  11.810 -0.3007  0.7847  0.4302
 9955TIP3   OH251355   4.971   3.906   2.908 -0.3673  0.4315  1.3621
 9955TIP3    H151356   5.062   3.880   2.894  0.9557  4.0560  2.6145
 9955TIP3    H251357   4.951   3.874   2.996  0.5458  1.7712  2.0706
 9956TIP3   OH251358   0.328   3.601   4.214 -0.0807  0.0765 -0.5188
 9956TIP3    H151359   0.414   3.588   4.174 -0.8516 -0.0677 -2.1497
 9956TIP3    H251360   0.279   3.653   4.151 -1.1938  0.2071  0.4237
 9957TIP3   OH251361   0.183   5.223  17.236  0.1297 -0.2643  0.4232
 9957TIP3    H151362   0.270   5.223  17.196  0.3820 -0.5576  0.9693
 9957TIP3    H251363   0.148   5.310  17.217  1.1669  0.4113  1.5537
 9958TIP3   OH251364   0.648   1.058  13.137  0.5637 -0.0249 -0.3723
 9958TIP3    H151365   0.620   1.132  13.192  1.5416  0.0735  0.0030
 9958TIP3    H251366   0.586   1.057  13.065 -0.0580  0.5502  0.1445
 9959TIP3   OH251367   1.186   2.222   3.899 -0.4972  0.2905  0.4537
 9959TIP3    H151368   1.095   2.250   3.901 -0.7388 -0.4143 -0.4154
 9959TIP3    H251369   1.207   2.213   3.806  0.3130 -0.0053  0.6569
 9960TIP3   OH251370   4.310   6.201  16.652  0.0239 -0.4746  0.6233
 9960TIP3    H151371   4.387   6.177  16.601 -0.2282 -0.2936  0.1528
 9960TIP3    H251372   4.250   6.128  16.641 -1.3006  0.9498 -1.9407
 9961TIP3   OH251373   3.331   1.516   1.836  0.3030  0.1273  0.3987
 9961TIP3    H151374   3.359   1.578   1.768 -1.1179  0.0323 -0.2823
 9961TIP3    H251375   3.250   1.478   1.802  1.3451 -2.3985  0.6360
 9962TIP3   OH251376   0.277   4.281   0.744  0.2359 -0.3923 -0.2908
 9962TIP3    H151377   0.347   4.306   0.806 -1.5990  0.9683  1.2826
 9962TIP3    H251378   0.209   4.347   0.758 -1.0541 -1.2699 -2.3635
 9963TIP3   OH251379   6.699   6.598   0.266  0.7071 -0.5098  0.2397
 9963TIP3    H151380   6.776   6.560   0.224 -1.7712 -2.6112 -2.5484
 9963TIP3    H251381   6.651   6.523   0.302 -0.6515  0.6566  0.9463
 9964TIP3   OH251382   4.134   4.882   0.220  0.3258 -0.9618  0.1290
 9964TIP3    H151383   4.181   4.966   0.218  0.5597 -1.0807  0.6819
 9964TIP3    H251384   4.203   4.817   0.233  0.0859 -1.2002  0.2067
 9965TIP3   OH251385   0.472   1.238   6.053 -0.2243 -0.0222 -0.2208
 9965TIP3    H151386   0.537   1.241   6.123  1.0430 -1.1179 -1.3254
 9965TIP3    H251387   0.388   1.239   6.099  0.5735 -2.9511  1.4542
 9966TIP3   OH251388   3.205   3.409  14.073 -0.1683  0.0215  0.3206
 9966TIP3    H151389   3.194   3.453  13.989  1.9870  1.1862  0.6128
 9966TIP3    H251390   3.187   3.476  14.139  1.0603 -0.0663  0.7681
 9967TIP3   OH251391   6.728   1.970   6.186 -0.2531  0.3692  0.4253
 9967TIP3    H151392   6.633   1.978   6.200 -0.4328 -0.8000 -0.0753
 9967TIP3    H251393   6.766   2.026   6.254 -1.3141  1.4628  0.1403
 9968TIP3   OH251394   5.166   5.659   4.490  0.4105 -0.5055  0.7098
 9968TIP3    H151395   5.117   5.695   4.416  1.1503 -0.0814  0.4153
 9968TIP3    H251396   5.166   5.728   4.556 -0.1159 -0.8252  1.0452
 9969TIP3   OH251397   0.198   1.623  14.900 -0.0036 -0.0630  0.1258
 9969TIP3    H151398   0.289   1.647  14.881  0.4593 -1.1108  0.9560
 9969TIP3    H251399   0.178   1.552  14.838  0.1730 -0.6931  0.7745
 9970TIP3   OH251400   1.982   3.520   1.299  0.1226  0.0112 -0.4855
 9970TIP3    H151401   2.028   3.591   1.343  0.1059 -1.3283  1.8100
 9970TIP3    H251402   2.045   3.485   1.237  0.2758  1.7225 -1.3132
 9971TIP3   OH251403   4.492   5.412   5.175 -0.2271 -0.3580  0.9802
 9971TIP3    H151404   4.528   5.323   5.171  1.8232  0.4367  1.0332
 9971TIP3    H251405   4.508   5.448   5.087  0.3932  0.4859  1.4338
 9972TIP3   OH251406   1.985   5.552   3.058 -0.4739  0.2289  0.3392
 9972TIP3    H151407   2.007   5.466   3.023  0.4815  1.1579 -1.4172
 9972TIP3    H251408   1.973   5.607   2.981 -1.1563  1.6578  1.4344
 9973TIP3   OH251409   4.790   5.789  12.315  0.8948  0.1214  0.1763
 9973TIP3    H151410   4.740   5.712  12.288  2.0181 -1.0267  1.3027
 9973TIP3    H251411   4.787   5.787  12.411  1.2034  1.3151  0.2230
 9974TIP3   OH251412   5.209   0.339   5.692 -0.2803 -0.3217 -0.3712
 9974TIP3    H151413   5.280   0.359   5.753  0.4419 -1.4991 -0.8194
 9974TIP3    H251414   5.231   0.389   5.613 -0.8651  0.6760  0.0900
 9975TIP3   OH251415   3.381   1.744   5.468  0.2550 -0.2922 -0.4115
 9975TIP3    H151416   3.432   1.825   5.481  2.8874 -2.2323  1.8363
 9975TIP3    H251417   3.389   1.727   5.374  1.3886  0.9870 -0.5809
 9976TIP3   OH251418   5.159   6.123  15.933  0.6586 -0.2639  0.0540
 9976TIP3    H151419   5.111   6.194  15.890  0.6649  0.3242  1.0013
 9976TIP3    H251420   5.217   6.167  15.995  0.9502 -1.0790  0.3720
 9977TIP3   OH251421   1.148   0.776   6.360 -0.2707 -0.1548 -0.1022
 9977TIP3    H151422   1.218   0.804   6.419  0.5389 -0.5051 -0.8894
 9977TIP3    H251423   1.071   0.770   6.416  0.2181  0.7069  0.6772
 9978TIP3   OH251424   0.768   1.128  14.670 -0.5284  0.4415  0.1948
 9978TIP3    H151425   0.707   1.110  14.599 -0.4455 -0.9975  0.4832
 9978TIP3    H251426   0.715   1.128  14.749 -0.2244 -0.3590  0.3968
 9979TIP3   OH251427   4.981   5.433  10.975  0.2371  0.5320  0.2394
 9979TIP3    H151428   5.023   5.357  11.015 -1.4142  0.3325  1.6835
 9979TIP3    H251429   4.936   5.397  10.898 -1.7087 -0.2687  1.6946
 9980TIP3   OH251430   3.225   6.710  14.004 -0.0821  0.0399 -0.0720
 9980TIP3    H151431   3.271   6.688  13.923  0.9514 -2.3079  1.0880
 9980TIP3    H251432   3.267   6.791  14.034  1.5979 -0.7193 -0.3354
 9981TIP3   OH251433   2.083   6.420   0.997  0.1516 -0.5385 -0.0201
 9981TIP3    H151434   2.050   6.345   0.947  0.4734 -0.4016 -0.4404
 9981TIP3    H251435   2.085   6.390   1.088  0.6886 -1.1793 -0.2438
 9982TIP3   OH251436   3.966   1.699  15.933 -0.3880  0.4076  0.1675
 9982TIP3    H151437   3.907   1.662  15.867  1.0789  1.3636 -1.7374
 9982TIP3    H251438   4.011   1.624  15.970 -1.6562 -0.1917  0.5293
 9983TIP3   OH251439   5.599   0.577   5.625  0.4421  0.2332 -0.2061
 9983TIP3    H151440   5.683   0.542   5.653  1.6173  2.1647 -1.2431
 9983TIP3    H251441   5.618   0.623   5.543 -1.5892  0.8341 -0.3674
 9984TIP3   OH251442   4.505   3.468   6.662 -0.8060 -0.4424 -0.1353
 9984TIP3    H151443   4.411   3.482   6.673 -0.6896 -0.5905  1.0970
 9984TIP3    H251444   4.545   3.513   6.736  0.0612 -0.9074 -0.3127
 9985TIP3   OH251445   3.087   3.490   2.904  0.0869 -0.1879 -0.1018
 9985TIP3    H151446   3.031   3.566   2.920  0.9715  0.5469 -0.4667
 9985TIP3    H251447   3.122   3.503   2.816 -0.5993 -1.5678 -0.6041
 9986TIP3   OH251448   4.926   3.348   0.198 -0.2000  0.1598  0.1271
 9986TIP3    H151449   4.953   3.267   0.242 -2.1748 -0.4190  0.3706
 9986TIP3    H251450   4.861   3.318   0.134  1.6450  1.1575 -2.2430
 9987TIP3   OH251451   3.258   0.241  14.939 -0.4524  0.2691 -0.0717
 9987TIP3    H151452   3.220   0.170  14.990 -0.9845  1.1440  0.7539
 9987TIP3    H251453   3.298   0.299  15.004 -0.6452  1.0974 -0.6872
 9988TIP3   OH251454   6.389   2.050  15.054 -0.3104 -0.6495 -0.4494
 9988TIP3    H151455   6.470   2.047  15.105 -0.0010 -0.0291 -0.8971
 9988TIP3    H251456   6.418   2.037  14.963 -0.6764 -0.0533 -0.6501
 9989TIP3   OH251457   1.488   2.495  15.960  0.1513  0.3115 -0.6343
 9989TIP3    H151458   1.554   2.519  15.894  0.5633  1.5778  0.2262
 9989TIP3    H251459   1.434   2.573  15.969  0.4689  0.3649  0.9806
 9990TIP3   OH251460   2.340   3.638  11.765 -0.7688 -0.2723  0.8749
 9990TIP3    H151461   2.377   3.598  11.843  0.6925 -3.0331 -1.1287
 9990TIP3    H251462   2.245   3.634  11.779 -0.5040  0.1776  2.9059
 9991TIP3   OH251463   6.479   3.951  12.738 -0.3623  0.7115  0.2440
 9991TIP3    H151464   6.527   3.962  12.820 -1.2287 -0.2543  0.9052
 9991TIP3    H251465   6.543   3.970  12.669  0.8602 -0.2058  1.1108
 9992TIP3   OH251466   0.898   1.376  15.783  0.1187 -0.1026  0.0093
 9992TIP3    H151467   0.916   1.435  15.710  1.2682 -0.3637  0.0585
 9992TIP3    H251468   0.985   1.359  15.821 -0.1900 -1.7848  0.0046
 9993TIP3   OH251469   4.004   2.030   3.156 -0.2232  0.6588 -0.1146
 9993TIP3    H151470   4.092   2.058   3.179  0.3802  0.6913 -2.3125
 9993TIP3    H251471   3.967   2.104   3.108 -0.6227 -0.1840 -1.1349
 9994TIP3   OH251472   2.182   2.037   5.039 -0.0240  0.1301  0.6125
 9994TIP3    H151473   2.161   2.124   5.071 -0.2524 -0.7157  2.8201
 9994TIP3    H251474   2.121   1.979   5.084  0.5353 -1.2489 -0.3561
 9995TIP3   OH251475   4.996   4.912  12.016  0.3953  0.1996  0.6344
 9995TIP3    H151476   4.994   4.827  11.972  0.6318  0.6039 -0.1700
 9995TIP3    H251477   5.088   4.926  12.038  0.2517 -0.0825  1.4212
 9996TIP3   OH251478   5.888   6.699   3.393 -0.0914 -0.0264  0.0460
 9996TIP3    H151479   5.798   6.727   3.410 -0.1077  0.9059 -1.5408
 9996TIP3    H251480   5.933   6.779   3.367  0.0882 -1.2491 -3.6668
 9997TIP3   OH251481   3.624   3.202   1.171  0.0009  0.4133 -0.0115
 9997TIP3    H151482   3.607   3.190   1.265  0.5597 -0.2247  0.0108
 9997TIP3    H251483   3.538   3.215   1.132 -0.3573 -0.7459  0.3840
 9998TIP3   OH251484   3.519   0.267  16.860  0.8929 -0.3291  0.3768
 9998TIP3    H151485   3.536   0.187  16.811  1.5351  0.3525 -0.5527
 9998TIP3    H251486   3.602   0.315  16.855 -0.1102  1.3159 -0.8517
 9999TIP3   OH251487   1.523   5.964   1.309 -0.3359 -0.3525 -0.7821
 9999TIP3    H151488   1.431   5.947   1.327 -0.0062 -0.6164  0.7205
 9999TIP3    H251489   1.545   5.904   1.237 -1.5983  0.4833 -1.8911
10000TIP3   OH251490   3.619   4.336  17.190 -0.0269 -0.1745 -0.2898
10000TIP3    H151491   3.616   4.424  17.153  0.0711  0.9642  2.3432
10000TIP3    H251492   3.538   4.294  17.159  0.3559  0.5052 -2.2806
10001TIP3   OH251493   1.108   1.013   0.155 -0.0828  0.7799 -0.1775
10001TIP3    H151494   1.023   0.970   0.147 -0.6439  2.0753 -1.6370
10001TIP3    H251495   1.152   0.995   0.072  1.6275 -1.0095  1.1012
10002TIP3   OH251496   6.129   5.265  15.567  0.1010  0.2412  0.1563
10002TIP3    H151497   6.158   5.347  15.607 -0.7733 -0.1705  1.6645
10002TIP3    H251498   6.071   5.292  15.496  0.7393  0.9490 -0.1050
10003TIP3   OH251499   0.982   1.866   0.688  0.4608  0.3128 -0.3963
10003TIP3    H151500   0.959   1.959   0.695  2.2316  0.7612 -0.3215
10003TIP3    H251501   1.053   1.864   0.624 -0.1578 -1.0996 -1.0498
10004TIP3   OH251502   1.253   5.359   1.791  0.0393 -0.0245 -0.2498
10004TIP3    H151503   1.188   5.317   1.848 -1.4598  2.1831 -0.2925
10004TIP3    H251504   1.245   5.314   1.707 -2.3409  1.0658 -0.6263
10005TIP3   OH251505   3.267   6.463   4.806 -0.2803  0.3583 -0.7711
10005TIP3    H151506   3.238   6.498   4.891  0.9746  0.4853 -0.3890
10005TIP3    H251507   3.188   6.423   4.769 -0.8856  0.4592  0.3792
10006TIP3   OH251508   2.172   0.331  14.030 -0.4834 -0.4121  0.4108
10006TIP3    H151509   2.128   0.266  13.976 -0.7116  0.6814 -0.7306
10006TIP3    H251510   2.114   0.407  14.028 -1.2247 -0.8420  3.3873
10007TIP3   OH251511   0.304   2.209   3.812  0.3918 -0.3119 -0.2711
10007TIP3    H151512   0.300   2.170   3.900  2.2102  1.3199  0.5755
10007TIP3    H251513   0.250   2.288   3.818 -0.8950 -1.1112 -1.1374
10008TIP3   OH251514   2.948   2.077   2.745 -0.2489  0.5685 -0.3021
10008TIP3    H151515   3.031   2.084   2.792 -1.5484  0.9406  2.0640
10008TIP3    H251516   2.923   2.167   2.727 -0.6562  0.5094 -0.0398
10009TIP3   OH251517   1.189   6.403  12.473 -0.0699  0.0760 -0.1384
10009TIP3    H151518   1.156   6.493  12.481 -1.8915 -0.5744  0.0384
10009TIP3    H251519   1.238   6.388  12.553 -2.1149  0.0067  1.1435
10010TIP3   OH251520   2.884   4.403   5.921 -0.4696 -0.0985 -0.1130
10010TIP3    H151521   2.808   4.411   5.862 -1.4038 -1.2944  0.8897
10010TIP3    H251522   2.858   4.451   5.999 -0.2119 -0.5532  0.2502
10011TIP3   OH251523   4.813   3.826   1.263  0.1067  0.2112 -0.0647
10011TIP3    H151524   4.809   3.735   1.235  1.1740 -0.1331  0.8742
10011TIP3    H251525   4.902   3.854   1.242  1.4169 -0.4541  4.0406
10012TIP3   OH251526   0.160   2.548  14.192  0.3148  0.7332  0.2388
10012TIP3    H151527   0.134   2.470  14.239 -0.5852 -0.0511 -1.5053
10012TIP3    H251528   0.251   2.562  14.217  0.5594 -1.0058  0.3840
10013TIP3   OH251529   1.729   3.149  13.654  0.1206  0.1666  0.6101
10013TIP3    H151530   1.721   3.235  13.695  0.2155  1.2875 -1.6558
10013TIP3    H251531   1.824   3.135  13.647  0.1836  1.8390 -2.8944
10014TIP3   OH251532   6.131   1.039   2.005  0.1383 -0.6221  0.3317
10014TIP3    H151533   6.055   1.098   2.007  0.1743 -0.5317 -0.8248
10014TIP3    H251534   6.134   1.007   1.915  1.5860 -0.4745  0.3254
10015TIP3   OH251535   0.461   1.864  10.844 -0.6155  0.3090  0.1315
10015TIP3    H151536   0.466   1.774  10.811  1.1441  0.5087 -0.2384
10015TIP3    H251537   0.529   1.910  10.795 -0.4152  1.4641  1.4741
10016TIP3   OH251538   1.318   3.075   3.512 -0.0517  0.0383  0.4595
10016TIP3    H151539   1.257   3.001   3.510 -0.9238  0.7674 -1.2336
10016TIP3    H251540   1.318   3.108   3.422 -1.5090  3.5777  1.6567
10017TIP3   OH251541   6.506   6.062  15.461  0.0505  0.5804 -0.3252
10017TIP3    H151542   6.417   6.084  15.434  0.5415 -0.3671 -2.8652
10017TIP3    H251543   6.498   5.975  15.502 -0.2458  0.7165 -0.0888
10018TIP3   OH251544   5.737   5.636  12.829 -0.3195 -0.1440  0.5154
10018TIP3    H151545   5.691   5.595  12.756 -0.4635  2.5775 -0.9993
10018TIP3    H251546   5.822   5.594  12.831 -0.2614 -0.1652 -1.3373
10019TIP3   OH251547   2.654   1.728   2.231  1.0828  0.0440  0.1237
10019TIP3    H151548   2.690   1.651   2.188  2.9559  1.9848 -1.8929
10019TIP3    H251549   2.693   1.727   2.319  0.7515 -1.5147  0.2674
10020TIP3   OH251550   4.783   5.584   1.868  0.4452 -0.1615  0.3092
10020TIP3    H151551   4.815   5.514   1.811  0.3824  0.7253 -0.8218
10020TIP3    H251552   4.858   5.642   1.881  0.3307 -0.1078  0.7575
10021TIP3   OH251553   6.601   6.340   4.894 -0.0362  0.1602  0.1206
10021TIP3    H151554   6.636   6.294   4.970 -3.1484 -0.1463  1.4684
10021TIP3    H251555   6.655   6.311   4.821  0.9017 -2.1698  1.6931
10022TIP3   OH251556   5.204   0.292   4.069  0.2923 -0.0799 -0.0153
10022TIP3    H151557   5.144   0.334   4.007 -0.2100 -0.4523  0.2221
10022TIP3    H251558   5.163   0.208   4.090  0.6455 -0.1165  0.5411
10023TIP3   OH251559   5.716   2.141   6.496  0.2443  0.3377  0.4669
10023TIP3    H151560   5.686   2.056   6.530 -0.1260  0.5845  0.7662
10023TIP3    H251561   5.789   2.165   6.552  1.0614 -0.2964 -0.3049
10024TIP3   OH251562   6.436   0.791  12.832  0.7464  0.0595  0.1898
10024TIP3    H151563   6.477   0.755  12.753  0.5587  0.9966 -0.3351
10024TIP3    H251564   6.509   0.811  12.890  0.8828 -0.6646  0.2697
10025TIP3   OH251565   4.297   3.493   5.099 -0.0710 -0.0068 -0.2544
10025TIP3    H151566   4.351   3.435   5.046  1.7628  0.7031  0.7869
10025TIP3    H251567   4.235   3.434   5.142 -0.2162 -0.8240 -1.5463
10026TIP3   OH251568   2.540   1.525   3.048  0.3477 -0.4969  0.3429
10026TIP3    H151569   2.574   1.508   3.136  0.1011 -2.3269  0.1030
10026TIP3    H251570   2.600   1.480   2.989 -1.2136 -1.8699 -0.2192
10027TIP3   OH251571   6.193   4.952   0.110  0.0036 -0.1209  0.8126
10027TIP3    H151572   6.216   4.957   0.203 -0.6221  1.3080  0.9011
10027TIP3    H251573   6.111   4.902   0.109  1.9941 -3.4963  0.6670
10028TIP3   OH251574   2.785   3.137   3.542  0.2537  0.1250  0.4086
10028TIP3    H151575   2.699   3.097   3.530  0.8566 -0.7926 -1.0986
10028TIP3    H251576   2.790   3.157   3.635 -0.5906 -2.1987  0.9863
10029TIP3   OH251577   2.722   0.968   0.079 -0.3686 -0.7089 -0.3231
10029TIP3    H151578   2.719   1.015  -0.004  0.5828 -1.4268 -0.7798
10029TIP3    H251579   2.775   1.024   0.137  0.2239 -0.9002 -0.6685
10030TIP3   OH251580   5.441   4.335  15.004  0.3187  0.0728  0.4067
10030TIP3    H151581   5.361   4.374  15.039  0.0217 -0.2385  0.0707
10030TIP3    H251582   5.418   4.310  14.915  1.3360  1.7075 -0.3441
10031TIP3   OH251583   6.783   4.549   2.355 -0.0864 -0.4372  0.1612
10031TIP3    H151584   6.838   4.490   2.407 -0.7556 -0.3878  0.9285
10031TIP3    H251585   6.796   4.521   2.265  2.2356  0.4085  0.1895
10032TIP3   OH251586   0.346   1.100  12.672 -0.2416 -0.3738 -0.1840
10032TIP3    H151587   0.417   1.046  12.636 -1.4023 -0.8692 -1.8137
10032TIP3    H251588   0.324   1.161  12.601 -0.8006  0.4118  0.6572
10033TIP3   OH251589   6.009   3.963   0.885 -0.1578  0.3162 -0.3948
10033TIP3    H151590   6.104   3.964   0.898 -0.2888  1.3725  0.6071
10033TIP3    H251591   5.991   3.879   0.844  1.4084  0.8386 -2.1968
10034TIP3   OH251592   1.422   3.663   5.397  0.0686 -0.0229  0.6541
10034TIP3    H151593   1.497   3.607   5.416 -0.8214 -1.1027  1.1025
10034TIP3    H251594   1.409   3.714   5.477  0.9851  0.9615  0.1845
10035TIP3   OH251595   5.818   1.355   4.112 -0.4495  0.1047  0.8393
10035TIP3    H151596   5.831   1.264   4.086 -2.0978 -0.0696  0.5766
10035TIP3    H251597   5.830   1.355   4.207 -2.5657 -0.8224  1.1474
10036TIP3   OH251598   2.824   3.911  10.901 -0.0751  0.3335  0.0299
10036TIP3    H151599   2.793   3.924  10.811 -0.6673  1.3363  0.3776
10036TIP3    H251600   2.910   3.954  10.902 -0.7766  1.7591  0.3823
10037TIP3   OH251601   1.920   3.620   1.917 -0.4703  0.9249  0.2544
10037TIP3    H151602   1.906   3.550   1.980 -0.1151  0.1663 -0.4960
10037TIP3    H251603   1.975   3.581   1.849  0.2522  2.1115  0.1363
10038TIP3   OH251604   3.792   3.408   5.053  0.2836  0.3881 -0.4437
10038TIP3    H151605   3.715   3.460   5.030  0.8539  1.4097 -0.0685
10038TIP3    H251606   3.861   3.473   5.068  0.7897 -0.4183  0.8436
10039TIP3   OH251607   3.878   4.085  16.878  0.4237 -0.7442 -0.0610
10039TIP3    H151608   3.891   4.110  16.787 -1.8883  1.5987  0.2038
10039TIP3    H251609   3.810   4.018  16.876  0.6512 -0.9779 -0.0659
10040TIP3   OH251610   4.036   2.046   0.284 -0.1650 -0.0357 -0.3258
10040TIP3    H151611   3.985   1.966   0.288 -0.1222 -0.0132  0.7958
10040TIP3    H251612   3.978   2.109   0.241 -0.2481 -0.6255 -1.0776
10041TIP3   OH251613   0.872   4.789  13.722 -0.6981 -0.9303 -0.2528
10041TIP3    H151614   0.948   4.842  13.744 -0.1719 -0.1361 -3.6597
10041TIP3    H251615   0.803   4.854  13.703 -2.0956 -1.6265  2.2203
10042TIP3   OH251616   6.374   3.473  17.103  0.3589 -0.0029  0.4256
10042TIP3    H151617   6.403   3.517  17.023 -0.4589 -1.1303 -0.5162
10042TIP3    H251618   6.438   3.499  17.169  0.9201  1.1253 -0.5439
10043TIP3   OH251619   0.047   2.458  13.207  0.0851  0.1687  0.2179
10043TIP3    H151620   0.072   2.420  13.122  0.0843  0.8907 -0.1114
10043TIP3    H251621   0.019   2.547  13.185  0.7463  0.5908  1.0669
10044TIP3   OH251622   1.537   3.171   3.645 -0.6960 -0.7134  0.1463
10044TIP3    H151623   1.446   3.162   3.616 -0.8360 -0.3336  0.4566
10044TIP3    H251624   1.585   3.104   3.596 -1.0144 -0.4140 -0.5809
10045TIP3   OH251625   2.776   1.670  14.381 -0.0140 -0.3830 -0.0575
10045TIP3    H151626   2.787   1.650  14.288  0.4520 -0.5225  0.0274
10045TIP3    H251627   2.825   1.603  14.426 -2.0322 -1.6085  0.3812
10046TIP3   OH251628   6.515   2.785   2.021 -0.1975  0.6384  0.1570
10046TIP3    H151629   6.506   2.871   1.979  0.4375  1.4227  1.5751
10046TIP3    H251630   6.442   2.734   1.985 -0.5777  1.7582 -0.7263
10047TIP3   OH251631   2.963   4.634   5.358 -0.5864 -0.0697  0.2893
10047TIP3    H151632   2.982   4.723   5.386 -0.8524  0.8800 -2.3915
10047TIP3    H251633   2.899   4.602   5.421 -1.0895  1.9230  0.8339
10048TIP3   OH251634   2.478   4.145  16.900 -0.2765 -0.0717  0.0419
10048TIP3    H151635   2.519   4.070  16.941 -0.5297  0.3993  1.1606
10048TIP3    H251636   2.550   4.195  16.861 -0.0791 -0.6994 -0.4045
10049TIP3   OH251637   0.932   6.411   4.535  0.0691 -0.1456 -0.0603
10049TIP3    H151638   0.878   6.427   4.612 -0.9204  1.2298 -1.0196
10049TIP3    H251639   0.872   6.373   4.470  0.5917 -0.0308 -0.6217
10050TIP3   OH251640   0.520   1.971  15.912  0.1208  0.1687  0.2625
10050TIP3    H151641   0.485   1.912  15.978 -0.6332 -0.9303 -1.0737
10050TIP3    H251642   0.492   1.932  15.829  1.8824  0.9721 -0.7273
10051TIP3   OH251643   5.539   1.668   4.546  0.1148 -0.5609  0.1966
10051TIP3    H151644   5.503   1.618   4.473 -0.3943  1.5612 -1.0589
10051TIP3    H251645   5.623   1.701   4.513 -0.4093  0.9296  0.3399
10052TIP3   OH251646   6.393   2.241   2.137 -0.5615  0.5533  0.1711
10052TIP3    H151647   6.415   2.326   2.174  1.2968  0.6074 -0.9922
10052TIP3    H251648   6.456   2.180   2.176  0.9024  0.4752 -2.1947
10053TIP3   OH251649   2.527   0.571  12.433  0.2303 -0.5734 -0.2851
10053TIP3    H151650   2.610   0.617  12.446 -0.3519  0.3612  0.1790
10053TIP3    H251651   2.530   0.544  12.341  1.7425 -1.9716  0.1460
10054TIP3   OH251652   0.025   6.740  12.186 -0.3939 -0.1359 -0.1969
10054TIP3    H151653   0.067   6.823  12.211  0.2527  0.0188 -1.7656
10054TIP3    H251654   0.086   6.673  12.217  0.1339  0.0373 -0.8570
10055TIP3   OH251655   4.547   0.532  14.755  0.3483  0.0423 -0.0267
10055TIP3    H151656   4.577   0.449  14.792 -2.2995 -1.2065 -0.5401
10055TIP3    H251657   4.512   0.580  14.830  3.2478  1.3788  0.5231
10056TIP3   OH251658   2.574   1.146  12.704 -0.2018  0.2223 -0.6767
10056TIP3    H151659   2.627   1.218  12.741  0.8035 -0.5606 -0.5712
10056TIP3    H251660   2.484   1.177  12.712  0.2151  1.5018 -0.6679
10057TIP3   OH251661   4.387   4.739  13.675  0.3213  0.1547 -0.5318
10057TIP3    H151662   4.414   4.698  13.757 -0.6883  0.6741  0.0721
10057TIP3    H251663   4.293   4.755  13.685  0.2183  0.3897 -1.7175
10058TIP3   OH251664   3.684   6.733   3.785 -0.0882  0.3749 -0.9794
10058TIP3    H151665   3.778   6.715   3.789 -0.1163  0.6179  0.9464
10058TIP3    H251666   3.664   6.779   3.866 -1.7690  0.8941 -1.6522
10059TIP3   OH251667   0.062   3.782   3.064 -0.0499  0.6660  0.3341
10059TIP3    H151668   0.083   3.752   2.976 -1.9519 -0.3853  0.2258
10059TIP3    H251669   0.116   3.860   3.076  2.2226 -0.7032 -0.7439
10060TIP3   OH251670   0.476   3.108   0.300  0.1698 -0.2254 -0.2617
10060TIP3    H151671   0.454   3.035   0.242 -0.7071  0.7024 -1.1098
10060TIP3    H251672   0.538   3.162   0.249 -1.3210  1.0866 -0.7171
10061TIP3   OH251673   3.493   6.562   5.647  0.8078  0.3625  0.1679
10061TIP3    H151674   3.497   6.548   5.553  0.3230  1.0757  0.0361
10061TIP3    H251675   3.429   6.498   5.678 -0.9800  1.8314 -0.3546
10062TIP3   OH251676   2.968   3.541   4.785 -0.1062  0.7522 -0.0297
10062TIP3    H151677   3.028   3.501   4.722 -1.0759 -1.0025  0.1326
10062TIP3    H251678   2.933   3.618   4.740 -1.1901 -0.7787 -1.8651
10063TIP3   OH251679   2.568   2.654  13.550 -0.4987 -0.6282 -0.0452
10063TIP3    H151680   2.508   2.606  13.607 -0.4879 -0.0654  0.4504
10063TIP3    H251681   2.653   2.612  13.565 -0.4861 -0.4526  0.3935
10064TIP3   OH251682   1.168   1.693   5.879 -0.0503  0.1327 -0.5511
10064TIP3    H151683   1.232   1.668   5.945 -0.4157 -1.4210 -0.7689
10064TIP3    H251684   1.094   1.634   5.894 -1.0393  1.2510 -0.9334
10065TIP3   OH251685   6.555   5.042   0.479 -0.3918  0.6246  0.1186
10065TIP3    H151686   6.502   5.017   0.555 -0.5327  2.0132  0.4979
10065TIP3    H251687   6.607   5.116   0.509  0.2439  0.5894 -0.8662
10066TIP3   OH251688   2.271   5.047  16.313 -0.0916 -0.4434  0.2632
10066TIP3    H151689   2.252   5.114  16.246  1.1837 -1.2507 -0.9196
10066TIP3    H251690   2.364   5.028  16.303  0.0119 -0.9170  1.9807
10067TIP3   OH251691   5.012   1.388  11.278  0.0318  0.0202 -0.0328
10067TIP3    H151692   5.094   1.345  11.300 -0.8345 -0.3948  2.5663
10067TIP3    H251693   5.039   1.472  11.241  1.6378 -0.5518 -0.2161
10068TIP3   OH251694   2.265   0.521  10.919 -0.2967 -0.4632  0.2430
10068TIP3    H151695   2.294   0.513  10.829 -2.0081 -3.8876 -0.0834
10068TIP3    H251696   2.335   0.481  10.971 -0.2305 -0.3112  0.2710
10069TIP3   OH251697   0.104   6.001   0.608  0.0574 -0.2527 -0.6313
10069TIP3    H151698   0.033   5.980   0.548  1.1172  0.2033 -2.0768
10069TIP3    H251699   0.065   5.993   0.695 -1.2738 -1.7793 -1.3409
10070TIP3   OH251700   4.443   3.300  15.648  0.4836  0.3915 -0.3100
10070TIP3    H151701   4.468   3.389  15.672  0.4308  0.0050  1.2107
10070TIP3    H251702   4.526   3.252  15.646  0.4168  0.2761 -0.2910
10071TIP3   OH251703   3.698   1.628   3.805  0.7888 -0.4604 -0.7386
10071TIP3    H151704   3.637   1.693   3.840 -0.2856 -1.6382 -0.3912
10071TIP3    H251705   3.725   1.577   3.881  1.7467 -0.3192 -0.9864
10072TIP3   OH251706   6.660   1.369  16.038 -0.3460 -0.3258  0.0572
10072TIP3    H151707   6.746   1.354  16.000 -0.2811  0.7773 -0.2633
10072TIP3    H251708   6.620   1.282  16.042  0.0895 -0.6134 -1.4711
10073TIP3   OH251709   1.420   3.629  14.166 -0.0761  0.5666 -0.4242
10073TIP3    H151710   1.333   3.663  14.185  0.2674  0.8644  0.6400
10073TIP3    H251711   1.406   3.564  14.097 -1.2662 -0.1090  0.4260
10074TIP3   OH251712   0.071   3.951   4.214  0.0173  0.5322 -0.5480
10074TIP3    H151713   0.083   4.003   4.134  1.6035  1.2565  0.1453
10074TIP3    H251714   0.135   3.986   4.275  1.5071 -2.6116 -0.2279
10075TIP3   OH251715   6.447   6.138  16.281 -0.0426  0.3615 -0.2440
10075TIP3    H151716   6.428   6.224  16.318 -1.8276 -0.2615  0.3331
10075TIP3    H251717   6.364   6.108  16.245  0.5734 -1.1037 -0.4910
10076TIP3   OH251718   4.000   3.813   1.066 -0.0169  0.0617 -0.5243
10076TIP3    H151719   4.082   3.773   1.039 -0.6883  0.1896 -2.7982
10076TIP3    H251720   4.011   3.906   1.046  0.3620  0.5701  1.8720
10077TIP3   OH251721   3.850   1.907  16.916  0.3899 -0.4015  0.0059
10077TIP3    H151722   3.851   2.002  16.930  0.6048 -0.1163 -1.8590
10077TIP3    H251723   3.866   1.870  17.003  0.6392  1.2791  0.6923
10078TIP3   OH251724   5.031   3.751   5.441 -0.3262 -0.3470 -0.3940
10078TIP3    H151725   4.994   3.824   5.491  2.3224  0.9259 -0.1881
10078TIP3    H251726   5.004   3.768   5.351  2.1486  2.1869 -0.7080
10079TIP3   OH251727   4.605   0.750  17.254  0.4478  0.4062  0.2585
10079TIP3    H151728   4.581   0.661  17.283 -1.1977  0.2107 -1.5712
10079TIP3    H251729   4.635   0.738  17.164 -0.7790  1.8181 -0.3699
10080TIP3   OH251730   1.766   3.822  16.593 -0.2421  0.3803 -0.1740
10080TIP3    H151731   1.751   3.729  16.609 -0.2459  0.3154 -0.5665
10080TIP3    H251732   1.849   3.826  16.546  0.3555  0.6589  0.8810
10081TIP3   OH251733   4.367   1.457  15.088  0.8451  0.3351 -0.5653
10081TIP3    H151734   4.284   1.492  15.118  1.3605  2.6184 -1.7172
10081TIP3    H251735   4.344   1.387  15.027 -0.2102 -3.1936  3.6518
10082TIP3   OH251736   5.373   4.581   3.646  0.1273 -0.6260 -0.6755
10082TIP3    H151737   5.450   4.544   3.689  0.5392  0.2710 -0.6247
10082TIP3    H251738   5.347   4.515   3.582 -1.2141 -2.4960  1.7593
10083TIP3   OH251739   2.466   1.869  16.409  0.3393  0.0075 -0.3499
10083TIP3    H151740   2.558   1.874  16.434 -0.6535  1.9710  3.2677
10083TIP3    H251741   2.430   1.800  16.464 -0.1918 -1.4733 -2.4895
10084TIP3   OH251742   6.613   2.111  15.285  0.1147  0.1050  0.1238
10084TIP3    H151743   6.645   2.131  15.373 -0.2357  3.1842 -0.3612
10084TIP3    H251744   6.520   2.136  15.288  0.1988  0.6022 -1.2134
10085TIP3   OH251745   4.201   0.681   1.138 -0.0883  0.6908 -0.1569
10085TIP3    H151746   4.176   0.771   1.160 -0.1629  0.6525 -0.0846
10085TIP3    H251747   4.131   0.651   1.080 -0.2728  0.5449  0.1355
10086TIP3   OH251748   1.332   6.486   6.100  0.0638 -0.1547  0.1895
10086TIP3    H151749   1.240   6.499   6.123  0.2702  0.1833  0.8299
10086TIP3    H251750   1.344   6.538   6.020 -0.4793 -0.7703 -0.2929
10087TIP3   OH251751   2.779   5.986   0.211 -0.2499  0.2086 -0.0741
10087TIP3    H151752   2.715   6.011   0.278 -0.5457  0.1558 -0.3345
10087TIP3    H251753   2.786   5.891   0.220 -0.0248  0.2453  0.1196
10088TIP3   OH251754   3.731   3.932  15.937 -0.4113  0.8028 -0.7706
10088TIP3    H151755   3.717   4.014  15.983  0.5858  0.0405  0.9616
10088TIP3    H251756   3.714   3.864  16.002 -1.4161 -0.3886 -2.2225
10089TIP3   OH251757   0.875   2.145  16.209 -0.4829 -0.4172  0.2087
10089TIP3    H151758   0.885   2.113  16.299 -0.6765 -0.7518  0.1143
10089TIP3    H251759   0.956   2.120  16.165  0.5122  1.5687  0.8175
10090TIP3   OH251760   4.593   5.908  13.738  0.1645 -0.3247  0.1414
10090TIP3    H151761   4.688   5.916  13.750  0.1293  1.6227 -0.6923
10090TIP3    H251762   4.556   5.958  13.811 -0.1991  0.4434 -0.5727
10091TIP3   OH251763   3.440   2.651   5.434  0.5227 -0.0872 -0.9296
10091TIP3    H151764   3.390   2.576   5.468 -0.9319  0.2749 -2.1867
10091TIP3    H251765   3.376   2.722   5.430  2.5423  2.1004  2.9370
10092TIP3   OH251766   6.681   4.339   1.247 -0.6486 -0.0104 -0.2755
10092TIP3    H151767   6.775   4.357   1.239 -0.2558 -2.0922 -0.6084
10092TIP3    H251768   6.669   4.318   1.340 -0.3270 -1.9664 -0.6362
10093TIP3   OH251769   1.061   0.384   4.082 -0.1655  0.0182 -0.1892
10093TIP3    H151770   1.064   0.426   4.168  1.4192  0.1270 -0.2872
10093TIP3    H251771   0.968   0.385   4.058 -0.5865  0.1915  1.4157
10094TIP3   OH251772   4.013   6.091  16.066  0.3592 -0.1759 -0.0616
10094TIP3    H151773   4.025   5.998  16.048 -0.1803  0.2127 -2.6069
10094TIP3    H251774   4.102   6.127  16.067  0.7378 -1.0411  3.1015
10095TIP3   OH251775   4.993   3.980   1.939 -0.4470  0.0193  0.3047
10095TIP3    H151776   5.007   4.046   1.871  1.5044 -0.7534 -0.1010
10095TIP3    H251777   4.913   3.935   1.913 -0.0372  0.1168 -1.1945
10096TIP3   OH251778   4.035   3.861  12.101  0.9800 -0.1396 -0.1210
10096TIP3    H151779   4.017   3.820  12.186  0.8255 -0.9597 -0.5524
10096TIP3    H251780   4.111   3.815  12.067  2.3304  1.5703  0.4938
10097TIP3   OH251781   4.227   0.010   2.588 -0.4311 -0.5176  0.0278
10097TIP3    H151782   4.185  -0.008   2.672  0.0836 -0.4478  0.3046
10097TIP3    H251783   4.198  -0.060   2.530 -0.8997 -0.4855  0.2254
10098TIP3   OH251784   6.110   4.424   5.251 -0.2800  0.2918  0.2708
10098TIP3    H151785   6.142   4.432   5.162 -0.0219  2.5301  0.5318
10098TIP3    H251786   6.030   4.371   5.244  1.2071 -1.8376 -0.9029
10099TIP3   OH251787   2.385   5.800  11.338  0.1887 -0.7200  0.9065
10099TIP3    H151788   2.322   5.843  11.280  1.6224  0.2388  0.0183
10099TIP3    H251789   2.346   5.809  11.426 -2.0297 -2.2427  0.1279
10100TIP3   OH251790   1.187   5.955   1.167  0.0298  0.5316  0.0661
10100TIP3    H151791   1.147   5.868   1.156  2.5363 -0.6867  0.3658
10100TIP3    H251792   1.178   5.996   1.081 -1.8202  0.2904  0.1122
10101TIP3   OH251793   5.409   2.689   4.571 -0.6826  0.5898 -0.2244
10101TIP3    H151794   5.500   2.713   4.551 -0.2866  0.8756  1.7955
10101TIP3    H251795   5.357   2.762   4.539 -0.0860  0.9576 -0.3562
10102TIP3   OH251796   1.867   3.842  17.273  0.3740  0.3605 -0.2271
10102TIP3    H151797   1.877   3.830  17.178  1.3543 -0.7660  0.0068
10102TIP3    H251798   1.788   3.895  17.282 -0.5216 -0.6794 -1.6257
10103TIP3   OH251799   4.856   5.206  11.447 -0.6637  0.2633 -0.1152
10103TIP3    H151800   4.842   5.300  11.430  1.4952  0.5328 -0.5465
10103TIP3    H251801   4.896   5.203  11.534 -1.7526 -0.3567  0.3771
10104TIP3   OH251802   6.002   2.740   5.342 -0.2936  0.2503 -0.4486
10104TIP3    H151803   6.011   2.741   5.437 -0.9829 -3.3346 -0.2783
10104TIP3    H251804   6.053   2.664   5.314 -0.5795  0.9209 -2.8845
10105TIP3   OH251805   6.091   1.710   1.862 -0.3157 -0.4292 -0.1367
10105TIP3    H151806   6.185   1.706   1.880 -0.1551  0.6654 -0.6831
10105TIP3    H251807   6.071   1.803   1.862 -1.3266 -0.6461 -0.4373
10106TIP3   OH251808   6.669   0.039   3.455  0.3612  0.4345 -0.1917
10106TIP3    H151809   6.764   0.050   3.467  0.9011 -1.7439 -2.0289
10106TIP3    H251810   6.632   0.054   3.542  2.3480  1.7341  0.4613
10107TIP3   OH251811   2.450   3.196  15.607  0.3128 -0.1144 -0.3668
10107TIP3    H151812   2.492   3.281  15.619  0.3552 -0.4247  1.8254
10107TIP3    H251813   2.358   3.218  15.588 -0.0482  0.4047  1.8480
10108TIP3   OH251814   3.470   5.653   4.236 -0.1774 -0.2991  0.2493
10108TIP3    H151815   3.435   5.687   4.319 -0.5155  3.0050 -1.1629
10108TIP3    H251816   3.472   5.730   4.178 -1.5207 -2.8486 -3.3294
10109TIP3   OH251817   1.755   2.364   5.357 -0.2285  0.2296 -0.5613
10109TIP3    H151818   1.771   2.374   5.451 -1.4633 -1.5312 -0.1436
10109TIP3    H251819   1.827   2.411   5.315  0.3003  1.0731  1.2620
10110TIP3   OH251820   2.851   0.350   0.046  0.0273 -0.2933 -0.5749
10110TIP3    H151821   2.828   0.399   0.125 -0.9381  0.7294 -1.4769
10110TIP3    H251822   2.814   0.263   0.060 -0.4917  0.0035 -0.0669
10111TIP3   OH251823   6.666   1.579   3.137 -0.1512  0.4062  0.1561
10111TIP3    H151824   6.610   1.652   3.165  0.4438  1.3274 -1.0365
10111TIP3    H251825   6.691   1.535   3.219 -1.9286  0.4756  0.7695
10112TIP3   OH251826   6.459   0.265  17.272  0.1060  0.2638  0.6350
10112TIP3    H151827   6.470   0.217  17.190 -0.0406  1.0066  0.1825
10112TIP3    H251828   6.499   0.350  17.257 -0.2482  0.5391  1.2088
10113TIP3   OH251829   1.998   5.350   6.580  0.3775 -0.0855 -0.1573
10113TIP3    H151830   2.073   5.364   6.522  0.6706 -1.8541 -0.2148
10113TIP3    H251831   2.037   5.332   6.665  0.0684 -2.6961 -0.5528
10114TIP3   OH251832   6.572   2.644   0.244 -0.5005  0.1131  0.0653
10114TIP3    H151833   6.514   2.715   0.215 -0.8726 -1.4958 -3.3969
10114TIP3    H251834   6.660   2.677   0.228 -0.6682 -0.0498 -1.3189
10115TIP3   OH251835   0.861   3.978   0.012  0.8066  0.0699 -0.1814
10115TIP3    H151836   0.827   3.920  -0.056  0.0253  1.1118 -0.7038
10115TIP3    H251837   0.914   4.042  -0.035  0.7171  0.4724  0.2573
10116TIP3   OH251838   3.230   6.048   3.409 -0.2871  0.2322 -0.4972
10116TIP3    H151839   3.185   6.124   3.446 -0.3545 -0.1920  0.3141
10116TIP3    H251840   3.189   5.973   3.453 -1.9338 -0.4439 -3.0526
10117TIP3   OH251841   0.988   0.583  14.534 -0.1993 -0.6745  0.1719
10117TIP3    H151842   0.973   0.491  14.555  0.6035 -0.5792  1.2117
10117TIP3    H251843   0.969   0.630  14.616  0.1892 -0.0078 -0.1096
10118TIP3   OH251844   5.829   3.033  10.846  0.6733  0.5893  0.3547
10118TIP3    H151845   5.792   3.011  10.761  2.0005  0.5793 -0.2391
10118TIP3    H251846   5.883   3.111  10.829 -2.1845  3.0181  1.9737
10119TIP3   OH251847   2.166   0.424  17.072 -0.2214  0.2039 -0.2619
10119TIP3    H151848   2.088   0.463  17.111  0.5390  0.6919  0.8404
10119TIP3    H251849   2.155   0.330  17.082 -0.2906  0.3064  0.6684
10120TIP3   OH251850   4.477   4.200  16.755 -0.2377 -0.0991 -0.7115
10120TIP3    H151851   4.509   4.286  16.782  1.8979 -0.4327 -2.0642
10120TIP3    H251852   4.422   4.171  16.827  1.6174  1.0321  1.2187
10121TIP3   OH251853   1.779   1.038  15.381  0.2286  0.1952 -0.1571
10121TIP3    H151854   1.686   1.050  15.401  0.0769  0.1585 -0.8456
10121TIP3    H251855   1.780   0.969  15.315  0.7234  0.4699 -0.4349
10122TIP3   OH251856   6.531   4.139  14.656 -0.1736 -0.4049 -0.1174
10122TIP3    H151857   6.557   4.052  14.625 -1.1191 -1.0594  0.8679
10122TIP3    H251858   6.486   4.178  14.581  0.7431 -0.5478 -0.7463
10123TIP3   OH251859   2.167   5.319  11.208 -0.1887 -0.3204  0.1274
10123TIP3    H151860   2.116   5.397  11.228 -2.4349 -1.7344  0.0130
10123TIP3    H251861   2.216   5.342  11.128  0.1763  1.3932  0.8203
10124TIP3   OH251862   6.220   4.698   0.682  0.3395  0.2612 -0.0313
10124TIP3    H151863   6.175   4.759   0.740  0.2782  0.0119  0.1852
10124TIP3    H251864   6.313   4.718   0.692  0.6247 -2.0649  2.8020
10125TIP3   OH251865   3.592   2.952   4.076 -0.5836  0.1824  0.3320
10125TIP3    H151866   3.518   3.011   4.058 -0.9008 -0.4751 -0.6074
10125TIP3    H251867   3.616   2.970   4.166 -0.6728  1.7555  0.0567
10126TIP3   OH251868   5.058   0.675  15.927 -0.0321  0.3116 -0.9525
10126TIP3    H151869   5.050   0.701  15.835 -1.1865 -2.2780 -1.6413
10126TIP3    H251870   5.143   0.632  15.932 -0.7233 -1.1438 -1.2719
10127TIP3   OH251871   1.662   2.647   6.116  0.5946  0.0739  0.0963
10127TIP3    H151872   1.605   2.639   6.192 -0.0840 -1.0000 -0.5091
10127TIP3    H251873   1.649   2.565   6.068 -0.7026  1.6303 -2.3269
10128TIP3   OH251874   6.382   0.620  15.672 -0.7634  0.2307  0.9877
10128TIP3    H151875   6.393   0.543  15.728  0.1861 -0.1654  0.2681
10128TIP3    H251876   6.299   0.605  15.626 -0.1459 -0.7875  0.1937
10129TIP3   OH251877   1.632   1.671  16.950  0.0902 -0.2173 -0.2761
10129TIP3    H151878   1.616   1.691  17.042 -0.4328 -0.3158 -0.3466
10129TIP3    H251879   1.723   1.643  16.947 -0.1703 -1.1469  0.3681
10130TIP3   OH251880   6.117   1.347  16.357 -0.1726 -0.0467 -0.0740
10130TIP3    H151881   6.193   1.301  16.391 -0.2302  1.0415  1.6057
10130TIP3    H251882   6.147   1.436  16.343 -1.6833  0.9753  2.7955
10131TIP3   OH251883   6.689   4.014   6.108  0.3358 -0.1240 -0.1621
10131TIP3    H151884   6.688   3.968   6.023  0.7520  0.5627 -0.5422
10131TIP3    H251885   6.626   4.085   6.097  0.2353 -0.1628  0.1791
10132TIP3   OH251886   5.412   2.779   6.423  0.4325 -0.1149  0.1171
10132TIP3    H151887   5.466   2.856   6.440  1.5521 -0.9006  0.2079
10132TIP3    H251888   5.429   2.758   6.331 -2.4213  1.6871 -0.8803
10133TIP3   OH251889   1.116   4.915  12.787  1.0416  0.0232  0.3012
10133TIP3    H151890   1.093   4.935  12.696  1.3953  0.7202  0.3612
10133TIP3    H251891   1.163   4.832  12.782 -1.9697 -1.7621  0.2338
10134TIP3   OH251892   0.209   6.103   4.583 -0.3169  0.4758  0.4638
10134TIP3    H151893   0.254   6.187   4.595  1.3756 -0.4282  0.6025
10134TIP3    H251894   0.273   6.037   4.612 -1.0945 -0.9518 -0.9756
10135TIP3   OH251895   5.958   2.176   5.347 -0.0187 -0.0335  0.6605
10135TIP3    H151896   5.879   2.123   5.353 -0.5636  0.8254  1.1157
10135TIP3    H251897   5.951   2.239   5.419  1.1459 -0.0481  0.7982
10136TIP3   OH251898   0.778   5.216  10.637  0.0818  0.2732  0.3759
10136TIP3    H151899   0.755   5.208  10.730 -0.3061  0.6400  0.3149
10136TIP3    H251900   0.856   5.272  10.637  0.8593 -0.8007  0.5697
10137TIP3   OH251901   5.440   1.436   4.911  0.0709 -0.2204 -0.0972
10137TIP3    H151902   5.372   1.447   4.844 -0.5985  0.9673  0.7541
10137TIP3    H251903   5.522   1.454   4.865 -0.1039 -2.4716 -1.3263
10138TIP3   OH251904   4.143   5.226  17.111  0.3275 -0.5557  0.3718
10138TIP3    H151905   4.100   5.189  17.035 -1.0082 -1.6722  1.6372
10138TIP3    H251906   4.236   5.206  17.099 -0.1052 -2.3762 -0.0597
10139TIP3   OH251907   4.411   4.882  15.471 -0.1249 -0.5121  0.4474
10139TIP3    H151908   4.504   4.875  15.490 -0.1720 -0.9054  0.5217
10139TIP3    H251909   4.374   4.924  15.548  0.1713  0.7203 -0.0626
10140TIP3   OH251910   0.519   6.743   5.113  0.0891  0.0169 -0.1116
10140TIP3    H151911   0.431   6.776   5.093  0.0307  0.7319  1.2107
10140TIP3    H251912   0.522   6.741   5.209  1.5188 -0.0029 -0.1450
10141TIP3   OH251913   4.779   0.900  14.592 -0.4694 -0.0027  0.4806
10141TIP3    H151914   4.727   0.874  14.515  1.4674 -0.1794 -0.8140
10141TIP3    H251915   4.806   0.990  14.574 -0.8650  0.3171  1.4518
10142TIP3   OH251916   3.417   6.311   4.426 -0.1124 -0.0180  0.3822
10142TIP3    H151917   3.361   6.387   4.438  0.2565  0.2517  0.3876
10142TIP3    H251918   3.406   6.288   4.333  2.2663  2.0159 -0.4619
10143TIP3   OH251919   0.959   4.521  14.712 -0.2181  0.3326  0.0908
10143TIP3    H151920   1.021   4.570  14.659 -0.8451  1.1835  0.1311
10143TIP3    H251921   0.925   4.453  14.654  1.0437 -0.3923  0.1894
10144TIP3   OH251922   4.883   5.090   0.320 -0.3847  0.3521  0.0391
10144TIP3    H151923   4.927   5.167   0.356 -0.4800 -0.4083  1.8403
10144TIP3    H251924   4.793   5.097   0.353 -0.2966 -0.7257  0.5236
10145TIP3   OH251925   3.559   3.408  14.863 -0.5225  0.2208 -0.4110
10145TIP3    H151926   3.552   3.313  14.855 -1.3492  0.2184  0.2263
10145TIP3    H251927   3.476   3.442  14.829 -0.2710  0.7061 -0.5516
10146TIP3   OH251928   1.278   5.974  13.153 -0.1455 -0.3670 -1.1559
10146TIP3    H151929   1.258   5.939  13.240  0.8338  0.3656 -0.6215
10146TIP3    H251930   1.347   5.917  13.119  2.6292  1.9228  0.3939
10147TIP3   OH251931   0.339   4.498   0.374  0.1423  0.1357  0.0219
10147TIP3    H151932   0.316   4.560   0.444 -1.2473  0.6748 -0.8814
10147TIP3    H251933   0.254   4.465   0.344  0.8717 -2.3373  0.5792
10148TIP3   OH251934   0.456   4.666  15.843  0.6845 -0.2193  0.4901
10148TIP3    H151935   0.469   4.694  15.934 -0.2572  0.3968  0.4491
10148TIP3    H251936   0.445   4.748  15.794 -3.2731 -0.5883  0.5497
10149TIP3   OH251937   4.958   0.096   4.687 -0.5598  0.1427 -0.4147
10149TIP3    H151938   4.889   0.030   4.683 -0.5352  0.1961 -2.0151
10149TIP3    H251939   4.912   0.180   4.691 -0.6027  0.0268  2.5825
10150TIP3   OH251940   4.241   2.898  11.828 -0.0265  0.0303 -0.2954
10150TIP3    H151941   4.200   2.977  11.864 -0.7273  0.0540 -1.1236
10150TIP3    H251942   4.212   2.827  11.886  0.2331  0.3088  0.1774
10151TIP3   OH251943   3.782   5.232   3.412  0.7952  0.0554 -0.2804
10151TIP3    H151944   3.872   5.227   3.379  0.6132  0.7461 -0.8822
10151TIP3    H251945   3.774   5.320   3.448 -0.2539  0.6928 -2.0267
10152TIP3   OH251946   5.281   1.907  11.225 -0.8844  0.4588  0.7147
10152TIP3    H151947   5.244   1.966  11.159 -1.8213 -0.2590  0.6022
10152TIP3    H251948   5.371   1.893  11.195 -0.4856  2.1937  0.9951
10153TIP3   OH251949   2.719   3.269   0.851 -0.2522 -0.2738  0.9375
10153TIP3    H151950   2.661   3.225   0.789 -0.4314  0.6740  0.4312
10153TIP3    H251951   2.794   3.210   0.858 -0.2219 -0.3883 -0.1913
10154TIP3   OH251952   0.559   3.314   3.095 -0.1377  0.0477 -0.0860
10154TIP3    H151953   0.638   3.262   3.085 -0.6051 -0.4688 -1.0772
10154TIP3    H251954   0.589   3.397   3.134  0.9507  0.0648 -0.9678
10155TIP3   OH251955   0.438   3.419   4.917 -0.5705 -0.7917  0.2233
10155TIP3    H151956   0.463   3.382   4.833 -0.6068  0.4033 -0.3275
10155TIP3    H251957   0.351   3.383   4.934 -0.7510 -0.6865 -0.4654
10156TIP3   OH251958   0.988   4.381   2.898  0.1901 -0.6282  0.3053
10156TIP3    H151959   1.027   4.297   2.878  1.1112  0.1632 -1.2987
10156TIP3    H251960   1.061   4.434   2.931  0.3093  0.5109 -1.6757
10157TIP3   OH251961   5.777   2.689  16.065 -0.8040  0.6673  0.3759
10157TIP3    H151962   5.746   2.771  16.103  1.0086  0.6400  1.9989
10157TIP3    H251963   5.779   2.628  16.139 -0.9254 -0.4870 -0.5644
10158TIP3   OH251964   5.528   1.378   4.191  0.4751 -0.0874  0.1080
10158TIP3    H151965   5.461   1.334   4.138 -0.6603  2.2012 -0.3953
10158TIP3    H251966   5.611   1.341   4.159 -0.2357  0.6369 -2.7310
10159TIP3   OH251967   1.566   1.298  13.265 -0.3714 -0.3739  0.3574
10159TIP3    H151968   1.548   1.221  13.319 -0.4928 -0.3367  0.3706
10159TIP3    H251969   1.636   1.271  13.206  2.3508  0.7024  2.9836
10160TIP3   OH251970   3.446   5.438   2.705  0.0022 -0.2273 -0.7544
10160TIP3    H151971   3.353   5.446   2.725  0.4411  1.0621  0.9506
10160TIP3    H251972   3.480   5.527   2.713  1.4299 -0.7228 -1.1177
10161TIP3   OH251973   0.294   3.123   3.788 -0.1553  0.0558  0.0680
10161TIP3    H151974   0.254   3.039   3.812 -1.7402  1.7775  3.7797
10161TIP3    H251975   0.355   3.142   3.860  1.4279  1.3065 -1.5668
10162TIP3   OH251976   4.699   3.697  10.950  0.1767  0.5532  0.0124
10162TIP3    H151977   4.623   3.683  10.893 -2.0200 -0.0476  2.9979
10162TIP3    H251978   4.677   3.774  11.001  1.5786  0.3572  0.9523
10163TIP3   OH251979   0.463   2.912   2.300  0.2592  0.0015  0.6175
10163TIP3    H151980   0.386   2.900   2.244  1.1790  0.0997 -0.6818
10163TIP3    H251981   0.427   2.917   2.389 -1.1676 -0.6981  0.0975
10164TIP3   OH251982   3.253   6.556   5.906  0.0932  0.1009  0.3105
10164TIP3    H151983   3.346   6.575   5.894 -0.2343  1.4429 -0.1961
10164TIP3    H251984   3.247   6.517   5.993  0.7114  2.8956  1.6397
10165TIP3   OH251985   2.815   1.907  16.240 -0.1722  0.5128 -0.3252
10165TIP3    H151986   2.821   1.992  16.196  0.4146  0.1283 -1.0061
10165TIP3    H251987   2.891   1.858  16.208 -0.0139  0.0436  0.7413
10166TIP3   OH251988   0.289   1.525   3.853  0.0534  0.2280 -0.1183
10166TIP3    H151989   0.363   1.541   3.795  1.2960  1.5258  1.7556
10166TIP3    H251990   0.267   1.611   3.889 -0.2884 -0.6131  1.7735
10167TIP3   OH251991   3.662   5.825   4.705 -0.1830  0.1200  0.0136
10167TIP3    H151992   3.687   5.795   4.793  1.0690 -1.1096 -0.7381
10167TIP3    H251993   3.597   5.893   4.720 -1.5730 -1.5766  1.8318
10168TIP3   OH251994   3.977   3.395  16.062  0.7740 -0.1072  0.1691
10168TIP3    H151995   4.042   3.379  15.994 -0.1037 -0.1444 -0.6627
10168TIP3    H251996   4.026   3.387  16.144  1.8331 -0.0511 -0.4516
10169TIP3   OH251997   2.439   2.297  14.091  0.1874 -0.1601  0.1455
10169TIP3    H151998   2.533   2.279  14.091  0.1775 -0.2112  0.1001
10169TIP3    H251999   2.400   2.224  14.041 -0.1344 -1.5532  2.3427
10170TIP3   OH252000   1.959   3.587  10.926  0.1120  0.2265 -0.4117
10170TIP3    H152001   2.014   3.661  10.949  0.7721 -0.3664 -0.0487
10170TIP3    H252002   1.874   3.606  10.966  0.6935  0.1111  0.9284
10171TIP3   OH252003   6.117   1.985   1.926  0.0686  0.1476 -0.2445
10171TIP3    H152004   6.191   2.024   1.878  0.8219 -1.4761 -0.4470
10171TIP3    H252005   6.042   1.999   1.869  0.5550  0.2241 -0.8795
10172TIP3   OH252006   0.879   3.443   6.352 -0.0586  0.6189 -0.3568
10172TIP3    H152007   0.865   3.382   6.423  0.9163 -0.4611 -1.0681
10172TIP3    H252008   0.973   3.436   6.332 -0.3321  0.8070 -1.8064
10173TIP3   OH252009   3.259   4.796  11.026  0.1937  0.3755  0.0638
10173TIP3    H152010   3.345   4.822  10.991 -0.2339  0.1245 -1.1708
10173TIP3    H252011   3.252   4.846  11.108  2.4921 -1.3156  1.3486
10174TIP3   OH252012   0.637   0.707  14.686  0.2720  0.5482  0.3191
10174TIP3    H152013   0.605   0.624  14.721  0.2219  0.2816 -0.3438
10174TIP3    H252014   0.730   0.707  14.709  0.4091  0.0218 -0.2054
10175TIP3   OH252015   3.049   1.682   2.145  0.1615 -0.2855  0.1167
10175TIP3    H152016   3.082   1.658   2.232 -0.5214  2.6753  1.2607
10175TIP3    H252017   2.983   1.749   2.163 -1.1589 -0.8351 -2.6056
10176TIP3   OH252018   2.522   1.116  11.579 -0.4213  0.0556 -0.3222
10176TIP3    H152019   2.480   1.176  11.640  0.3736  0.0261  0.2766
10176TIP3    H252020   2.563   1.173  11.514  1.4503  0.2540  0.9792
10177TIP3   OH252021   0.454   2.615   2.868 -0.2995 -0.4934  0.3475
10177TIP3    H152022   0.386   2.661   2.819  0.1012  0.1594  0.4011
10177TIP3    H252023   0.524   2.601   2.804 -0.0874 -0.3072  0.5365
10178TIP3   OH252024   5.113   3.390  15.931 -0.4016  0.1493 -0.6603
10178TIP3    H152025   5.137   3.469  15.882  3.0838 -0.8103 -0.6098
10178TIP3    H252026   5.191   3.369  15.983 -2.1552 -1.8998  1.2367
10179TIP3   OH252027   1.996   5.589  13.509 -0.5437 -0.1609 -1.4894
10179TIP3    H152028   1.941   5.601  13.432 -0.5139  0.8374 -1.3709
10179TIP3    H252029   1.951   5.637  13.578 -0.3019 -0.6095 -1.0243
10180TIP3   OH252030   3.604   3.673  17.035  0.0786 -0.5958  0.3600
10180TIP3    H152031   3.587   3.690  17.127  0.2485  0.3782  0.2190
10180TIP3    H252032   3.694   3.639  17.033  0.3241  0.0266  0.4953
10181TIP3   OH252033   4.990   4.269  16.389 -0.1833 -0.2419 -0.4557
10181TIP3    H152034   5.059   4.234  16.333 -1.0021  1.2647 -2.4793
10181TIP3    H252035   4.911   4.222  16.361 -0.0695 -1.7576  1.6541
10182TIP3   OH252036   2.926   0.575  16.368 -0.3583  0.0759  0.0901
10182TIP3    H152037   2.896   0.524  16.443 -0.6312 -0.7803 -0.6018
10182TIP3    H252038   2.894   0.527  16.291 -1.4114  1.7607 -0.5566
10183TIP3   OH252039   1.606   1.842   1.948 -0.5048 -0.3808  0.1075
10183TIP3    H152040   1.558   1.909   1.899  1.3548  0.4712 -0.6237
10183TIP3    H252041   1.620   1.880   2.034 -0.6603 -0.3997  0.1408
10184TIP3   OH252042   2.106   4.207   1.789  0.2948 -0.0545  0.0042
10184TIP3    H152043   2.129   4.260   1.712  3.2535  1.1977  1.6940
10184TIP3    H252044   2.014   4.184   1.774 -0.0070  2.4191 -2.6049
10185TIP3   OH252045   4.263   6.430   0.686 -0.3771 -0.5875  0.6938
10185TIP3    H152046   4.251   6.520   0.718  0.7933 -0.3482  0.4589
10185TIP3    H252047   4.191   6.381   0.726 -0.9306  0.4232  0.9456
10186TIP3   OH252048   5.398   5.248  15.284 -0.2887 -0.2583 -0.2314
10186TIP3    H152049   5.459   5.251  15.359  0.9951  0.6477 -1.2779
10186TIP3    H252050   5.453   5.224  15.210 -1.0208  1.4904 -1.3730
10187TIP3   OH252051   5.473   4.700  12.452  0.0512 -0.0719  0.1410
10187TIP3    H152052   5.547   4.716  12.511 -0.1336  0.5474  0.2129
10187TIP3    H252053   5.513   4.675  12.369  0.3706  0.9834 -0.0347
10188TIP3   OH252054   2.022   3.536   0.303  0.6391 -0.8415 -0.0000
10188TIP3    H152055   2.002   3.457   0.353 -0.1609 -1.4746 -1.2944
10188TIP3    H252056   1.944   3.552   0.250  2.1345 -1.2726 -2.4299
10189TIP3   OH252057   6.061   6.536   4.348 -0.8114  0.7421  0.0240
10189TIP3    H152058   5.968   6.556   4.341 -1.2280 -0.8977  0.8369
10189TIP3    H252059   6.087   6.572   4.433 -1.2480 -0.9507  0.8723
10190TIP3   OH252060   3.330   6.254  16.478 -0.0581  0.1181  0.1861
10190TIP3    H152061   3.274   6.257  16.401 -0.3821  0.0075  0.4199
10190TIP3    H252062   3.419   6.265  16.443 -0.0570 -1.5060 -0.3716
10191TIP3   OH252063   4.672   6.180   4.307 -0.0856  0.2479  0.1029
10191TIP3    H152064   4.677   6.210   4.398  2.4741 -1.0753  0.4458
10191TIP3    H252065   4.640   6.090   4.314 -1.4100  0.6701 -0.4376
10192TIP3   OH252066   3.841   1.878   3.392  0.3842  0.0465  0.1992
10192TIP3    H152067   3.901   1.942   3.355 -0.8145  0.4032 -1.1502
10192TIP3    H252068   3.771   1.869   3.327 -0.7927 -0.7030  1.5263
10193TIP3   OH252069   0.380   0.257  12.991  0.0005  0.0948  0.5100
10193TIP3    H152070   0.334   0.262  12.907 -1.0546 -0.1925  1.0613
10193TIP3    H252071   0.313   0.226  13.053  0.8753 -0.0922  1.3702
10194TIP3   OH252072   1.492   2.941   3.259 -0.2564 -0.0308 -0.8611
10194TIP3    H152073   1.534   3.007   3.315  1.7640 -0.3599 -1.9344
10194TIP3    H252074   1.485   2.983   3.174 -0.9325 -0.4550 -1.0200
10195TIP3   OH252075   2.156   3.791  16.959 -0.3978 -0.3381  0.5044
10195TIP3    H152076   2.233   3.814  17.011  0.7165  0.2883 -1.3873
10195TIP3    H252077   2.083   3.834  17.003  0.7761  1.6288  0.5779
10196TIP3   OH252078   3.985   1.041   2.774  0.2088  0.1544  1.1693
10196TIP3    H152079   3.939   1.053   2.691 -0.7769  0.2169  1.7204
10196TIP3    H252080   4.007   0.948   2.777  0.5909  0.2290  0.6557
10197TIP3   OH252081   2.455   0.565  15.027 -0.4465  0.2348 -0.3362
10197TIP3    H152082   2.471   0.472  15.039 -0.5663  0.4280  1.5037
10197TIP3    H252083   2.403   0.591  15.104  0.4194  1.9905 -0.3046
10198TIP3   OH252084   2.443   5.761  13.082 -0.5835 -0.3788  0.0557
10198TIP3    H152085   2.361   5.726  13.118  0.0551  0.2941  2.2050
10198TIP3    H252086   2.468   5.830  13.143  1.2229 -0.0818 -1.0022
10199TIP3   OH252087   1.843   3.870   5.462 -0.1890 -0.1227 -0.0171
10199TIP3    H152088   1.811   3.821   5.385 -0.1528  0.7697 -0.6068
10199TIP3    H252089   1.783   3.846   5.532  0.4416 -1.8358 -0.0233
10200TIP3   OH252090   3.380   5.095   1.883 -0.0750  0.1050 -0.1290
10200TIP3    H152091   3.313   5.076   1.948  0.3272 -1.5689 -0.1911
10200TIP3    H252092   3.333   5.095   1.799 -0.5676  2.1317  0.1088
10201TIP3   OH252093   3.217   2.790   3.039  0.1989 -0.1889 -0.1485
10201TIP3    H152094   3.131   2.751   3.053 -0.9805  2.2016 -0.4966
10201TIP3    H252095   3.235   2.777   2.946 -0.1829  0.0486 -0.2575
10202TIP3   OH252096   3.033   0.843   6.359 -0.1874 -0.2938  0.1712
10202TIP3    H152097   3.097   0.901   6.400  0.0961 -0.5337  0.0666
10202TIP3    H252098   3.078   0.807   6.283 -0.1166 -1.1964  0.6306
10203TIP3   OH252099   5.424   6.108   2.620  0.6012  0.1838  0.9133
10203TIP3    H152100   5.442   6.028   2.668  2.3777  0.7581  1.2580
10203TIP3    H252101   5.440   6.178   2.684 -2.8952  0.8091  1.2458
10204TIP3   OH252102   5.669   4.525   4.931 -0.1865 -0.3902  0.2305
10204TIP3    H152103   5.618   4.449   4.901  1.5139 -1.2189 -0.6449
10204TIP3    H252104   5.637   4.598   4.878 -1.5725 -0.5565  0.8092
10205TIP3   OH252105   2.343   3.288   2.636 -0.3501 -0.5022  0.7068
10205TIP3    H152106   2.277   3.272   2.569 -1.3967  0.6629  1.4378
10205TIP3    H252107   2.426   3.293   2.588 -0.9134 -1.1094 -0.3169
10206TIP3   OH252108   4.223   2.628   4.161  0.4113  0.2919  0.1960
10206TIP3    H152109   4.296   2.690   4.152  1.5326 -0.7979  1.5334
10206TIP3    H252110   4.195   2.637   4.252  0.0298 -0.5474  0.1676
10207TIP3   OH252111   3.348   2.657   2.548  0.5902  0.3822  0.5291
10207TIP3    H152112   3.385   2.611   2.472  0.6760 -1.1964  1.5087
10207TIP3    H252113   3.277   2.709   2.511  1.4624  0.6381 -0.8307
10208TIP3   OH252114   4.973   6.286   2.778  0.3552 -0.0708  0.0592
10208TIP3    H152115   5.025   6.366   2.770 -1.6130  1.1295 -1.2039
10208TIP3    H252116   4.991   6.237   2.698  0.3944 -0.1750  0.1313
10209TIP3   OH252117   6.302   3.488  10.933 -0.0057 -0.3924  0.1761
10209TIP3    H152118   6.280   3.511  10.843  2.9480 -0.5997 -0.6495
10209TIP3    H252119   6.218   3.483  10.978 -1.4187  1.2921 -2.1871
10210TIP3   OH252120   3.415   5.909   0.141  0.2056 -0.0446  0.2110
10210TIP3    H152121   3.498   5.939   0.178 -1.4302  3.8347  0.9497
10210TIP3    H252122   3.397   5.971   0.070 -1.4113 -1.6857 -0.8471
10211TIP3   OH252123   1.392   5.769  14.701  0.2845 -0.2814 -0.3163
10211TIP3    H152124   1.319   5.780  14.761 -0.5525  1.3663 -1.5860
10211TIP3    H252125   1.469   5.769  14.757 -0.6621 -2.0229  1.0312
10212TIP3   OH252126   0.155   2.780   2.700  0.0894  0.3330 -0.3214
10212TIP3    H152127   0.169   2.873   2.719 -1.1736  1.3880 -4.0641
10212TIP3    H252128   0.066   2.762   2.731 -1.2206  1.5226 -3.1785
10213TIP3   OH252129   0.249   0.636   2.009 -0.2780 -0.5162  0.2211
10213TIP3    H152130   0.157   0.660   1.994 -0.7588 -1.2648  1.8332
10213TIP3    H252131   0.276   0.591   1.929 -0.6750  1.5185 -1.1074
10214TIP3   OH252132   4.369   6.652  11.729 -0.4206  0.4605 -0.3504
10214TIP3    H152133   4.342   6.707  11.802 -0.7639 -0.2214  0.0472
10214TIP3    H252134   4.290   6.640  11.677  0.0694  1.8319 -1.4306
10215TIP3   OH252135   0.753   6.150  14.455  0.3598 -0.1470 -0.4022
10215TIP3    H152136   0.800   6.231  14.433  1.5957 -1.1298 -1.4518
10215TIP3    H252137   0.713   6.123  14.372  1.3378 -1.4871 -0.4572
10216TIP3   OH252138   1.684   4.266  15.215  0.3767  0.0235  0.3012
10216TIP3    H152139   1.676   4.324  15.291  1.9921 -0.2217  0.6789
10216TIP3    H252140   1.722   4.185  15.251 -0.1754 -0.6129 -0.5266
10217TIP3   OH252141   2.084   4.222  11.787 -0.1969 -0.5426  0.1424
10217TIP3    H152142   2.077   4.217  11.692  1.7255  1.0968 -0.1171
10217TIP3    H252143   2.036   4.301  11.810 -0.8431 -1.0551  0.5682
10218TIP3   OH252144   6.001   4.598   3.414  0.3371 -0.7058 -0.2288
10218TIP3    H152145   6.021   4.635   3.500 -0.9413 -0.1166 -0.1713
10218TIP3    H252146   5.985   4.674   3.358  1.2055 -1.0846 -1.0017
10219TIP3   OH252147   3.423   0.310   5.710  0.2653 -0.0242 -0.1671
10219TIP3    H152148   3.460   0.223   5.696 -1.3323 -0.7950  0.2472
10219TIP3    H252149   3.331   0.301   5.686 -0.5032  0.9066  2.2525
10220TIP3   OH252150   2.588   4.060   4.229  0.3562  0.0947 -0.2505
10220TIP3    H152151   2.664   4.002   4.218  1.2573  1.0780  0.6803
10220TIP3    H252152   2.568   4.089   4.141 -0.2774 -1.8290 -0.7745
10221TIP3   OH252153   4.606   3.240  13.888 -0.3207  1.0652 -0.0082
10221TIP3    H152154   4.695   3.259  13.857  0.1070  0.9560  1.1359
10221TIP3    H252155   4.549   3.269  13.817  0.5921  1.8049 -0.4425
10222TIP3   OH252156   2.455   5.437   4.483  0.0147  0.1114  0.2028
10222TIP3    H152157   2.454   5.455   4.577 -0.9173 -1.2702  0.4773
10222TIP3    H252158   2.417   5.349   4.475 -1.7522  1.0039 -1.6215
10223TIP3   OH252159   3.701   1.441  12.536 -0.6904  0.1886 -1.2437
10223TIP3    H152160   3.779   1.494  12.526  0.2525 -1.2490 -1.6483
10223TIP3    H252161   3.632   1.492  12.494 -0.2098  1.9489  0.0679
10224TIP3   OH252162   6.805   0.452   0.275 -0.2190 -0.0354  0.5981
10224TIP3    H152163   6.748   0.509   0.225 -1.2748 -0.2506  1.5348
10224TIP3    H252164   6.887   0.449   0.224 -0.7072  1.0065 -0.2702
10225TIP3   OH252165   5.468   2.205   5.404  0.2456 -0.0513  0.0824
10225TIP3    H152166   5.431   2.148   5.336  1.0890  0.1924 -0.5844
10225TIP3    H252167   5.442   2.293   5.378  1.6252  0.1590 -0.6017
10226TIP3   OH252168   4.127   6.293   1.105  0.3167  0.1878 -0.1710
10226TIP3    H152169   4.088   6.324   1.187 -1.1416 -1.7445 -0.1150
10226TIP3    H252170   4.104   6.201   1.100  2.0661 -0.2021 -1.8204
10227TIP3   OH252171   2.357   4.629   5.893  0.4063 -0.1711  0.3406
10227TIP3    H152172   2.448   4.637   5.923  1.4673 -1.3178 -2.3980
10227TIP3    H252173   2.336   4.716   5.859  1.0010 -0.2876 -0.3486
10228TIP3   OH252174   3.432   4.875  12.709  0.5102  0.0785 -0.3701
10228TIP3    H152175   3.375   4.799  12.705  1.0439 -0.2428 -2.2382
10228TIP3    H252176   3.377   4.946  12.742 -0.3901 -0.7490 -0.1012
10229TIP3   OH252177   3.908   0.217  17.284  0.0532 -0.2569  0.1090
10229TIP3    H152178   3.908   0.175  17.198  0.1603 -2.0730  0.9642
10229TIP3    H252179   3.823   0.194  17.321 -0.4601  1.4662  0.0716
10230TIP3   OH252180   5.442   3.037   0.485  0.0390  0.4656 -0.2034
10230TIP3    H152181   5.488   2.981   0.547  0.8348  0.5249 -0.7413
10230TIP3    H252182   5.510   3.074   0.430 -0.8833 -1.7620 -2.9202
10231TIP3   OH252183   6.055   6.055  15.976  0.4000 -0.1789 -0.5693
10231TIP3    H152184   6.105   6.081  16.053  3.7040 -3.9258 -1.3238
10231TIP3    H252185   6.092   6.106  15.904 -0.0750  0.4674 -0.3664
10232TIP3   OH252186   3.773   4.217   0.415 -0.2602 -0.7221  0.6869
10232TIP3    H152187   3.682   4.221   0.444 -0.5184  1.1877 -0.3546
10232TIP3    H252188   3.770   4.169   0.332 -0.2797 -0.9020  0.7916
10233TIP3   OH252189   2.822   6.601  17.210 -0.4680  0.2536  0.1289
10233TIP3    H152190   2.836   6.543  17.135 -2.1634 -1.0849  0.8202
10233TIP3    H252191   2.767   6.671  17.176  0.8258  1.0009 -0.4760
10234TIP3   OH252192   3.486   2.298   1.909  0.2105  0.0937 -0.1750
10234TIP3    H152193   3.461   2.352   1.985 -0.5615  1.8861 -1.6552
10234TIP3    H252194   3.404   2.281   1.864  0.7293 -0.5061 -0.8944
10235TIP3   OH252195   4.904   3.299   2.132  0.2285 -0.2875  0.0928
10235TIP3    H152196   4.937   3.385   2.159 -0.4799  0.0782 -0.2023
10235TIP3    H252197   4.922   3.294   2.039 -1.5635  0.3972 -0.3218
10236TIP3   OH252198   4.288   2.707   5.378  0.0284  0.0796 -0.0938
10236TIP3    H152199   4.302   2.643   5.448 -0.1159 -0.6430 -0.7205
10236TIP3    H252200   4.242   2.779   5.421 -0.5982 -0.6208  0.4403
10237TIP3   OH252201   6.000   3.537  12.070  0.3203 -1.0298 -0.3813
10237TIP3    H152202   6.083   3.581  12.053  0.3974 -1.8210 -2.1438
10237TIP3    H252203   6.023   3.465  12.129  1.2950 -2.5943 -2.5944
10238TIP3   OH252204   0.472   0.157   0.690  0.2360 -0.3792 -0.3235
10238TIP3    H152205   0.408   0.224   0.666  1.6946  0.8155 -1.0018
10238TIP3    H252206   0.556   0.196   0.666  0.9704 -3.4642 -3.1947
10239TIP3   OH252207   5.796   1.169  14.778 -0.5027  0.1961 -0.4315
10239TIP3    H152208   5.782   1.257  14.813 -1.4730 -0.0848 -0.0876
10239TIP3    H252209   5.745   1.168  14.697  1.1473  0.6065 -1.5007
10240TIP3   OH252210   5.298   6.320   3.966 -0.3220  0.3410  0.7033
10240TIP3    H152211   5.303   6.224   3.964  1.8687  0.4558 -0.5398
10240TIP3    H252212   5.331   6.344   4.052  3.3298  0.1379 -0.5507
10241TIP3   OH252213   0.465   2.915   1.693 -0.6107 -0.4544 -0.1995
10241TIP3    H152214   0.449   2.826   1.726 -2.1356 -0.0565  0.1475
10241TIP3    H252215   0.393   2.967   1.729  0.6019  1.0529  0.0778
10242TIP3   OH252216   1.110   2.565  11.125 -0.6735 -0.3792 -0.4463
10242TIP3    H152217   1.104   2.543  11.218  0.5996  0.7214 -0.0823
10242TIP3    H252218   1.039   2.628  11.110  1.1469  2.0225  0.5992
10243TIP3   OH252219   6.172   2.079  12.558 -0.2713 -0.0200 -0.6560
10243TIP3    H152220   6.131   2.008  12.508  0.2555 -0.8063  0.0145
10243TIP3    H252221   6.185   2.043  12.646  2.2636  0.0497 -0.9679
10244TIP3   OH252222   3.921   3.540   5.656 -0.2575  0.0057 -0.3902
10244TIP3    H152223   3.918   3.461   5.711 -0.3205  1.6443  2.0533
10244TIP3    H252224   3.832   3.574   5.659  0.0087  0.7161 -0.6129
10245TIP3   OH252225   4.569   3.916  12.085  0.2314 -0.0605 -0.0972
10245TIP3    H152226   4.616   3.995  12.056  1.7526 -1.2394 -0.9284
10245TIP3    H252227   4.508   3.948  12.151  0.1890  1.9555 -1.0557
10246TIP3   OH252228   4.798   3.575  12.328  0.1069 -0.1494 -0.2210
10246TIP3    H152229   4.706   3.595  12.348  0.1908 -1.9394  2.2123
10246TIP3    H252230   4.847   3.644  12.370 -0.1007  0.7331 -1.4054
10247TIP3   OH252231   4.334   4.117  15.461  0.1186 -0.3155  0.1627
10247TIP3    H152232   4.291   4.164  15.390 -2.0284  0.5006  1.9665
10247TIP3    H252233   4.346   4.183  15.530  0.9878 -1.4014  1.0726
10248TIP3   OH252234   4.163   3.045  15.261 -0.0143  0.2958 -0.0383
10248TIP3    H152235   4.252   3.026  15.292  0.8694 -0.7309 -3.0090
10248TIP3    H252236   4.107   3.020  15.335  2.0639 -0.4021  1.3727
10249TIP3   OH252237   2.315   6.495   3.457 -0.2014 -0.6579 -0.0460
10249TIP3    H152238   2.255   6.568   3.472  2.5680  2.0530 -1.5830
10249TIP3    H252239   2.297   6.467   3.367 -0.6023 -1.3073  0.2254
10250TIP3   OH252240   4.836   4.577  13.673  0.1090 -0.2064  0.1092
10250TIP3    H152241   4.778   4.650  13.693  0.5280  0.1439  0.0652
10250TIP3    H252242   4.815   4.552  13.584 -1.6375 -1.6442  0.9021
10251TIP3   OH252243   2.503   4.953  13.619 -0.7375 -0.1917 -0.0143
10251TIP3    H152244   2.429   4.995  13.574 -0.2410  1.7441  0.9412
10251TIP3    H252245   2.515   4.871  13.572 -2.8686 -0.0856 -0.8173
10252TIP3   OH252246   4.722   5.485  15.968 -0.2074 -0.4280  0.1048
10252TIP3    H152247   4.758   5.548  16.031  0.4348 -0.5348 -0.1550
10252TIP3    H252248   4.779   5.493  15.891  0.8983 -2.5131  0.6715
10253TIP3   OH252249   1.018   2.097   4.649  0.5878  0.0075 -0.1164
10253TIP3    H152250   1.078   2.058   4.712  1.2162 -0.0733 -0.7519
10253TIP3    H252251   1.020   2.191   4.668 -0.2754 -0.1638  0.8651
10254TIP3   OH252252   5.035   6.455  14.844  0.9155  0.4413  0.0243
10254TIP3    H152253   5.053   6.531  14.900 -1.6447  0.5781  0.7348
10254TIP3    H252254   5.051   6.487  14.755 -0.4385  1.9356  0.2873
10255TIP3   OH252255   4.456   1.440  11.786  0.1516 -0.3732 -0.3322
10255TIP3    H152256   4.508   1.361  11.806  0.5364  0.1255  0.6911
10255TIP3    H252257   4.496   1.476  11.707  0.0453 -1.1396 -0.7443
10256TIP3   OH252258   4.597   3.809  13.265  0.2106 -0.1253 -0.3296
10256TIP3    H152259   4.634   3.755  13.195 -2.2095 -0.3938 -1.4586
10256TIP3    H252260   4.550   3.747  13.321  1.1768  0.2394  0.8981
10257TIP3   OH252261   5.248   4.747  15.047 -0.3050  0.2275 -0.8154
10257TIP3    H152262   5.331   4.715  15.083  0.0581  2.0185 -0.0384
10257TIP3    H252263   5.247   4.715  14.957  0.2458 -1.5981 -0.1870
10258TIP3   OH252264   4.390   3.035   1.481 -0.0176  0.1115 -0.1682
10258TIP3    H152265   4.394   3.012   1.574  0.2474 -0.2824 -0.2745
10258TIP3    H252266   4.328   3.107   1.477 -1.9287 -1.4642  0.0137
10259TIP3   OH252267   6.541   3.139   1.493  0.0784 -0.1194 -0.5383
10259TIP3    H152268   6.448   3.141   1.515  0.3908 -1.1140  0.9269
10259TIP3    H252269   6.548   3.075   1.421 -0.5345  0.8964 -1.5064
10260TIP3   OH252270   4.460   4.793  11.404  0.4763  0.8264  0.2266
10260TIP3    H152271   4.364   4.793  11.401  0.4526  1.7048  0.7771
10260TIP3    H252272   4.481   4.837  11.486  1.3505  0.0880  0.4073
10261TIP3   OH252273   0.625   6.484  15.706  0.4909 -0.3141 -0.3343
10261TIP3    H152274   0.611   6.421  15.635 -0.0027 -0.5058 -0.0666
10261TIP3    H252275   0.631   6.430  15.785  0.0804 -0.0311 -0.1080
10262TIP3   OH252276   4.995   0.307  13.812  0.4858  0.0278 -0.7994
10262TIP3    H152277   4.966   0.366  13.742 -1.1355 -1.5667 -1.5440
10262TIP3    H252278   5.036   0.363  13.876 -1.9207  2.1163 -1.0063
10263TIP3   OH252279   3.199   3.324  11.476  0.6968 -0.2917  0.0109
10263TIP3    H152280   3.289   3.309  11.447  0.9153 -1.0308  1.0753
10263TIP3    H252281   3.150   3.337  11.394  1.3642 -2.0592 -0.6924
10264TIP3   OH252282   1.198   5.814   5.893  0.7029 -0.7706  0.0792
10264TIP3    H152283   1.271   5.806   5.832  1.5981 -2.6827  1.3464
10264TIP3    H252284   1.239   5.809   5.980 -0.8796 -1.3438  0.8053
10265TIP3   OH252285   2.122   1.338  13.831 -0.2958  0.0041 -0.3842
10265TIP3    H152286   2.143   1.319  13.922 -0.9836  0.6783 -0.0797
10265TIP3    H252287   2.199   1.309  13.782 -0.5999 -1.9193  0.2324
10266TIP3   OH252288   0.598   2.543   2.664  0.2141  0.0670  0.3503
10266TIP3    H152289   0.682   2.528   2.620  1.0833  3.5240  0.6422
10266TIP3    H252290   0.540   2.575   2.595  0.4120  1.6835  0.8993
10267TIP3   OH252291   4.022   1.713  14.530 -0.4914 -0.1034  0.1105
10267TIP3    H152292   4.042   1.623  14.506 -2.2739 -0.8726  1.3913
10267TIP3    H252293   3.963   1.706  14.605 -1.1106  2.1231 -0.1114
10268TIP3   OH252294   5.433   4.666   2.816  0.2142 -0.1617  0.3078
10268TIP3    H152295   5.503   4.688   2.754 -0.3448 -2.6853 -1.2451
10268TIP3    H252296   5.352   4.679   2.767 -0.2149 -2.7378  0.2848
10269TIP3   OH252297   3.273   4.407  13.043  0.2469  0.2633 -0.4638
10269TIP3    H152298   3.284   4.472  13.112 -0.4607 -0.6514  0.5232
10269TIP3    H252299   3.359   4.404  12.999  1.4126 -0.8126  1.8333
10270TIP3   OH252300   0.551   0.097   3.379 -0.1227  0.0127  0.5065
10270TIP3    H152301   0.568   0.039   3.453 -0.6730 -0.0656  0.5738
10270TIP3    H252302   0.539   0.038   3.305 -2.0326 -0.0461  0.8313
10271TIP3   OH252303   2.060   5.216   2.097  0.6144 -0.7066 -0.0438
10271TIP3    H152304   2.081   5.125   2.074  0.5791 -0.8443  0.4640
10271TIP3    H252305   2.056   5.261   2.013  0.6097 -1.1798 -0.3026
10272TIP3   OH252306   6.469   3.278  14.788 -0.2438  0.0326  0.0759
10272TIP3    H152307   6.441   3.369  14.798 -1.3412 -0.2303 -0.4656
10272TIP3    H252308   6.504   3.274  14.699 -0.2305 -0.0775  0.0859
10273TIP3   OH252309   3.472   6.270  11.801  0.2970  0.6197 -0.4459
10273TIP3    H152310   3.461   6.293  11.894 -2.8102 -0.2713 -0.5183
10273TIP3    H252311   3.460   6.353  11.754  1.4923  1.0052 -0.0838
10274TIP3   OH252312   4.836   2.992  14.116 -0.8067 -0.0545  0.0431
10274TIP3    H152313   4.881   2.989  14.200 -0.9888  0.4547  0.1585
10274TIP3    H252314   4.777   3.066  14.123 -1.4366 -0.5263 -0.2256
10275TIP3   OH252315   2.792   1.547   6.564  0.1220  0.0550  0.2371
10275TIP3    H152316   2.837   1.625   6.596 -1.1133  1.6357 -1.7913
10275TIP3    H252317   2.755   1.507   6.643  1.4697  1.0326  1.4021
10276TIP3   OH252318   0.675   2.559  14.057 -0.4281  0.0247  0.0695
10276TIP3    H152319   0.757   2.546  14.009 -2.3363 -0.0110 -3.3663
10276TIP3    H252320   0.676   2.492  14.125  3.1917  1.2020  1.2588
10277TIP3   OH252321   0.214   6.409   2.618  0.0776  0.7292 -0.1791
10277TIP3    H152322   0.145   6.471   2.594 -0.1856  0.0092 -1.3221
10277TIP3    H252323   0.188   6.327   2.576  1.1923  0.2338  0.0847
10278TIP3   OH252324   0.517   3.403  13.374 -0.4366  0.4518 -0.3390
10278TIP3    H152325   0.556   3.343  13.310 -0.6825  1.7838 -1.7432
10278TIP3    H252326   0.436   3.360  13.400 -0.1946 -0.2364 -0.7075
10279TIP3   OH252327   5.336   3.204  15.450 -0.2096 -0.1807 -0.1401
10279TIP3    H152328   5.302   3.260  15.380 -0.4087 -0.5319 -0.3288
10279TIP3    H252329   5.400   3.148  15.406 -0.7852 -0.8234 -0.1720
10280TIP3   OH252330   0.529   3.128  15.465 -0.1007  0.2833  0.1066
10280TIP3    H152331   0.447   3.154  15.506 -0.3805 -0.5614  0.1063
10280TIP3    H252332   0.503   3.063  15.399  0.2896  1.9507 -1.7296
10281TIP3   OH252333   6.301   3.815  12.583  0.0664  0.1853  0.0925
10281TIP3    H152334   6.340   3.872  12.649 -0.7038  0.1294  0.5991
10281TIP3    H252335   6.342   3.730  12.598 -0.5974  0.0039  0.9508
10282TIP3   OH252336   1.971   3.546   3.590  0.0706  0.5927 -0.4452
10282TIP3    H152337   2.049   3.519   3.640 -0.5402  0.8349  0.6533
10282TIP3    H252338   1.929   3.463   3.567  0.0992  0.4874 -0.1335
10283TIP3   OH252339   6.064   1.230   4.252 -0.2776  0.6417  0.1006
10283TIP3    H152340   6.087   1.177   4.176  1.6649  1.1699  0.2928
10283TIP3    H252341   6.087   1.175   4.327 -2.0654  0.1726  0.3169
10284TIP3   OH252342   4.739   4.821  16.588  0.0640 -0.1738 -0.1099
10284TIP3    H152343   4.773   4.884  16.651 -0.2758  0.5687 -0.6710
10284TIP3    H252344   4.805   4.752  16.585  1.1674  0.9122 -0.6572
10285TIP3   OH252345   3.035   1.985   1.013  0.6667 -0.2864 -0.3000
10285TIP3    H152346   2.958   1.930   1.003  1.2409 -0.6403 -3.1519
10285TIP3    H252347   3.087   1.941   1.081 -1.2265 -0.4919  1.0253
10286TIP3   OH252348   1.961   1.421   5.660 -0.8285  0.3618  0.3931
10286TIP3    H152349   1.936   1.393   5.572 -0.8030  0.8057  0.2454
10286TIP3    H252350   1.888   1.392   5.716 -1.8433  1.9583 -0.0845
10287TIP3   OH252351   0.919   3.027  13.450 -0.1800  0.0809 -0.5437
10287TIP3    H152352   0.887   3.108  13.410 -1.6971 -0.5617 -0.6331
10287TIP3    H252353   0.965   2.982  13.380 -2.0117 -0.5950 -1.3445
10288TIP3   OH252354   5.994   3.041  13.129 -0.2756  0.9195  0.1175
10288TIP3    H152355   5.920   2.984  13.149  0.2643 -0.6166 -2.1273
10288TIP3    H252356   6.041   2.996  13.059  0.6576  3.7035 -1.1118
10289TIP3   OH252357   6.590   5.768  15.749  0.6033  0.1079 -0.1843
10289TIP3    H152358   6.575   5.788  15.657  0.6433  1.1005  0.0215
10289TIP3    H252359   6.640   5.686  15.748  2.0156  0.9543 -1.0985
10290TIP3   OH252360   0.504   4.098   0.651 -0.3468 -0.1378  0.2692
10290TIP3    H152361   0.592   4.061   0.653 -0.6917 -0.9242  0.9912
10290TIP3    H252362   0.515   4.186   0.687  0.2368 -0.0224 -0.1730
10291TIP3   OH252363   0.024   5.025   3.147 -0.1278  0.8692 -0.2175
10291TIP3    H152364   0.075   5.096   3.107 -2.9296  2.4992 -1.0504
10291TIP3    H252365   0.001   5.059   3.233 -1.0734  0.7755 -0.4335
10292TIP3   OH252366   5.611   2.873  10.943  0.0370 -0.2442  0.2178
10292TIP3    H152367   5.598   2.820  10.864  0.1849 -0.1329  0.1192
10292TIP3    H252368   5.662   2.949  10.913 -1.4354  0.7075  0.0567
10293TIP3   OH252369   1.699   5.465   4.390  0.3819 -0.1683 -0.3193
10293TIP3    H152370   1.728   5.430   4.474  2.5163 -0.2973 -1.0716
10293TIP3    H252371   1.604   5.467   4.396  0.5440  0.9368  2.5350
10294TIP3   OH252372   1.599   3.116   0.620  0.2217 -0.5469 -0.2946
10294TIP3    H152373   1.506   3.097   0.614 -0.0165  0.3225  0.5202
10294TIP3    H252374   1.619   3.110   0.713  1.1996 -1.7214 -0.5720
10295TIP3   OH252375   4.756   6.336  17.233 -0.3471  0.0816 -0.3311
10295TIP3    H152376   4.828   6.390  17.200 -1.2681  0.7598 -1.2562
10295TIP3    H252377   4.771   6.333  17.328  1.6524 -0.9124 -0.6453
10296TIP3   OH252378   2.904   2.224   2.200  0.2360  0.2935  0.0522
10296TIP3    H152379   2.877   2.145   2.153  1.0251  0.9266 -1.5304
10296TIP3    H252380   2.952   2.192   2.276  0.0370 -0.7653 -0.2598
10297TIP3   OH252381   4.021   5.369   1.180  0.2425 -0.6165 -0.3320
10297TIP3    H152382   4.057   5.322   1.255  0.5257 -0.2983 -0.2665
10297TIP3    H252383   3.938   5.325   1.162  0.0745 -0.5663  0.2978
10298TIP3   OH252384   5.011   0.413  16.967  0.5236  0.8389  0.2988
10298TIP3    H152385   5.014   0.405  16.872 -1.7890  1.0474  0.1650
10298TIP3    H252386   5.092   0.457  16.991  1.4070  0.2385 -1.5094
10299TIP3   OH252387   1.622   5.545   2.691 -0.8242 -0.2006  0.2350
10299TIP3    H152388   1.644   5.620   2.635  1.2542 -0.3445  0.8211
10299TIP3    H252389   1.631   5.469   2.634  0.6738 -0.2925  0.5695
10300TIP3   OH252390   3.432   2.920  11.003 -0.4794  0.9007 -0.0500
10300TIP3    H152391   3.364   2.859  10.976 -0.1625  0.8475 -0.7427
10300TIP3    H252392   3.386   3.002  11.019 -0.7210  0.8424 -0.4373
10301TIP3   OH252393   4.598   6.155  12.837  0.3054  0.0561 -0.3421
10301TIP3    H152394   4.585   6.062  12.818 -1.6368  0.5736 -1.6487
10301TIP3    H252395   4.678   6.177  12.790  1.2667 -1.1337  0.6831
10302TIP3   OH252396   6.390   5.029   0.689  0.3463  0.1160  0.2411
10302TIP3    H152397   6.364   5.120   0.695  0.8663  0.1907  1.3343
10302TIP3    H252398   6.352   4.987   0.766 -0.1941 -0.6743 -0.4349
10303TIP3   OH252399   4.390   4.262   2.431  0.3473  0.2456  0.0311
10303TIP3    H152400   4.439   4.304   2.361  0.9696 -0.1603  0.2150
10303TIP3    H252401   4.329   4.330   2.462 -0.3308  0.2530 -1.2613
10304TIP3   OH252402   6.796   6.443   1.975 -0.1038 -0.0517  0.0736
10304TIP3    H152403   6.752   6.368   2.013 -2.2004 -0.4921 -3.0681
10304TIP3    H252404   6.864   6.405   1.919  0.8536  0.4942  0.8476
10305TIP3   OH252405   3.401   1.360   0.113  0.9810  0.4152 -0.4470
10305TIP3    H152406   3.425   1.318   0.196 -0.9507  0.2829  0.0526
10305TIP3    H252407   3.484   1.395   0.080  2.3429 -2.3181 -0.0542
10306TIP3   OH252408   3.626   0.789  10.746 -0.2073  0.2575 -0.5059
10306TIP3    H152409   3.577   0.867  10.772  1.1354  1.1731 -0.6663
10306TIP3    H252410   3.559   0.729  10.712 -1.1318  1.7598 -1.3885
10307TIP3   OH252411   2.893   2.947  13.043 -0.2264 -0.4957  0.0365
10307TIP3    H152412   2.898   2.973  13.135 -0.6284  1.0014 -0.3664
10307TIP3    H252413   2.848   2.862  13.045 -0.5728 -0.2918  1.1790
10308TIP3   OH252414   0.793   3.037  13.879  0.4028 -0.2676  0.4825
10308TIP3    H152415   0.848   3.040  13.958  0.9473 -1.9717  0.1715
10308TIP3    H252416   0.839   2.978  13.820 -1.3479 -1.0477 -0.1160
10309TIP3   OH252417   1.247   5.196  15.822  0.1653  0.1747  0.2815
10309TIP3    H152418   1.289   5.179  15.738 -2.2299 -1.2455 -0.6894
10309TIP3    H252419   1.289   5.134  15.882  1.6908  0.9978  0.0836
10310TIP3   OH252420   5.100   0.064  17.090 -0.6753  0.3149  0.3140
10310TIP3    H152421   5.079   0.082  16.998  1.3670  0.2391 -0.1800
10310TIP3    H252422   5.116   0.150  17.128  0.3213  0.2081  0.1378
10311TIP3   OH252423   2.145   3.475   4.331 -0.0904 -0.5014  0.2906
10311TIP3    H152424   2.109   3.395   4.367  0.6307 -1.0241 -0.1302
10311TIP3    H252425   2.211   3.446   4.268  0.7372  0.4162  0.6975
10312TIP3   OH252426   4.004   1.248  12.422  0.3914  0.2194 -0.1034
10312TIP3    H152427   4.072   1.312  12.442  1.5605 -0.7283 -0.9443
10312TIP3    H252428   4.018   1.177  12.485 -1.1182  0.9266  1.0599
10313TIP3   OH252429   5.021   2.680  17.069 -0.5838 -0.1831 -0.1871
10313TIP3    H152430   5.088   2.721  17.123 -0.5050  1.8319 -1.7317
10313TIP3    H252431   5.062   2.672  16.982 -2.1770  0.7841 -1.0634
10314TIP3   OH252432   3.704   3.415  15.665 -0.2895 -0.4246 -0.0469
10314TIP3    H152433   3.767   3.395  15.735  0.1411 -0.4118 -0.4278
10314TIP3    H252434   3.621   3.378  15.696  0.2766 -1.9843 -0.3073
10315TIP3   OH252435   3.422   1.942  12.785 -0.1698  0.5990 -0.5847
10315TIP3    H152436   3.408   1.904  12.872  2.2718 -0.3186 -0.5534
10315TIP3    H252437   3.334   1.961  12.753 -1.2502 -1.3243  1.0968
10316TIP3   OH252438   5.243   4.375  15.532  0.5596 -0.4484 -0.2283
10316TIP3    H152439   5.217   4.344  15.619  1.3367 -1.6457 -0.3985
10316TIP3    H252440   5.178   4.441  15.509  0.8593  0.5366  1.6498
10317TIP3   OH252441   0.044   6.634  13.974 -0.0450  0.2656  0.6537
10317TIP3    H152442  -0.044   6.607  13.948  0.7336  0.7232 -2.7172
10317TIP3    H252443   0.103   6.582  13.919  1.7555  1.1038  1.7271
10318TIP3   OH252444   3.247   2.727   3.309  0.2064 -0.0851  0.3403
10318TIP3    H152445   3.284   2.760   3.228  0.9548 -1.2121  0.2013
10318TIP3    H252446   3.279   2.787   3.376  0.5857  0.1570 -0.0528
10319TIP3   OH252447   1.057   3.302  10.482  0.3669 -0.6902 -0.6304
10319TIP3    H152448   0.976   3.311  10.533  2.3666  1.3369  2.3026
10319TIP3    H252449   1.060   3.209  10.460 -2.0857 -1.0610  0.3572
10320TIP3   OH252450   5.197   4.898   4.931 -0.3441  0.0011  0.6052
10320TIP3    H152451   5.237   4.984   4.927  0.9077 -0.5804  0.3400
10320TIP3    H252452   5.255   4.842   4.879 -2.2056 -0.5844 -0.9577
10321TIP3   OH252453   1.597   5.062   5.353  0.4145  0.2055 -0.6638
10321TIP3    H152454   1.680   5.039   5.393  0.0446  0.5993  0.3306
10321TIP3    H252455   1.534   5.063   5.425 -0.1574  1.3918 -1.1650
10322TIP3   OH252456   1.288   4.807  12.115 -0.1734 -0.5018 -0.1502
10322TIP3    H152457   1.220   4.756  12.070  0.9215 -0.9742 -1.3183
10322TIP3    H252458   1.250   4.828  12.200 -0.6921 -3.1801  0.3169
10323TIP3   OH252459   1.670   5.903   0.978  0.2334  0.4178  0.6693
10323TIP3    H152460   1.708   5.987   1.004  0.6541  0.5496 -0.3383
10323TIP3    H252461   1.744   5.843   0.977  0.1774  0.3589  0.0370
10324TIP3   OH252462   2.697   3.338   1.248  0.3365  0.5581  0.2665
10324TIP3    H152463   2.673   3.402   1.315 -0.8179  0.0006  0.4076
10324TIP3    H252464   2.687   3.253   1.293  1.1229  0.2547 -0.1326
10325TIP3   OH252465   3.342   3.677  13.697 -0.0809 -0.7086  0.8175
10325TIP3    H152466   3.382   3.721  13.772  0.6198 -2.0164  1.2269
10325TIP3    H252467   3.310   3.594  13.733 -0.1633 -1.1336 -0.2368
10326TIP3   OH252468   2.154   5.688  13.004  0.2989  0.0629 -0.2437
10326TIP3    H152469   2.158   5.592  13.004  0.3292  0.0632 -0.3721
10326TIP3    H252470   2.098   5.710  13.079  0.8180 -0.0305  0.1694
10327TIP3   OH252471   3.736   0.406   1.138 -0.5155  0.3208 -0.5245
10327TIP3    H152472   3.660   0.347   1.143 -0.3388  0.1003 -0.4519
10327TIP3    H252473   3.714   0.478   1.198 -0.4710  0.0320 -0.1613
10328TIP3   OH252474   4.053   3.030   6.675 -0.0045 -0.1491 -0.1677
10328TIP3    H152475   3.976   3.073   6.637 -0.9777  0.2725  2.2380
10328TIP3    H252476   4.038   2.937   6.660 -1.6794 -0.1693  1.5058
10329TIP3   OH252477   6.489   3.701   0.646 -0.3834  0.7335  0.3679
10329TIP3    H152478   6.420   3.707   0.712 -0.2126  0.5827  0.5596
10329TIP3    H252479   6.442   3.691   0.563 -0.6175  2.3120  0.3078
10330TIP3   OH252480   0.594   1.311   2.683 -0.1046  0.1262  0.2515
10330TIP3    H152481   0.514   1.271   2.648  0.2616  0.9905 -1.6249
10330TIP3    H252482   0.569   1.344   2.769 -1.8746  0.7067 -0.4680
10331TIP3   OH252483   1.534   2.637   5.700  0.7921  0.6184 -0.6270
10331TIP3    H152484   1.565   2.718   5.741  1.1654  0.2650 -0.2069
10331TIP3    H252485   1.442   2.653   5.682  0.4158  0.4838  1.1092
10332TIP3   OH252486   4.891   2.194   3.951 -0.6310  0.0790  0.0547
10332TIP3    H152487   4.916   2.156   4.036  0.1094  0.1495 -0.1291
10332TIP3    H252488   4.805   2.155   3.932 -0.3386 -0.7346  0.3532
10333TIP3   OH252489   0.476   1.141   3.407  0.2068  0.0313 -0.3328
10333TIP3    H152490   0.561   1.100   3.392  0.5473  0.4192  0.4897
10333TIP3    H252491   0.482   1.176   3.496 -0.8553 -0.0397 -0.2264
10334TIP3   OH252492   5.361   0.087  13.581 -0.6398  0.2932 -0.1461
10334TIP3    H152493   5.350   0.107  13.674 -0.3216  0.0104 -0.0478
10334TIP3    H252494   5.455   0.097  13.565 -0.4560 -1.2779 -0.0650
10335TIP3   OH252495   5.856   3.592  14.155  0.7527 -0.5660 -0.4905
10335TIP3    H152496   5.854   3.669  14.097  3.2096 -1.1185 -1.3649
10335TIP3    H252497   5.775   3.545  14.134  0.5165  0.4032 -1.8679
10336TIP3   OH252498   6.396   1.798   6.266  0.0285 -0.7837  0.0492
10336TIP3    H152499   6.414   1.891   6.257  1.4354 -1.1718 -1.5165
10336TIP3    H252500   6.301   1.791   6.258 -0.1074  0.5296  0.3907
10337TIP3   OH252501   3.797   6.389  17.246  0.1663  0.8976  0.0877
10337TIP3    H152502   3.751   6.345  17.174  0.8620 -0.4288  0.4229
10337TIP3    H252503   3.733   6.391  17.317  0.8224 -1.7099  0.8355
10338TIP3   OH252504   4.913   6.812  14.822  0.4912 -0.0341 -0.3012
10338TIP3    H152505   4.876   6.830  14.735  1.0740  0.7876 -0.3800
10338TIP3    H252506   4.892   6.889  14.874 -0.2212 -0.7054  0.4171
10339TIP3   OH252507   1.341   0.382   1.115  0.0742  0.0578 -0.6790
10339TIP3    H152508   1.432   0.401   1.140 -0.5321  1.5389  0.4983
10339TIP3    H252509   1.339   0.288   1.102  1.5070 -0.1672  0.5084
10340TIP3   OH252510   4.343   3.237  11.888  0.3163 -0.7958 -0.2968
10340TIP3    H152511   4.251   3.262  11.888  0.0058 -1.8559  1.6911
10340TIP3    H252512   4.382   3.286  11.960  0.7930 -2.0394  0.3156
10341TIP3   OH252513   0.382   5.712  15.619 -0.3974  0.3368 -0.2089
10341TIP3    H152514   0.351   5.753  15.539 -1.3993 -0.3667 -0.1919
10341TIP3    H252515   0.417   5.627  15.590 -2.3688 -0.6901  0.2859
10342TIP3   OH252516   6.386   6.342  12.999 -0.0568 -0.2270 -0.7642
10342TIP3    H152517   6.401   6.278  13.068 -0.0353  1.1555  0.5377
10342TIP3    H252518   6.366   6.424  13.045  4.2778  1.8195 -2.2675
10343TIP3   OH252519   2.292   1.583  13.850  0.3219  0.2453 -0.1143
10343TIP3    H152520   2.246   1.518  13.902  1.2058 -0.2845  0.0048
10343TIP3    H252521   2.231   1.658  13.846  0.6545  0.6849  2.5282
10344TIP3   OH252522   0.309   4.865   5.381  0.3636 -0.7320 -0.0593
10344TIP3    H152523   0.219   4.885   5.355  0.3580 -0.3564  0.2553
10344TIP3    H252524   0.350   4.831   5.301 -0.3642 -1.9453  0.0658
10345TIP3   OH252525   1.784   4.402  14.214  0.4924 -0.4150 -0.6260
10345TIP3    H152526   1.737   4.320  14.202  0.3529 -0.2190 -1.4519
10345TIP3    H252527   1.802   4.406  14.308 -1.5075 -0.2942 -0.2279
10346TIP3   OH252528   2.627   0.679  16.170 -0.2144 -0.5009  0.1176
10346TIP3    H152529   2.571   0.608  16.201  0.0345 -0.7254  0.0561
10346TIP3    H252530   2.708   0.635  16.142 -0.6456 -0.3771 -1.3826
10347TIP3   OH252531   5.242   2.361  13.253  0.3396 -0.4110 -0.5208
10347TIP3    H152532   5.253   2.266  13.264  0.9333 -0.3522 -0.6074
10347TIP3    H252533   5.166   2.382  13.306 -0.2297 -1.0531 -1.0563
10348TIP3   OH252534   3.907   5.874  13.513 -0.4167  0.1371  0.2608
10348TIP3    H152535   3.863   5.833  13.438 -1.1533  0.7544  0.3473
10348TIP3    H252536   3.838   5.881  13.580  0.4516 -1.1971  1.3053
10349TIP3   OH252537   0.811   6.172  16.638 -0.1686  0.0079 -0.2595
10349TIP3    H152538   0.863   6.124  16.573 -0.1983 -0.3041 -0.0561
10349TIP3    H252539   0.725   6.128  16.637 -0.1097 -0.1199  0.1252
10350TIP3   OH252540   2.805   2.738   0.592 -0.0375 -0.4236 -0.0800
10350TIP3    H152541   2.775   2.691   0.514 -0.6408 -1.4463  0.7569
10350TIP3    H252542   2.879   2.686   0.624  0.9639  0.6346 -0.6159
10351TIP3   OH252543   3.792   4.110   3.416 -0.1034 -0.0816 -0.7189
10351TIP3    H152544   3.730   4.182   3.418 -2.3585 -1.9580 -0.6472
10351TIP3    H252545   3.816   4.100   3.324 -0.1815  0.4078 -0.7913
10352TIP3   OH252546   4.397   4.317  16.018  0.0556  0.1852 -0.6344
10352TIP3    H152547   4.333   4.345  16.084  0.3151  1.7921 -1.0508
10352TIP3    H252548   4.468   4.278  16.069 -0.5153 -0.1463 -0.0750
10353TIP3   OH252549   2.559   3.249   0.079  0.8928  0.0019  0.0528
10353TIP3    H152550   2.548   3.312   0.007  1.1545 -0.8526 -0.7503
10353TIP3    H252551   2.634   3.196   0.053 -0.1237 -1.4780  0.0959
10354TIP3   OH252552   6.448   0.269   1.620 -0.2316 -0.1926 -0.1096
10354TIP3    H152553   6.531   0.239   1.657  0.0751  1.8643  0.9445
10354TIP3    H252554   6.387   0.197   1.637  1.2916 -1.6663 -0.7760
10355TIP3   OH252555   0.833   6.676  16.639  0.3338  0.1022 -0.0640
10355TIP3    H152556   0.809   6.668  16.546  2.8648 -0.3859 -0.7076
10355TIP3    H252557   0.870   6.590  16.661  0.9851  0.6527  1.0113
10356TIP3   OH252558   1.793   2.864  11.376  0.2295 -0.5144  0.5839
10356TIP3    H152559   1.870   2.920  11.374 -0.2055  0.0713 -2.3404
10356TIP3    H252560   1.826   2.777  11.353 -0.0709 -0.0708 -1.6673
10357TIP3   OH252561   4.766   3.086  14.537 -0.4133  0.2486 -0.2028
10357TIP3    H152562   4.806   3.009  14.579 -0.8891 -0.1144 -0.4068
10357TIP3    H252563   4.807   3.089  14.451  1.1344  1.4460  0.5521
10358TIP3   OH252564   0.162   0.057  14.946 -0.4601 -0.2652  0.2780
10358TIP3    H152565   0.179  -0.035  14.965  0.2815  0.2038  1.9894
10358TIP3    H252566   0.100   0.085  15.013  0.1897  0.7692  0.4680
10359TIP3   OH252567   3.466   0.829   2.019 -0.4761 -0.4702 -0.5803
10359TIP3    H152568   3.371   0.834   2.011 -0.7908  2.0502  3.3943
10359TIP3    H252569   3.481   0.754   2.078 -0.0419 -0.4968 -0.7261
10360TIP3   OH252570   0.484   4.773  10.521 -0.4366  0.0505 -0.4185
10360TIP3    H152571   0.444   4.859  10.535 -0.1878  0.1123 -0.0878
10360TIP3    H252572   0.487   4.733  10.608 -2.4317 -1.1333 -0.8365
10361TIP3   OH252573   1.474   4.888   4.434 -0.0357  0.3670  1.2269
10361TIP3    H152574   1.469   4.930   4.520 -0.1201  0.3048  1.2520
10361TIP3    H252575   1.411   4.816   4.438  0.1967  0.1615  1.2266
10362TIP3   OH252576   2.658   1.970   0.988  0.8498 -0.1476 -0.1259
10362TIP3    H152577   2.731   1.908   0.993  3.0856  2.3299 -1.1251
10362TIP3    H252578   2.660   2.016   1.072  1.1408  0.6783 -0.5811
10363TIP3   OH252579   2.460   4.012  10.502 -0.1217  0.1355 -0.3158
10363TIP3    H152580   2.426   3.973  10.421  0.9374  0.6240 -1.0070
10363TIP3    H252581   2.483   3.937  10.557 -1.1721 -0.2014 -0.3235
10364TIP3   OH252582   5.922   5.317   2.566  0.8078  0.6074  0.5883
10364TIP3    H152583   5.989   5.250   2.576 -0.3316 -0.7839 -0.8428
10364TIP3    H252584   5.846   5.282   2.612  0.2023  0.9288 -0.1637
10365TIP3   OH252585   6.107   5.150   3.280  0.4474  0.0129  0.2742
10365TIP3    H152586   6.104   5.243   3.257 -0.2573 -0.3132 -0.9674
10365TIP3    H252587   6.196   5.123   3.257  0.5413  0.2911  0.3026
10366TIP3   OH252588   5.511   5.261  15.539  0.5138  0.4702 -0.0046
10366TIP3    H152589   5.483   5.174  15.567 -0.1620  0.5157 -0.5243
10366TIP3    H252590   5.605   5.263  15.558  0.7185 -0.7077 -0.8482
10367TIP3   OH252591   4.355   1.679   1.070 -0.7241  0.0027  0.1527
10367TIP3    H152592   4.440   1.645   1.039  0.0757  3.1276 -1.2914
10367TIP3    H252593   4.304   1.691   0.990 -1.3681  1.1055  0.7263
10368TIP3   OH252594   5.425   5.858  13.113 -0.0099 -0.8755  0.2367
10368TIP3    H152595   5.422   5.843  13.018  0.0821  2.8272 -0.4215
10368TIP3    H252596   5.513   5.891  13.130 -0.3553 -0.5433  1.4480
10369TIP3   OH252597   2.486   3.937   5.759  0.0886 -0.0156 -0.1331
10369TIP3    H152598   2.458   3.995   5.830 -0.7445  1.4767 -1.6228
10369TIP3    H252599   2.565   3.978   5.725 -2.2334  2.1508 -3.2783
10370TIP3   OH252600   2.194   4.904   0.627 -0.5250  0.0939  0.0372
10370TIP3    H152601   2.273   4.930   0.579 -0.4168 -0.7909 -0.2799
10370TIP3    H252602   2.156   4.833   0.574 -0.7931 -0.4113  0.8863
10371TIP3   OH252603   0.423   1.273  15.766  0.9733  0.2362  0.4856
10371TIP3    H152604   0.491   1.293  15.702  1.7424 -2.4737  0.3964
10371TIP3    H252605   0.342   1.301  15.725  1.6190 -0.1354 -1.0739
10372TIP3   OH252606   3.612   5.588  10.952  0.4560 -0.1490  0.8447
10372TIP3    H152607   3.527   5.571  10.911  0.0100 -0.5792  1.9488
10372TIP3    H252608   3.671   5.603  10.878 -0.0391 -2.3236 -0.0392
10373TIP3   OH252609   0.096   4.139  12.410 -0.0485  0.5991 -0.5636
10373TIP3    H152610   0.157   4.212  12.402 -0.4230  0.9839  0.0854
10373TIP3    H252611   0.101   4.113  12.502  1.2475 -1.2069 -1.1061
10374TIP3   OH252612   4.457   3.610  15.885  0.2169 -0.2874  0.3839
10374TIP3    H152613   4.438   3.679  15.949  0.5794  0.5128 -0.3637
10374TIP3    H252614   4.429   3.646  15.801  2.0464 -0.3350 -0.2724
10375TIP3   OH252615   5.180   2.582   6.003  0.2010  0.4554 -0.2553
10375TIP3    H152616   5.210   2.513   6.062 -0.4166 -0.0637 -0.5430
10375TIP3    H252617   5.085   2.569   5.996  0.1161  1.1583 -0.5359
10376TIP3   OH252618   3.827   2.634   1.335  0.0932  0.0232 -0.1113
10376TIP3    H152619   3.843   2.615   1.428  0.8030  1.2488  0.0199
10376TIP3    H252620   3.829   2.548   1.293  4.1803 -0.1932  0.3285
10377TIP3   OH252621   2.854   4.813   2.706  0.6944  0.1980 -0.3948
10377TIP3    H152622   2.861   4.809   2.801  0.0479 -0.3973 -0.3639
10377TIP3    H252623   2.833   4.723   2.679  2.0448  0.1089 -1.2069
10378TIP3   OH252624   3.805   5.319  14.743  0.5146 -0.7034  0.4458
10378TIP3    H152625   3.822   5.283  14.656 -0.5456 -0.1664 -0.0002
10378TIP3    H252626   3.719   5.284  14.767  0.7147 -0.6952  1.1984
10379TIP3   OH252627   4.683   2.777   5.271 -0.8699  0.1484  0.2539
10379TIP3    H152628   4.684   2.736   5.185  0.4751 -0.8263  0.7342
10379TIP3    H252629   4.677   2.871   5.252  0.5819  0.0157 -0.9292
10380TIP3   OH252630   6.186   0.515   5.554 -0.0083  0.2101 -0.1575
10380TIP3    H152631   6.152   0.439   5.602 -1.2190 -0.4055 -1.9567
10380TIP3    H252632   6.227   0.478   5.476  0.4412  1.3362 -0.4569
10381TIP3   OH252633   5.730   1.186  11.415  0.4935  0.2932 -0.1553
10381TIP3    H152634   5.753   1.093  11.405 -1.5840 -0.2027 -0.5744
10381TIP3    H252635   5.681   1.190  11.497 -0.5304  0.7949 -0.7886
10382TIP3   OH252636   4.079   2.025   4.021  0.1815  0.2020  0.0041
10382TIP3    H152637   4.015   2.077   3.973  0.9934  0.0095 -1.3026
10382TIP3    H252638   4.113   2.085   4.088  0.3185  1.0250 -0.7877
10383TIP3   OH252639   4.617   2.192  15.780  0.5286  0.1368 -0.4336
10383TIP3    H152640   4.546   2.156  15.726  1.1649 -0.2772 -0.9965
10383TIP3    H252641   4.616   2.138  15.859 -1.1965  1.5131  0.5109
10384TIP3   OH252642   3.761   2.489   0.010 -0.4647 -0.1018 -0.6195
10384TIP3    H152643   3.772   2.570   0.060 -0.3779  0.2568 -1.2221
10384TIP3    H252644   3.786   2.419   0.071 -1.4129  0.2560  0.2010
10385TIP3   OH252645   5.370   5.409  14.234 -0.4513 -0.3197  0.0261
10385TIP3    H152646   5.352   5.469  14.306  1.0918  0.9352 -0.6161
10385TIP3    H252647   5.344   5.323  14.267 -1.0824  0.4498  1.5599
10386TIP3   OH252648   0.718   5.125   0.323 -0.5858  0.3024 -0.1050
10386TIP3    H152649   0.624   5.123   0.338 -0.5938 -0.8030 -0.2517
10386TIP3    H252650   0.730   5.192   0.255 -1.3386 -0.0907 -0.6277
10387TIP3   OH252651   4.043   0.313  11.764 -0.2397 -0.1463  0.6554
10387TIP3    H152652   4.020   0.220  11.765  2.5233 -0.9591 -2.3342
10387TIP3    H252653   3.963   0.357  11.736 -1.0204 -1.8313  0.1314
10388TIP3   OH252654   3.204   6.529   4.427  0.3018 -0.0474  0.4902
10388TIP3    H152655   3.236   6.571   4.347  0.3868 -1.2338 -0.1129
10388TIP3    H252656   3.141   6.591   4.464  1.6630  1.3408  0.5103
10389TIP3   OH252657   1.556   4.474   0.345  0.2251  0.1697 -0.5305
10389TIP3    H152658   1.536   4.397   0.398  0.6731 -0.4879 -1.3234
10389TIP3    H252659   1.636   4.510   0.383 -0.6434  0.9566  0.6087
10390TIP3   OH252660   5.780   1.255   3.130 -0.1818 -0.3541  0.1713
10390TIP3    H152661   5.711   1.218   3.075 -1.7284  1.0466  1.1313
10390TIP3    H252662   5.745   1.252   3.218  0.4978  1.4589  0.5379
10391TIP3   OH252663   2.192   2.234  14.233  0.1746  0.0936  0.4129
10391TIP3    H152664   2.170   2.156  14.182 -0.3439  0.1036  0.6198
10391TIP3    H252665   2.281   2.256  14.206 -0.6385  0.9934 -1.6215
10392TIP3   OH252666   0.491   1.792  15.375  0.0813  0.7692  0.3672
10392TIP3    H152667   0.489   1.885  15.352  0.9205  0.3054 -1.7172
10392TIP3    H252668   0.552   1.753  15.312 -0.6497 -1.2787  0.8905
10393TIP3   OH252669   6.196   6.622   6.104 -0.5957  0.4682  0.1776
10393TIP3    H152670   6.269   6.631   6.044  0.0497  0.2058  0.9123
10393TIP3    H252671   6.217   6.545   6.157 -1.3537  0.4459  0.4560
10394TIP3   OH252672   4.061   0.065  14.790 -0.3568  0.2649  0.3868
10394TIP3    H152673   4.099   0.123  14.725 -0.2986  0.4766  0.6083
10394TIP3    H252674   4.102   0.092  14.873 -1.0400  0.5508  0.6400
10395TIP3   OH252675   4.284   0.216   5.041 -0.3386  0.5462 -0.0786
10395TIP3    H152676   4.289   0.136   4.989 -0.9090  0.4311  0.0379
10395TIP3    H252677   4.353   0.272   5.005  1.8108 -0.9866  1.5715
10396TIP3   OH252678   5.810   6.091   5.754 -0.2805 -0.1058 -0.0431
10396TIP3    H152679   5.835   6.131   5.837 -0.1789 -2.2422  0.9734
10396TIP3    H252680   5.750   6.154   5.714  0.5898  1.4759  1.0960
10397TIP3   OH252681   1.618   3.308   5.160 -0.3113  0.1541 -0.1805
10397TIP3    H152682   1.637   3.310   5.254 -0.6814  0.6148 -0.1160
10397TIP3    H252683   1.527   3.279   5.155 -0.3310  0.2558 -0.3944
10398TIP3   OH252684   3.602   1.299   6.424 -0.6775 -0.0210 -0.7146
10398TIP3    H152685   3.549   1.300   6.504  0.7392 -0.9505  0.2716
10398TIP3    H252686   3.636   1.389   6.417 -1.5175  0.2952 -0.7684
10399TIP3   OH252687   6.488   0.621  15.036  0.3402  0.3972 -0.1727
10399TIP3    H152688   6.547   0.604  14.962 -0.7142  0.3882 -1.0229
10399TIP3    H252689   6.483   0.716  15.042 -0.0329  0.3946 -0.4751
10400TIP3   OH252690   1.528   4.805   2.548 -0.2346  0.3061  0.3836
10400TIP3    H152691   1.616   4.840   2.534  0.5071 -1.5615  0.1956
10400TIP3    H252692   1.470   4.867   2.504  0.9364  1.8030  0.8923
10401TIP3   OH252693   0.906   4.337  11.608 -0.3326  0.6994 -0.3977
10401TIP3    H152694   0.812   4.352  11.605 -0.4566  0.1270  0.4623
10401TIP3    H252695   0.945   4.424  11.610 -0.7965  0.9569 -1.7831
10402TIP3   OH252696   2.510   2.063  16.695 -0.0159  0.2120 -0.1161
10402TIP3    H152697   2.548   2.025  16.616 -1.4187  1.1221 -1.2642
10402TIP3    H252698   2.490   1.989  16.752  0.6944 -0.4712 -0.7649
10403TIP3   OH252699   4.539   5.496   3.263 -0.2320 -0.4781 -0.8367
10403TIP3    H152700   4.548   5.518   3.356  1.1291 -0.9008 -0.8694
10403TIP3    H252701   4.476   5.560   3.230 -0.0927  0.2074  0.1884
10404TIP3   OH252702   5.759   1.856  12.977  0.1920  0.1810  0.8375
10404TIP3    H152703   5.674   1.838  12.938  1.6784 -2.8412 -1.2042
10404TIP3    H252704   5.768   1.791  13.046  1.4877 -0.5545 -0.0099
10405TIP3   OH252705   3.906   5.000  11.987 -0.1168 -0.3023 -0.3022
10405TIP3    H152706   3.896   5.044  12.072 -1.6066  0.2631 -0.7363
10405TIP3    H252707   3.817   5.002  11.949  0.4074 -1.0777 -1.6048
10406TIP3   OH252708   5.465   4.355  12.896  0.3223 -0.2657 -0.2761
10406TIP3    H152709   5.461   4.450  12.911  0.8392 -0.3045  0.1020
10406TIP3    H252710   5.552   4.329  12.927  0.0415 -0.9291 -0.0418
10407TIP3   OH252711   3.277   2.840  17.204  0.0286  0.5487  0.0999
10407TIP3    H152712   3.193   2.797  17.189 -0.6783  0.8678  2.9538
10407TIP3    H252713   3.283   2.904  17.133 -1.1507 -0.8942 -1.3412
10408TIP3   OH252714   1.177   3.212   2.147 -0.8921 -0.4250 -0.0726
10408TIP3    H152715   1.147   3.244   2.232  1.1146  2.0014 -0.2103
10408TIP3    H252716   1.272   3.209   2.155 -0.5093  2.0240 -2.9326
10409TIP3   OH252717   0.528   0.995  14.571 -0.2572 -0.3930  0.4555
10409TIP3    H152718   0.591   0.925  14.590 -0.5395 -0.7759  0.0004
10409TIP3    H252719   0.457   0.950  14.525 -0.3363  0.2332 -0.0356
10410TIP3   OH252720   1.789   4.446   0.492  0.6663 -0.4963  0.1777
10410TIP3    H152721   1.863   4.475   0.438  0.1206 -1.3046 -1.0192
10410TIP3    H252722   1.829   4.400   0.565  1.4018  0.2969  0.2864
10411TIP3   OH252723   0.316   4.300   1.883 -0.1889  0.4851 -0.2469
10411TIP3    H152724   0.297   4.374   1.826  1.1402  0.6382 -0.5055
10411TIP3    H252725   0.411   4.302   1.894 -0.3051 -0.2771  0.9766
10412TIP3   OH252726   5.904   5.752  11.377 -0.0791  0.2915 -0.1055
10412TIP3    H152727   5.820   5.710  11.360  0.5972 -0.5531 -1.5218
10412TIP3    H252728   5.955   5.686  11.424 -0.1497  0.7373  0.5956
10413TIP3   OH252729   2.083   6.111   4.860 -0.3216  0.1521  0.0852
10413TIP3    H152730   2.168   6.103   4.901  0.4463  0.5084 -1.4053
10413TIP3    H252731   2.042   6.187   4.901  1.4520  2.0435 -1.5662
10414TIP3   OH252732   6.166   5.606   0.026 -0.0640  0.8198 -0.4634
10414TIP3    H152733   6.158   5.586  -0.067  0.9619 -0.3204 -0.3245
10414TIP3    H252734   6.216   5.687   0.028 -1.3178  1.6130 -0.9410
10415TIP3   OH252735   2.910   6.508   0.160  0.4807 -0.1622 -0.3683
10415TIP3    H152736   2.882   6.493   0.070 -0.3348 -0.7182 -0.0245
10415TIP3    H252737   2.971   6.582   0.154 -1.0795  1.0858 -1.1260
10416TIP3   OH252738   3.323   4.231  15.280  0.5480 -0.3618 -0.1055
10416TIP3    H152739   3.333   4.326  15.278  1.1617 -0.4349 -0.4670
10416TIP3    H252740   3.286   4.212  15.366 -0.6420  0.3095 -0.4644
10417TIP3   OH252741   4.201   2.671   0.010  0.3623 -0.3124  0.1394
10417TIP3    H152742   4.148   2.594   0.028 -0.2182 -0.0803 -0.5754
10417TIP3    H252743   4.141   2.744   0.018  1.1460  0.1729  1.8949
10418TIP3   OH252744   0.993   1.227   5.276 -0.1979 -0.5391 -0.0234
10418TIP3    H152745   0.970   1.231   5.183 -1.7808 -2.2122  0.2672
10418TIP3    H252746   1.039   1.309   5.293 -1.3876  0.5527 -1.8859
10419TIP3   OH252747   6.140   5.395   5.357  0.4740  0.9590  0.3717
10419TIP3    H152748   6.216   5.441   5.392  0.2355  0.5439  1.4439
10419TIP3    H252749   6.076   5.396   5.428 -0.5046  1.2523 -0.5010
10420TIP3   OH252750   4.351   2.890   6.636 -0.1342  0.0976 -0.0868
10420TIP3    H152751   4.425   2.857   6.584 -0.9466 -0.1728 -1.0892
10420TIP3    H252752   4.275   2.874   6.581 -0.7301  2.1146  0.1291
10421TIP3   OH252753   2.647   1.200   2.387 -0.2631 -0.3273 -0.1943
10421TIP3    H152754   2.629   1.237   2.474  0.3422  1.6441 -0.8787
10421TIP3    H252755   2.616   1.266   2.326  1.2588 -0.7683 -1.4631
10422TIP3   OH252756   3.747   1.031   0.659  0.1149 -0.0820 -0.0209
10422TIP3    H152757   3.779   1.120   0.648  2.6794 -0.6161  2.4720
10422TIP3    H252758   3.685   1.036   0.731  0.2275 -0.2825  0.0917
10423TIP3   OH252759   5.962   6.449  12.330 -0.4198 -0.0125 -0.0821
10423TIP3    H152760   5.971   6.531  12.378  1.2629 -0.5855  0.6179
10423TIP3    H252761   5.917   6.390  12.390  4.9965 -1.9206  2.3861
10424TIP3   OH252762   5.077   6.629  13.356  0.5494  0.3098 -0.0491
10424TIP3    H152763   5.101   6.688  13.286  1.2584  2.0527  1.6186
10424TIP3    H252764   4.989   6.656  13.382 -0.1774 -1.0710 -0.9938
10425TIP3   OH252765   0.479   0.993  16.491 -0.2944 -0.1478 -0.0509
10425TIP3    H152766   0.420   0.918  16.501 -0.9110  0.2046 -1.0393
10425TIP3    H252767   0.552   0.973  16.550 -1.1712 -0.8075  0.8279
10426TIP3   OH252768   1.786   0.295   3.929 -0.5352 -0.0852 -0.3686
10426TIP3    H152769   1.814   0.240   4.002  1.2027  0.7129 -0.4124
10426TIP3    H252770   1.865   0.340   3.901 -0.9615 -1.0667 -3.3409
10427TIP3   OH252771   4.331   1.684  13.870  0.2168  0.0939 -0.0016
10427TIP3    H152772   4.386   1.759  13.846 -1.4218  1.4783  0.4277
10427TIP3    H252773   4.306   1.645  13.786 -1.9163  2.2859 -0.4649
10428TIP3   OH252774   1.667   2.952   4.035 -0.2664  0.4197 -0.2717
10428TIP3    H152775   1.579   2.981   4.010 -0.9002  0.5168  1.9755
10428TIP3    H252776   1.723   2.980   3.962 -1.7430  2.4020 -0.6905
10429TIP3   OH252777   4.724   2.025  13.964 -0.0985  0.5185  0.1786
10429TIP3    H152778   4.769   2.007  13.882  1.8695  0.3872  1.2447
10429TIP3    H252779   4.698   1.939  13.996  2.5440  0.1469  1.5258
10430TIP3   OH252780   6.062   2.785   2.031 -0.1442 -0.4606  0.0449
10430TIP3    H152781   6.155   2.795   2.052 -0.7829  2.0225  1.9630
10430TIP3    H252782   6.020   2.766   2.115 -1.3268 -2.0642 -0.8800
10431TIP3   OH252783   6.396   2.736  14.651 -0.1357  0.3272  0.0481
10431TIP3    H152784   6.396   2.705  14.560 -0.7326  0.4535  0.0015
10431TIP3    H252785   6.476   2.787  14.659 -0.0110  0.2006 -0.3670
10432TIP3   OH252786   0.266   0.384   1.382 -0.3059 -0.1667  0.4484
10432TIP3    H152787   0.278   0.463   1.329  0.8462 -0.9177 -0.4209
10432TIP3    H252788   0.223   0.416   1.462  0.6453  1.4383  0.3571
10433TIP3   OH252789   1.874   3.257  11.608 -0.1519 -0.0164  0.1127
10433TIP3    H152790   1.845   3.189  11.669  0.2912  0.9197  1.3713
10433TIP3    H252791   1.935   3.212  11.549  0.7741 -0.5273  1.4530
10434TIP3   OH252792   4.866   6.344  14.602 -0.3298  0.7725 -0.0994
10434TIP3    H152793   4.827   6.409  14.544 -0.2512  0.7780 -0.1459
10434TIP3    H252794   4.864   6.384  14.688  0.9539  1.3974 -0.3422
10435TIP3   OH252795   0.024   3.410  15.830  0.4854 -0.5022  0.0916
10435TIP3    H152796  -0.021   3.440  15.909 -0.5468 -0.6985 -0.4173
10435TIP3    H252797   0.003   3.476  15.764  2.2308  0.2401  0.2431
10436TIP3   OH252798   0.132   3.827  13.080 -0.4797  0.1678 -0.5708
10436TIP3    H152799   0.165   3.783  13.002  0.6539 -0.4390  0.2393
10436TIP3    H252800   0.102   3.757  13.138 -1.2116  0.6044 -0.4072
10437TIP3   OH252801   5.357   6.330  17.278  0.1088  0.4474 -0.0563
10437TIP3    H152802   5.321   6.382  17.206 -0.3613 -1.7222 -1.4382
10437TIP3    H252803   5.314   6.364  17.356  0.2618  2.5137 -0.8591
10438TIP3   OH252804   0.917   5.955   4.655 -0.7079  0.5328 -0.0867
10438TIP3    H152805   0.844   5.895   4.641 -1.2088  1.2385 -0.5588
10438TIP3    H252806   0.878   6.033   4.694 -0.3084  1.1304 -0.8383
10439TIP3   OH252807   6.321   5.542   1.438  0.1660 -0.2326 -0.0102
10439TIP3    H152808   6.397   5.484   1.442  0.2108 -0.1363  0.4803
10439TIP3    H252809   6.296   5.542   1.345  0.7926 -0.2261 -0.1838
10440TIP3   OH252810   2.977   5.234  14.036 -0.7536 -0.1040 -0.1261
10440TIP3    H152811   2.922   5.309  14.012 -0.7666 -0.3356 -0.8336
10440TIP3    H252812   3.042   5.271  14.096 -0.6957  0.4971 -0.5552
10441TIP3   OH252813   0.646   4.320  12.292 -0.0337 -0.1122 -0.3894
10441TIP3    H152814   0.596   4.240  12.281  0.8963 -0.6806 -0.4982
10441TIP3    H252815   0.600   4.385  12.238 -0.6060 -0.6498 -0.5427
10442TIP3   OH252816   1.433   2.514   1.002  0.2325 -0.0991 -0.1699
10442TIP3    H152817   1.500   2.564   0.954  1.3145 -1.7269 -0.3750
10442TIP3    H252818   1.467   2.508   1.091 -1.2063  1.8701  0.5622
10443TIP3   OH252819   2.958   3.697   1.328 -0.0218  0.3283  0.2355
10443TIP3    H152820   3.024   3.688   1.259 -0.1641 -0.5455  0.2041
10443TIP3    H252821   3.007   3.684   1.409 -0.3424 -1.3829  0.1581
10444TIP3   OH252822   1.413   1.561  16.180  0.3323  0.0058  0.1002
10444TIP3    H152823   1.433   1.472  16.151 -0.9218 -0.0834 -0.5510
10444TIP3    H252824   1.363   1.549  16.260  0.0663  0.1189 -0.0493
10445TIP3   OH252825   3.770   2.019   2.672  0.2459  0.2435  0.2172
10445TIP3    H152826   3.744   2.024   2.580  2.0635  0.9415 -0.2873
10445TIP3    H252827   3.754   2.107   2.706 -0.2270  0.0445  0.5046
10446TIP3   OH252828   3.232   5.843  13.588 -0.3715  0.0676 -0.4317
10446TIP3    H152829   3.265   5.931  13.609 -1.0001  0.5662 -1.5140
10446TIP3    H252830   3.180   5.818  13.664 -0.5207  0.8032 -0.2905
10447TIP3   OH252831   5.011   6.692   3.506 -0.3939 -0.1083  0.4014
10447TIP3    H152832   5.080   6.752   3.536  0.9933 -1.5872  0.2575
10447TIP3    H252833   5.051   6.646   3.432 -2.3343  0.5596 -1.0943
10448TIP3   OH252834   5.082   3.066   2.006 -0.4349  0.6240  0.0679
10448TIP3    H152835   5.035   3.139   1.965 -1.2169 -0.1914 -0.5301
10448TIP3    H252836   5.157   3.051   1.948  0.0292  1.3088  0.4937
10449TIP3   OH252837   4.944   2.159   0.920  0.0479 -0.2819 -0.3736
10449TIP3    H152838   4.928   2.071   0.955  0.3533  0.7314  2.4074
10449TIP3    H252839   4.961   2.144   0.827  1.0619 -3.2859  0.2255
10450TIP3   OH252840   1.624   5.686   3.826 -0.3766  0.4730  0.9771
10450TIP3    H152841   1.531   5.699   3.807  0.2285  0.1946 -2.4633
10450TIP3    H252842   1.627   5.603   3.873 -1.7895 -0.0888  0.1247
10451TIP3   OH252843   4.628   2.332   2.381  0.3658 -0.1109 -0.4803
10451TIP3    H152844   4.717   2.361   2.403  0.0612  0.7594 -0.3862
10451TIP3    H252845   4.641   2.249   2.335  1.1499 -0.7694  0.8793
10452TIP3   OH252846   2.278   1.151  13.242 -0.4408  0.2755 -0.5067
10452TIP3    H152847   2.264   1.218  13.309  2.0784 -0.6983  1.0670
10452TIP3    H252848   2.244   1.070  13.282 -2.7825  0.4265 -2.0992
10453TIP3   OH252849   5.362   3.786   0.676 -0.4355 -0.2125  0.2918
10453TIP3    H152850   5.304   3.743   0.613 -0.3344  0.5457 -0.3187
10453TIP3    H252851   5.437   3.815   0.624 -0.3084  0.3398  0.7773
10454TIP3   OH252852   0.293   3.453  13.108  0.2394  0.1762  0.2243
10454TIP3    H152853   0.344   3.524  13.146 -1.1268  1.1623  0.2529
10454TIP3    H252854   0.285   3.389  13.179  0.7359  0.3960  0.4765
10455TIP3   OH252855   1.348   3.660  10.951 -0.6451  0.0766 -0.7526
10455TIP3    H152856   1.436   3.682  10.918  0.1603 -2.0004 -0.0936
10455TIP3    H252857   1.295   3.654  10.872 -0.2739  1.5943 -1.1443
10456TIP3   OH252858   1.510   0.126  13.897  0.1257  0.2591 -0.3374
10456TIP3    H152859   1.582   0.145  13.837  0.3937 -0.3729 -0.2221
10456TIP3    H252860   1.483   0.037  13.875 -0.2420  0.2836  0.0049
10457TIP3   OH252861   3.994   0.776   5.575  0.0476 -0.4052 -0.0348
10457TIP3    H152862   3.993   0.683   5.600 -0.6143 -0.0938  1.1520
10457TIP3    H252863   3.916   0.788   5.522  0.1983 -0.5525 -0.2903
10458TIP3   OH252864   4.878   3.975  13.238 -0.1250 -0.1618  0.2251
10458TIP3    H152865   4.911   3.886  13.257 -3.0646 -1.4769 -0.6452
10458TIP3    H252866   4.806   3.987  13.299  0.0941  1.5625  0.1546
10459TIP3   OH252867   1.057   2.214   0.215 -0.1109  0.2118  0.1628
10459TIP3    H152868   1.034   2.306   0.228 -1.0015 -0.0085  0.1720
10459TIP3    H252869   1.097   2.212   0.127 -0.1509  0.5907  0.1354
10460TIP3   OH252870   2.068   3.143  14.195  0.0230  0.4961 -0.7573
10460TIP3    H152871   2.016   3.156  14.115 -0.2708  2.2803 -0.3064
10460TIP3    H252872   2.074   3.231  14.234 -0.7833 -0.5313  1.7748
10461TIP3   OH252873   2.224   3.550   1.579 -0.1629 -0.1706 -0.4772
10461TIP3    H152874   2.245   3.611   1.649  2.2211 -1.5854  0.1011
10461TIP3    H252875   2.225   3.604   1.499  0.4019  0.8222  0.1875
10462TIP3   OH252876   1.720   5.154   3.340 -0.3053 -0.0589 -0.3955
10462TIP3    H152877   1.704   5.089   3.272  1.8193 -0.6874 -0.3129
10462TIP3    H252878   1.809   5.138   3.369 -0.4750  1.5368  1.1148
10463TIP3   OH252879   5.320   6.155  13.279 -0.3336  0.8137 -0.7140
10463TIP3    H152880   5.269   6.220  13.328 -0.9097 -0.3833  0.2871
10463TIP3    H252881   5.297   6.071  13.318  0.9441  0.0580 -1.5350
10464TIP3   OH252882   0.947   6.112   1.244  0.3005  0.0482  0.4389
10464TIP3    H152883   1.018   6.080   1.299 -0.0785  0.8248  1.3958
10464TIP3    H252884   0.869   6.067   1.278  0.1828 -0.0503  0.0358
10465TIP3   OH252885   6.691   5.315   4.219  0.3414  0.0524 -0.3391
10465TIP3    H152886   6.738   5.296   4.301  1.0128  0.5881 -0.5929
10465TIP3    H252887   6.606   5.273   4.230  0.4485  0.0722  0.6153
10466TIP3   OH252888   5.041   2.481   5.800 -0.4134  0.4727 -0.0580
10466TIP3    H152889   5.118   2.533   5.826 -0.3853  0.7462 -0.6771
10466TIP3    H252890   5.046   2.478   5.704  0.1384 -1.5295  0.0254
10467TIP3   OH252891   1.445   1.405   3.171 -0.0485 -0.5328  0.5089
10467TIP3    H152892   1.489   1.471   3.117  1.1555 -1.7057  0.0296
10467TIP3    H252893   1.383   1.455   3.223 -1.1119  0.6653 -1.8173
10468TIP3   OH252894   5.217   5.758   3.427  1.0855  0.4846  0.1239
10468TIP3    H152895   5.180   5.692   3.485 -1.0941  0.1390 -1.6054
10468TIP3    H252896   5.206   5.723   3.339  3.1966  1.5600 -0.6134
10469TIP3   OH252897   4.440   1.115  11.301 -0.0642  0.2994  0.4810
10469TIP3    H152898   4.485   1.112  11.385 -0.3002  0.0736  0.5981
10469TIP3    H252899   4.390   1.197  11.304  1.1729  1.0833 -0.0780
10470TIP3   OH252900   0.497   4.090   2.129 -0.3178  0.8001 -0.7753
10470TIP3    H152901   0.442   4.080   2.051 -3.3158  1.4183  1.1836
10470TIP3    H252902   0.523   4.182   2.128 -0.5632  0.8678 -0.9056
10471TIP3   OH252903   4.618   3.775   3.015  0.1497  0.4285 -0.0011
10471TIP3    H152904   4.625   3.851   2.957 -1.4720 -1.1020 -2.3000
10471TIP3    H252905   4.550   3.799   3.078 -0.1942  1.0008 -0.5808
10472TIP3   OH252906   4.767   5.382  14.475 -0.2020 -0.3135  0.2130
10472TIP3    H152907   4.801   5.336  14.399  1.1415  0.0542  0.5735
10472TIP3    H252908   4.710   5.449  14.439  0.0332 -0.4668 -0.4487
10473TIP3   OH252909   5.533   4.787   1.249 -0.8477  0.4510  0.0609
10473TIP3    H152910   5.503   4.784   1.340  1.5016  0.7745  0.8579
10473TIP3    H252911   5.560   4.698   1.229  0.1865  0.7209  0.2219
10474TIP3   OH252912   2.532   3.244  14.471  0.2385 -0.1586  0.0777
10474TIP3    H152913   2.516   3.322  14.524 -0.0168 -0.1767  0.0297
10474TIP3    H252914   2.588   3.189  14.525 -0.8120 -0.6078  0.7351
10475TIP3   OH252915   4.828   0.220  14.992  0.7469  0.2492  0.3214
10475TIP3    H152916   4.818   0.231  15.087  0.0938  0.3510  0.2467
10475TIP3    H252917   4.741   0.190  14.963  1.1794 -0.5986 -0.1228
10476TIP3   OH252918   5.826   0.242   4.988 -0.1960  0.5377 -0.1881
10476TIP3    H152919   5.894   0.193   4.942  0.0701  1.7449 -1.0977
10476TIP3    H252920   5.848   0.334   4.974 -0.8812  0.9363  1.2255
10477TIP3   OH252921   2.410   2.842   2.879  0.0366  0.3683 -0.3234
10477TIP3    H152922   2.378   2.806   2.796 -0.8569 -0.0460  0.1862
10477TIP3    H252923   2.361   2.923   2.890  0.9025  0.9456 -0.6968
10478TIP3   OH252924   2.656   1.811  15.225  0.1758 -0.9630  0.2381
10478TIP3    H152925   2.636   1.777  15.313  0.2515 -0.3496  0.4903
10478TIP3    H252926   2.642   1.905  15.232  0.8433 -0.8276 -0.2278
10479TIP3   OH252927   1.410   0.687  12.902 -0.4491  0.4543 -0.8500
10479TIP3    H152928   1.334   0.714  12.851 -0.2058  2.3883 -0.2351
10479TIP3    H252929   1.480   0.745  12.873  0.9123 -1.5437 -1.6706
10480TIP3   OH252930   5.110   0.039   1.629  0.1478 -0.0348  0.1436
10480TIP3    H152931   5.103   0.093   1.707  1.1988 -0.2194  0.3681
10480TIP3    H252932   5.148   0.097   1.563 -1.5878  0.3947 -0.5117
10481TIP3   OH252933   2.754   2.949  17.206 -0.1355 -0.3174 -0.2272
10481TIP3    H152934   2.833   2.901  17.230  0.4819  0.9160  0.2733
10481TIP3    H252935   2.773   3.040  17.231 -2.3166 -0.2821  1.4333
10482TIP3   OH252936   3.864   4.058   2.004 -0.0599  0.5410  0.0462
10482TIP3    H152937   3.911   3.975   2.012  0.8865  1.1850  1.4081
10482TIP3    H252938   3.932   4.122   1.981 -0.2998  1.4236  1.7252
10483TIP3   OH252939   6.798   0.112   3.705  0.3905  0.1561  0.0840
10483TIP3    H152940   6.877   0.067   3.675  0.0679 -0.3852  0.0459
10483TIP3    H252941   6.829   0.175   3.769  1.0581  1.0800 -1.1206
10484TIP3   OH252942   0.961   3.259   4.114  0.5519  0.3930 -0.5431
10484TIP3    H152943   0.978   3.353   4.119  1.3152  0.2232  0.1672
10484TIP3    H252944   1.022   3.220   4.176 -1.3664 -0.3888  0.9049
10485TIP3   OH252945   5.938   5.427  11.608  0.4323  0.1300 -0.2052
10485TIP3    H152946   6.011   5.418  11.670  2.0035 -1.0175 -2.1625
10485TIP3    H252947   5.978   5.466  11.530 -0.4973 -2.7848 -2.2139
10486TIP3   OH252948   0.679   5.964   5.106 -0.1301 -0.1705 -0.5241
10486TIP3    H152949   0.710   5.884   5.148  0.7968  0.0244 -0.8288
10486TIP3    H252950   0.745   5.983   5.039 -0.9633  0.1814 -1.2601
10487TIP3   OH252951   3.017   1.412   1.205 -0.1882 -0.1968  0.0962
10487TIP3    H152952   3.016   1.506   1.225 -0.4282 -0.3515  0.8007
10487TIP3    H252953   2.995   1.369   1.287  1.1348 -0.9280  0.0766
10488TIP3   OH252954   4.579   3.878   5.017  0.1061 -0.1312 -0.5932
10488TIP3    H152955   4.672   3.899   5.004 -0.3370  2.2518 -0.2352
10488TIP3    H252956   4.578   3.818   5.091  1.2149  1.8657  1.1069
10489TIP3   OH252957   6.561   5.467   0.399  0.1136 -0.4934 -0.1059
10489TIP3    H152958   6.512   5.541   0.434  0.8746 -0.8841  1.8575
10489TIP3    H252959   6.497   5.418   0.347 -1.5801 -0.9100  2.2830
10490TIP3   OH252960   0.799   5.679  14.364 -0.2435  0.1063 -0.4371
10490TIP3    H152961   0.815   5.747  14.429  1.8715 -0.9478  0.1628
10490TIP3    H252962   0.885   5.662  14.324 -0.8131 -1.8919 -0.8898
10491TIP3   OH252963   6.417   1.555  16.898  0.1242 -0.5799 -1.4194
10491TIP3    H152964   6.381   1.517  16.978 -0.3867 -1.5162 -2.0718
10491TIP3    H252965   6.357   1.526  16.829  0.2655  0.6590 -2.0656
10492TIP3   OH252966   5.254   4.146  15.398 -0.0093 -0.1172  0.6873
10492TIP3    H152967   5.219   4.235  15.408  0.3474  0.1990 -0.7263
10492TIP3    H252968   5.249   4.108  15.485  1.1136  1.7720  1.6086
10493TIP3   OH252969   3.317   0.441  12.273 -0.0833  0.4791  0.2623
10493TIP3    H152970   3.232   0.451  12.230 -0.2602 -0.2451  0.4444
10493TIP3    H252971   3.379   0.476  12.210 -0.4272  0.1797 -0.2465
10494TIP3   OH252972   2.225   1.218   6.829 -0.1157  0.3329 -0.0019
10494TIP3    H152973   2.223   1.123   6.819 -3.2061  0.2864  0.7902
10494TIP3    H252974   2.221   1.233   6.923  1.1637  1.2724 -0.0687
10495TIP3   OH252975   2.507   3.543   4.774 -0.1596  0.5589 -0.7544
10495TIP3    H152976   2.468   3.482   4.712  0.0151  1.8144 -2.1393
10495TIP3    H252977   2.459   3.529   4.856 -1.4018 -0.0870 -1.5867
10496TIP3   OH252978   3.100   1.397   1.726 -0.3664  0.0341 -0.1161
10496TIP3    H152979   3.132   1.327   1.669 -1.9036 -0.9193  0.1555
10496TIP3    H252980   3.020   1.427   1.685 -0.9407  0.0431  0.9909
10497TIP3   OH252981   3.715   0.200  12.424  0.6054 -0.0055 -0.0154
10497TIP3    H152982   3.730   0.265  12.493  2.9349  0.9611 -1.3801
10497TIP3    H252983   3.656   0.136  12.464 -0.5411  2.1507  1.8415
10498TIP3   OH252984   3.851   3.645  13.063 -0.0593 -0.2792 -0.3617
10498TIP3    H152985   3.915   3.633  13.133  0.7363 -1.3968 -1.2699
10498TIP3    H252986   3.808   3.561  13.054 -0.3394 -0.0697 -1.0371
10499TIP3   OH252987   6.562   2.031   3.546 -0.2923 -0.3268 -0.3802
10499TIP3    H152988   6.520   2.100   3.598  0.2495  1.0056 -1.6681
10499TIP3    H252989   6.501   2.015   3.474  0.7938  0.7432 -1.5728
10500TIP3   OH252990   2.516   1.676  17.097  0.1819  0.1220  0.1952
10500TIP3    H152991   2.511   1.631  17.012  0.9005 -1.3985  0.9379
10500TIP3    H252992   2.607   1.704  17.104  0.9978 -2.7747  1.9405
10501TIP3   OH252993   6.296   1.166   0.999  0.3409 -0.4103 -0.7114
10501TIP3    H152994   6.292   1.093   0.937 -0.8225 -0.3644 -0.7015
10501TIP3    H252995   6.278   1.126   1.084  1.3310 -0.3755 -0.4860
10502TIP3   OH252996   6.668   3.683   5.615 -0.4635  0.4189  0.2626
10502TIP3    H152997   6.669   3.592   5.647  0.4867  0.3676  0.0868
10502TIP3    H252998   6.741   3.688   5.554 -1.6468  0.8031 -1.1569
10503TIP3   OH252999   6.208   5.960   2.354 -0.3460 -0.1514  0.1494
10503TIP3    H153000   6.188   5.870   2.328 -2.5190  0.1019  0.8803
10503TIP3    H253001   6.123   5.998   2.378  0.4457  2.3095 -0.7927
10504TIP3   OH253002   5.874   0.373   3.530  0.5325 -0.6673  0.0907
10504TIP3    H153003   5.827   0.453   3.505  0.0204 -0.4542  1.7053
10504TIP3    H253004   5.925   0.397   3.607  0.2253 -1.9395  0.7053
10505TIP3   OH253005   6.738   3.221   0.015  0.1320  0.7798  0.0693
10505TIP3    H153006   6.727   3.307  -0.028  1.1944 -0.4071 -2.7399
10505TIP3    H253007   6.829   3.198  -0.003  0.1249 -0.5151  1.6624
10506TIP3   OH253008   0.590   2.828  12.452  0.3588  0.0046  0.2475
10506TIP3    H153009   0.600   2.774  12.373 -1.8274 -0.3266  0.1736
10506TIP3    H253010   0.672   2.816  12.499  0.0952 -3.0901  0.0287
10507TIP3   OH253011   5.750   4.973   6.091 -0.1240  0.3735  0.1364
10507TIP3    H153012   5.672   4.930   6.126 -0.1850 -0.2572 -0.7571
10507TIP3    H253013   5.792   5.013   6.167 -0.1705 -1.0950  0.9607
10508TIP3   OH253014   4.080   4.406   0.191  0.2233 -0.0424 -0.3646
10508TIP3    H153015   3.993   4.378   0.164 -0.6261  0.4236  1.7735
10508TIP3    H253016   4.136   4.332   0.170 -1.0150 -1.0761 -0.0915
10509TIP3   OH253017   6.340   4.563  15.278  0.3749 -0.3465  0.2479
10509TIP3    H153018   6.279   4.574  15.205 -0.4421 -0.4594  0.9030
10509TIP3    H253019   6.357   4.468  15.281  0.8617 -0.2741 -0.1548
10510TIP3   OH253020   0.866   6.642  15.028 -0.0719 -0.2132 -0.3538
10510TIP3    H153021   0.798   6.639  15.095  0.9982  1.0350  0.8359
10510TIP3    H253022   0.941   6.597  15.068 -0.0046 -1.0478 -1.4114
10511TIP3   OH253023   5.276   6.071   0.833 -0.1911 -0.7400  0.3913
10511TIP3    H153024   5.284   6.147   0.890  2.2884  0.1687 -1.1085
10511TIP3    H253025   5.257   6.108   0.746  0.1753 -1.8627 -0.1783
10512TIP3   OH253026   5.352   4.791   4.362  0.3405  0.2475 -0.3423
10512TIP3    H153027   5.327   4.746   4.282 -2.4532 -1.2731  1.3232
10512TIP3    H253028   5.380   4.722   4.421  0.5118  1.1725  0.6781
10513TIP3   OH253029   3.913   4.463  10.462 -0.2670 -0.3619 -0.2849
10513TIP3    H153030   3.911   4.380  10.509  0.9737 -0.1891  0.1018
10513TIP3    H253031   3.942   4.439  10.373 -2.1901 -0.6321 -0.8591
10514TIP3   OH253032   2.793   1.709   5.467 -0.4320 -0.1722  0.5125
10514TIP3    H153033   2.731   1.781   5.480 -0.5677 -0.3684  0.9742
10514TIP3    H253034   2.787   1.657   5.548  0.9642  0.2826  0.9289
10515TIP3   OH253035   5.026   5.483  14.350 -0.0718  0.1061 -0.1993
10515TIP3    H153036   5.073   5.417  14.401 -0.1323  0.5589  0.4506
10515TIP3    H253037   5.031   5.451  14.260  3.7016  1.3672 -0.5525
10516TIP3   OH253038   6.510   1.311   6.362 -0.4980 -0.4061  0.2381
10516TIP3    H153039   6.453   1.308   6.438 -0.4944  1.1900  0.3221
10516TIP3    H253040   6.477   1.384   6.310  1.4151  0.5273  0.2633
10517TIP3   OH253041   5.997   5.807   5.189 -0.2984  0.8043 -0.1416
10517TIP3    H153042   6.085   5.775   5.212 -1.9897 -2.0270  2.8189
10517TIP3    H253043   5.966   5.745   5.123 -0.7526  0.7152  0.1548
10518TIP3   OH253044   6.675   4.408   3.868 -0.5922 -0.2642  0.3978
10518TIP3    H153045   6.609   4.472   3.894 -1.4954 -1.1018  0.2129
10518TIP3    H253046   6.676   4.344   3.940 -1.1392 -1.1120 -0.3347
10519TIP3   OH253047   3.011   2.814   5.940  0.4209 -0.0042 -0.4389
10519TIP3    H153048   2.975   2.821   5.851  2.2510 -0.9887 -1.2931
10519TIP3    H253049   2.950   2.757   5.986  1.1320 -2.0959 -2.0142
10520TIP3   OH253050   4.835   3.310  12.368  0.4574 -0.2414 -0.2486
10520TIP3    H153051   4.841   3.405  12.363  0.5953 -0.2389 -0.0636
10520TIP3    H253052   4.913   3.284  12.417  1.2053 -0.5797 -1.6070
10521TIP3   OH253053   3.388   2.218  13.900  0.6185  0.2133  0.1833
10521TIP3    H153054   3.452   2.235  13.969  1.3524 -0.3832 -0.3434
10521TIP3    H253055   3.441   2.212  13.820 -0.2297  1.0334 -0.4533
10522TIP3   OH253056   0.971   4.237  12.636 -0.1527  0.4901 -0.3233
10522TIP3    H153057   1.041   4.205  12.579  0.4972  0.3010  0.5687
10522TIP3    H253058   1.015   4.263  12.716 -1.2318 -0.6551  0.6667
10523TIP3   OH253059   3.992   5.369  15.549 -0.1706  0.6842 -0.3503
10523TIP3    H153060   3.931   5.397  15.480  1.2999  1.3272 -1.4113
10523TIP3    H253061   4.075   5.357  15.504  0.6697  0.5500  1.2250
10524TIP3   OH253062   4.346   3.985  12.232 -0.2215 -0.0901  0.1851
10524TIP3    H153063   4.276   4.003  12.294 -1.1903  0.1370 -0.9625
10524TIP3    H253064   4.322   3.901  12.193 -0.3487  0.4283 -0.8727
10525TIP3   OH253065   6.220   0.302   4.512 -0.6694  0.1175  0.0394
10525TIP3    H153066   6.304   0.326   4.473 -0.6487 -1.0551 -0.6780
10525TIP3    H253067   6.237   0.220   4.558 -1.0915  0.6234  1.1175
10526TIP3   OH253068   1.292   5.459   6.046 -0.1450 -0.5352 -1.2660
10526TIP3    H153069   1.244   5.540   6.061  0.7234 -0.3424  0.6406
10526TIP3    H253070   1.224   5.392   6.041 -0.7064 -0.0990  0.1721
10527TIP3   OH253071   3.725   3.878   1.147  0.4846 -0.4875  0.3802
10527TIP3    H153072   3.783   3.889   1.073  0.8508 -0.5364  0.6574
10527TIP3    H253073   3.751   3.794   1.185  0.1443 -0.5734  0.4244
10528TIP3   OH253074   0.120   0.752   0.272  0.1535 -0.3596 -0.0324
10528TIP3    H153075   0.202   0.706   0.290 -0.7645 -0.9396  2.8895
10528TIP3    H253076   0.052   0.694   0.306 -1.3131  1.1903 -0.2565
10529TIP3   OH253077   3.597   5.938   5.976 -0.4861  0.1766  0.1788
10529TIP3    H153078   3.587   5.846   6.001  2.3719 -0.1363  0.3686
10529TIP3    H253079   3.652   5.976   6.046  1.6606  1.0364 -1.9109
10530TIP3   OH253080   3.705   5.279  12.246  0.0387  0.3715  0.1120
10530TIP3    H153081   3.663   5.311  12.166  1.4191  0.5747 -0.5487
10530TIP3    H253082   3.707   5.355  12.304 -1.8165 -0.0176  0.7173
10531TIP3   OH253083   6.397   4.751  14.710 -0.4143 -0.2963 -0.0963
10531TIP3    H153084   6.416   4.664  14.743 -0.7860 -0.2972  0.1111
10531TIP3    H253085   6.391   4.806  14.788  1.9111  0.3355 -0.3204
10532TIP3   OH253086   5.502   0.854  11.502  0.3601 -0.7935 -0.0888
10532TIP3    H153087   5.444   0.918  11.461 -0.1068 -2.1997 -1.6854
10532TIP3    H253088   5.468   0.845  11.591  0.3959  1.1058  0.1292
10533TIP3   OH253089   0.624   0.730   2.475  0.4026 -0.0415  0.6613
10533TIP3    H153090   0.569   0.661   2.440 -1.0557  1.8834 -0.9599
10533TIP3    H253091   0.704   0.728   2.422 -0.3584  0.6090 -0.5330
10534TIP3   OH253092   5.674   4.117   4.588 -0.0048  0.3585 -0.5293
10534TIP3    H153093   5.580   4.121   4.604 -0.0700  2.5934 -1.2787
10534TIP3    H253094   5.682   4.122   4.493  0.8637 -0.5627 -0.5127
10535TIP3   OH253095   4.356   3.211   0.198 -0.2466  0.5306 -0.3560
10535TIP3    H153096   4.317   3.232   0.283 -1.3086  2.7425 -1.3481
10535TIP3    H253097   4.379   3.296   0.161  3.8617 -0.6010 -0.6261
10536TIP3   OH253098   0.497   3.843   3.134 -0.3799  0.1837 -0.2397
10536TIP3    H153099   0.582   3.861   3.175 -0.1807  2.2419 -1.4443
10536TIP3    H253100   0.515   3.846   3.040 -1.5460 -0.6427 -0.4973
10537TIP3   OH253101   6.783   5.387  15.473 -0.1727 -0.1777 -0.1596
10537TIP3    H153102   6.695   5.396  15.510 -0.2181 -1.5417  0.0864
10537TIP3    H253103   6.781   5.303  15.426  0.6596  0.3109 -1.0838
10538TIP3   OH253104   4.273   4.072  13.832 -0.0988  0.3584  0.4162
10538TIP3    H153105   4.263   3.984  13.795  2.0472  0.8999 -1.5694
10538TIP3    H253106   4.184   4.097  13.857 -0.7411 -2.4088  1.1590
10539TIP3   OH253107   6.310   1.669  14.735  0.5329 -0.2498  0.0351
10539TIP3    H153108   6.353   1.696  14.654 -0.8950  0.1309 -0.5933
10539TIP3    H253109   6.266   1.748  14.766  0.7886 -0.4820  1.0085
10540TIP3   OH253110   2.922   0.693   4.995 -0.1238  0.0891 -0.0622
10540TIP3    H153111   2.880   0.762   5.046 -0.4628  0.5919 -1.0111
10540TIP3    H253112   2.996   0.736   4.952  1.1330 -0.6936  1.2638
10541TIP3   OH253113   5.045   6.817  14.474  0.1563  0.4133  0.3323
10541TIP3    H153114   5.119   6.774  14.432  0.8576  1.2627  0.6748
10541TIP3    H253115   5.078   6.844  14.560 -0.1460  1.9740 -0.0293
10542TIP3   OH253116   4.722   4.266   2.844 -0.2015 -0.0582 -0.1306
10542TIP3    H153117   4.742   4.205   2.915  2.7832 -0.2654 -1.0629
10542TIP3    H253118   4.688   4.344   2.889  2.4513  0.1618  1.6707
10543TIP3   OH253119   1.828   4.688  16.967 -0.0122  0.6849  0.3890
10543TIP3    H153120   1.756   4.700  17.028 -1.0634  1.5495 -1.0021
10543TIP3    H253121   1.806   4.609  16.918 -1.0951  2.1094 -1.4853
10544TIP3   OH253122   5.580   3.707  12.565 -0.0143 -0.0349 -0.0335
10544TIP3    H153123   5.598   3.789  12.611  2.8208  0.1376 -1.3307
10544TIP3    H253124   5.531   3.733  12.488  0.3213  0.3798 -0.1097
10545TIP3   OH253125   2.472   2.808  14.642  0.1511 -0.1044 -0.5167
10545TIP3    H153126   2.487   2.807  14.548  0.8163 -2.3956 -0.4236
10545TIP3    H253127   2.557   2.784  14.680 -0.1661  0.5839  0.6629
10546TIP3   OH253128   2.534   6.028  15.301  0.5110 -0.8647  0.2123
10546TIP3    H153129   2.612   6.078  15.278  0.0240 -0.2655 -0.1527
10546TIP3    H253130   2.527   5.962  15.232  0.2770 -0.4424 -0.1747
10547TIP3   OH253131   0.305   6.005  15.942  0.0440  0.2751  0.0467
10547TIP3    H153132   0.344   5.922  15.915  0.8009  0.9724 -1.0605
10547TIP3    H253133   0.226   6.014  15.889 -1.2673 -0.7871  1.7677
10548TIP3   OH253134   1.015   5.393  14.821 -0.9163  0.5246 -0.2093
10548TIP3    H153135   1.024   5.306  14.859 -0.9812  0.8609  0.5851
10548TIP3    H253136   0.939   5.431  14.866 -0.0935  1.4704  0.3976
10549TIP3   OH253137   5.424   5.785   4.424  0.0399 -0.1106  0.4356
10549TIP3    H153138   5.365   5.709   4.430 -1.2580  0.7159 -1.4539
10549TIP3    H253139   5.502   5.751   4.380 -0.7283 -0.2657 -0.8354
10550TIP3   OH253140   4.847   5.268   2.948  0.0595 -0.0694 -0.6870
10550TIP3    H153141   4.820   5.345   2.998  0.7247 -0.0508 -0.3529
10550TIP3    H253142   4.939   5.283   2.928  0.4751 -1.2428  0.2603
10551TIP3   OH253143   1.343   1.913  11.582  1.1472  0.1655  1.0034
10551TIP3    H153144   1.268   1.865  11.615  1.2328 -0.3928  0.3896
10551TIP3    H253145   1.416   1.852  11.589  1.0997 -0.0892 -0.5470
10552TIP3   OH253146   5.869   5.466  13.280 -0.2697 -0.0733 -0.3916
10552TIP3    H153147   5.801   5.399  13.294  1.2408 -2.0776 -2.2230
10552TIP3    H253148   5.940   5.441  13.340  0.9236 -1.0670 -2.1650
10553TIP3   OH253149   6.078   6.172   2.842  0.7133 -0.4789 -0.1505
10553TIP3    H153150   6.167   6.175   2.807  0.6342 -1.1155 -0.4239
10553TIP3    H253151   6.069   6.252   2.893  1.3776 -0.3172 -0.2826
10554TIP3   OH253152   5.061   5.945   4.366  0.1135  0.1129 -0.1042
10554TIP3    H153153   5.050   5.994   4.285 -0.6361  3.6546  2.0434
10554TIP3    H253154   4.996   5.875   4.360 -1.1971  1.4273 -1.7392
10555TIP3   OH253155   1.194   5.527  16.463 -0.1712  0.3620 -0.4430
10555TIP3    H153156   1.263   5.588  16.488 -1.5755  1.8338 -0.0562
10555TIP3    H253157   1.113   5.569  16.493 -1.3527 -0.7297 -2.0283
10556TIP3   OH253158   3.732   4.855   4.301 -0.0519 -0.0194  0.4108
10556TIP3    H153159   3.702   4.918   4.366 -1.4433 -1.4488  1.1546
10556TIP3    H253160   3.826   4.845   4.319  0.4444  2.7034 -0.4625
10557TIP3   OH253161   1.870   3.859  15.859  0.0195  0.1642 -0.1136
10557TIP3    H153162   1.909   3.823  15.779  1.1089 -1.4908  1.1482
10557TIP3    H253163   1.881   3.791  15.924  0.3337  2.0130  1.8248
10558TIP3   OH253164   2.418   0.532  12.698 -0.3344  0.5889 -0.3383
10558TIP3    H153165   2.324   0.543  12.688 -0.8808 -3.1686 -0.2588
10558TIP3    H253166   2.453   0.546  12.610 -1.2259  0.1342 -0.7784
10559TIP3   OH253167   0.857   1.921  14.260  0.1922 -0.6289 -0.1549
10559TIP3    H153168   0.800   1.846  14.247  1.0292 -1.3036  0.0264
10559TIP3    H253169   0.944   1.884  14.270  0.8936  0.4856 -1.8745
10560TIP3   OH253170   0.280   3.458  11.553 -0.6027  0.6705  0.1645
10560TIP3    H153171   0.353   3.506  11.513 -1.2408  0.0044 -1.8618
10560TIP3    H253172   0.202   3.502  11.519 -1.1700 -0.0564  0.5283
10561TIP3   OH253173   6.329   2.436  14.428 -0.3010  0.2365  0.6256
10561TIP3    H153174   6.258   2.408  14.370  0.4249 -1.1189  0.3853
10561TIP3    H253175   6.344   2.527  14.404  2.0793 -1.1373 -3.5241
10562TIP3   OH253176   0.743   1.112   1.437  0.1041 -0.2694 -0.0756
10562TIP3    H153177   0.715   1.070   1.518 -0.9570  0.1490 -0.2198
10562TIP3    H253178   0.681   1.184   1.425  1.2630  0.7082 -0.3701
10563TIP3   OH253179   3.842   3.735   0.138 -0.0894 -0.2043  0.1861
10563TIP3    H153180   3.803   3.670   0.197  2.9567 -3.7721 -1.5067
10563TIP3    H253181   3.777   3.746   0.069 -0.4970 -1.7523  0.3086
10564TIP3   OH253182   6.372   3.358   2.432  0.2110 -0.3558 -0.5361
10564TIP3    H153183   6.408   3.270   2.430 -2.2443 -1.3812 -1.7593
10564TIP3    H253184   6.361   3.382   2.340 -1.0376  0.3953 -0.2135
10565TIP3   OH253185   6.165   3.896  11.971 -0.3380 -0.4382 -0.0594
10565TIP3    H153186   6.089   3.917  12.025 -0.6646  2.0057 -1.3802
10565TIP3    H253187   6.238   3.942  12.013 -0.2442 -0.0443 -0.6435
10566TIP3   OH253188   6.397   0.645   1.638  0.1235 -0.4923  0.4112
10566TIP3    H153189   6.436   0.558   1.643  0.2408 -0.3333  2.6227
10566TIP3    H253190   6.312   0.631   1.596  0.1776 -1.6670  0.6742
10567TIP3   OH253191   4.381   0.704  12.154 -0.3028  0.3185  0.2079
10567TIP3    H153192   4.428   0.703  12.237 -0.1254  1.9679  0.1400
10567TIP3    H253193   4.449   0.712  12.087 -0.4980 -0.2137 -0.0587
10568TIP3   OH253194   1.672   2.240  12.072 -0.1132 -0.6902 -0.2631
10568TIP3    H153195   1.747   2.208  12.021 -0.4268 -0.9122 -0.5787
10568TIP3    H253196   1.705   2.321  12.113  0.3290 -0.8317 -0.3309
10569TIP3   OH253197   2.454   3.460   5.429  0.0301  0.3657  0.0662
10569TIP3    H153198   2.379   3.491   5.379  0.8024 -0.0261 -1.3579
10569TIP3    H253199   2.483   3.537   5.478 -0.5920  0.8093 -0.2500
10570TIP3   OH253200   2.216   0.530  15.632  0.0852  0.0828  0.0243
10570TIP3    H153201   2.244   0.501  15.545  0.0819 -0.0195  0.0577
10570TIP3    H253202   2.288   0.585  15.663  0.3423 -0.3449  0.1924
10571TIP3   OH253203   0.253   0.913   1.115  0.2654 -0.1329  0.6043
10571TIP3    H153204   0.296   0.993   1.084 -0.2386  0.1984  0.7651
10571TIP3    H253205   0.167   0.914   1.073 -0.1240 -0.0810  1.4048
10572TIP3   OH253206   1.606   0.874   5.897 -0.0830  1.0950  0.0350
10572TIP3    H153207   1.677   0.937   5.886  0.2234  0.9310  1.0177
10572TIP3    H253208   1.548   0.890   5.822  0.8903  1.3533 -0.6670
10573TIP3   OH253209   6.659   0.253  14.836  0.4498 -0.4922 -0.1651
10573TIP3    H153210   6.618   0.197  14.770 -0.4429 -1.8257  1.4731
10573TIP3    H253211   6.751   0.226  14.836  0.1868 -1.4036  0.0484
10574TIP3   OH253212   2.288   6.172  13.925 -0.0266 -0.1408  0.1315
10574TIP3    H153213   2.290   6.258  13.967  1.2577  0.5601 -1.3225
10574TIP3    H253214   2.200   6.139  13.944 -0.5959  1.5544  0.5911
10575TIP3   OH253215   5.705   2.195   1.110  0.4915 -0.2985 -0.3743
10575TIP3    H153216   5.749   2.110   1.118  2.5847  0.6443 -1.4574
10575TIP3    H253217   5.613   2.173   1.094  1.3378 -2.4244 -2.6194
10576TIP3   OH253218   0.744   2.151  12.074 -0.6017  0.0365 -0.5654
10576TIP3    H153219   0.829   2.181  12.105 -1.1312  1.7111 -0.6693
10576TIP3    H253220   0.751   2.055  12.073  0.6918  0.0888  1.0761
10577TIP3   OH253221   0.271   1.460  16.562 -0.4003 -0.4255  0.1376
10577TIP3    H153222   0.290   1.473  16.655  0.6491  2.0109 -0.3676
10577TIP3    H253223   0.299   1.371  16.544  0.2338 -0.6159  1.9597
10578TIP3   OH253224   0.029   3.470   5.277 -0.4821 -0.2119 -0.4287
10578TIP3    H153225   0.008   3.550   5.230 -0.4209  0.4743  0.6797
10578TIP3    H253226   0.030   3.401   5.210 -2.2747  0.4111 -1.1202
10579TIP3   OH253227   1.753   1.207   3.822 -0.1568 -0.6658  0.1777
10579TIP3    H153228   1.818   1.149   3.862 -0.0161 -0.7618 -0.1893
10579TIP3    H253229   1.672   1.189   3.871  0.4059  0.4333  1.5252
10580TIP3   OH253230   2.674   0.555  15.614  0.0211  0.3562 -0.5660
10580TIP3    H153231   2.662   0.497  15.539 -1.0908  1.6348 -1.4028
10580TIP3    H253232   2.683   0.643  15.575 -0.5389  1.0234  0.7728
10581TIP3   OH253233   6.710   2.941  10.887  0.6384 -0.7588  0.4565
10581TIP3    H153234   6.677   3.019  10.843  1.3353 -0.7946 -0.1317
10581TIP3    H253235   6.753   2.974  10.965  2.4904 -0.3934 -0.6937
10582TIP3   OH253236   3.158   3.132   6.578 -0.4583 -0.0981 -0.5450
10582TIP3    H153237   3.192   3.110   6.665 -0.9233 -0.1881 -0.3837
10582TIP3    H253238   3.227   3.106   6.518 -0.6140 -1.1190 -0.2887
10583TIP3   OH253239   6.806   2.898   5.789  0.6945  0.1552 -0.6515
10583TIP3    H153240   6.825   2.939   5.874  0.2591 -1.8514  0.4478
10583TIP3    H253241   6.836   2.808   5.799  1.3273  0.1040 -2.9113
10584TIP3   OH253242   5.351   1.338   6.398 -0.0622 -0.0665  0.1064
10584TIP3    H153243   5.432   1.336   6.346  0.4573  0.0464  0.8993
10584TIP3    H253244   5.296   1.402   6.353  0.5689  0.3875 -0.0355
10585TIP3   OH253245   2.336   1.337   3.149 -0.2774 -0.3028  0.0300
10585TIP3    H153246   2.408   1.396   3.126 -0.4508 -0.2768 -0.4310
10585TIP3    H253247   2.268   1.354   3.084 -0.9385  0.0929  0.8033
10586TIP3   OH253248   5.909   3.649   2.352  0.7054 -0.0067  0.2845
10586TIP3    H153249   5.953   3.568   2.327  0.4340  0.1165 -0.5751
10586TIP3    H253250   5.966   3.719   2.319  0.6897  0.1601  0.6018
10587TIP3   OH253251   3.785   3.549  14.749 -0.3602  0.1855  0.2523
10587TIP3    H153252   3.859   3.560  14.809 -0.8682 -0.1934  0.9479
10587TIP3    H253253   3.711   3.526  14.805 -0.6924 -0.8307 -0.5869
10588TIP3   OH253254   4.047   6.480  12.973 -0.2249  0.3048 -0.4638
10588TIP3    H153255   4.099   6.418  13.024  1.6724  1.1399 -1.3246
10588TIP3    H253256   4.097   6.493  12.892 -2.3227  0.3093 -1.8122
10589TIP3   OH253257   0.336   5.318   2.876 -0.0676 -0.4513  0.4093
10589TIP3    H153258   0.308   5.234   2.911 -0.5370 -0.4918 -0.0467
10589TIP3    H253259   0.254   5.364   2.856  0.1403  0.9265  2.5187
10590TIP3   OH253260   5.749   3.002   4.172 -0.6117  0.4133 -0.0591
10590TIP3    H153261   5.764   3.080   4.225 -0.4331  0.0369  0.4567
10590TIP3    H253262   5.808   3.012   4.097  0.9397 -0.1917  1.0433
10591TIP3   OH253263   1.254   4.280  15.363 -0.2591  0.9331 -0.2520
10591TIP3    H153264   1.301   4.205  15.399  0.1679  1.6134  0.6581
10591TIP3    H253265   1.323   4.346  15.349 -0.7330  1.4137 -0.3295
10592TIP3   OH253266   0.904   3.972  10.444  0.2015  0.0711 -0.0460
10592TIP3    H153267   0.922   4.006  10.357  0.0172  1.2151  0.3494
10592TIP3    H253268   0.831   3.912  10.432  1.0537 -0.8184 -0.8850
10593TIP3   OH253269   1.517   2.312   4.230 -0.0180  0.2650  1.0048
10593TIP3    H153270   1.507   2.340   4.321  0.6307  0.6850  0.9529
10593TIP3    H253271   1.611   2.301   4.219 -0.0917  0.2825  0.3681
10594TIP3   OH253272   5.992   2.892  15.467 -0.2159  0.3318 -0.1794
10594TIP3    H153273   6.075   2.930  15.492 -0.2693  0.3990 -0.1062
10594TIP3    H253274   6.009   2.798  15.462 -0.1420  0.3436 -0.1426
10595TIP3   OH253275   2.594   6.099  14.414 -0.0861 -0.5348 -0.2892
10595TIP3    H153276   2.565   6.008  14.422  1.6991 -1.0486  0.5827
10595TIP3    H253277   2.526   6.150  14.458 -3.4359 -0.9565 -4.6388
10596TIP3   OH253278   5.139   5.995  13.882  0.5877 -0.0108  0.2529
10596TIP3    H153279   5.234   5.992  13.884  0.5813 -0.9407 -0.4452
10596TIP3    H253280   5.117   6.088  13.886  1.5515  0.2534 -0.5204
10597TIP3   OH253281   3.839   1.162  14.331 -0.0976  0.3965 -0.5954
10597TIP3    H153282   3.851   1.198  14.419 -0.9181  1.2598 -0.8242
10597TIP3    H253283   3.752   1.193  14.304  0.3462  0.5346 -1.9017
10598TIP3   OH253284   1.310   4.022   1.367  0.9520  0.1259 -0.1986
10598TIP3    H153285   1.230   4.010   1.316  1.3437 -1.6337 -0.4398
10598TIP3    H253286   1.281   4.067   1.447 -0.2753 -0.4495 -0.3114
10599TIP3   OH253287   2.014   3.810  16.453 -0.6026 -1.0552 -1.0969
10599TIP3    H153288   1.968   3.876  16.401  1.1348  0.4527 -0.7333
10599TIP3    H253289   2.076   3.859  16.506  0.8065 -2.9888 -0.9002
10600TIP3   OH253290   2.952   1.135  12.505 -0.6773 -0.3145  0.1132
10600TIP3    H153291   2.871   1.108  12.464 -0.3613 -3.7229  1.5324
10600TIP3    H253292   3.003   1.054  12.513  3.0209  1.7769 -1.0558
10601TIP3   OH253293   1.301   2.787   1.165  0.4252 -0.4131  0.1098
10601TIP3    H153294   1.249   2.709   1.184  0.2350 -0.2733  0.1736
10601TIP3    H253295   1.266   2.853   1.225 -1.2389  0.4878 -1.8135
10602TIP3   OH253296   4.908   2.267  14.140  0.0029  0.5641 -0.4834
10602TIP3    H153297   4.820   2.234  14.123  0.4410 -0.4505 -0.8714
10602TIP3    H253298   4.899   2.362  14.145 -1.1161  0.4561 -0.4576
10603TIP3   OH253299   3.910   0.110   1.439  0.1535  0.5467 -0.1400
10603TIP3    H153300   3.893   0.188   1.493  1.6006  0.9817 -0.2969
10603TIP3    H253301   3.863   0.127   1.358 -0.4732  0.7386  0.2526
10604TIP3   OH253302   6.024   3.666   0.074  0.0886  0.1626 -0.0579
10604TIP3    H153303   5.932   3.662   0.045  0.5231  1.1341 -1.6969
10604TIP3    H253304   6.070   3.605   0.016  0.4085 -0.6408  1.0443
10605TIP3   OH253305   2.967   3.839   6.343  0.2856  0.8933 -0.1907
10605TIP3    H153306   2.984   3.843   6.437  0.8734  1.4949 -0.3118
10605TIP3    H253307   2.991   3.927   6.312  1.3175  0.2932 -1.0980
10606TIP3   OH253308   5.322   1.097   2.218  0.8548 -0.0905 -0.1437
10606TIP3    H153309   5.249   1.150   2.252  0.4654 -1.1309  0.6687
10606TIP3    H253310   5.335   1.129   2.129  0.0254  0.7588  0.0314
10607TIP3   OH253311   4.113   5.713  13.987  0.0461  0.0189  0.3740
10607TIP3    H153312   4.019   5.705  14.003  0.1028  0.6988  1.0788
10607TIP3    H253313   4.151   5.732  14.073  0.8336 -0.2788  0.1042
10608TIP3   OH253314   0.429   0.828   2.012 -0.2849 -0.5395  0.0104
10608TIP3    H153315   0.507   0.800   1.964 -0.5956  0.4653 -1.0892
10608TIP3    H253316   0.367   0.755   2.002 -0.0530 -0.6811 -0.4222
10609TIP3   OH253317   4.489   6.406  13.153 -0.4298 -0.3672 -0.4921
10609TIP3    H153318   4.509   6.491  13.115  1.6733 -0.6647 -0.0709
10609TIP3    H253319   4.564   6.351  13.132  0.0401 -1.0147  2.6071
10610TIP3   OH253320   2.346   1.571  10.691 -0.3547  0.0743  0.1435
10610TIP3    H153321   2.419   1.510  10.679 -1.1876 -0.5696 -1.7394
10610TIP3    H253322   2.275   1.518  10.726 -0.4587  0.3596  0.3658
10611TIP3   OH253323   6.026   6.166  14.872 -0.0546  0.4512  0.0813
10611TIP3    H153324   6.101   6.167  14.812 -2.4943  1.2807 -3.1009
10611TIP3    H253325   6.019   6.257  14.903 -0.7004  0.7435 -0.9011
10612TIP3   OH253326   4.073   5.843   0.013  0.3361 -0.1706 -0.3668
10612TIP3    H153327   4.010   5.851   0.084  0.8037  0.4640 -0.0127
10612TIP3    H253328   4.091   5.933  -0.014  2.4205 -0.2124  0.7418
10613TIP3   OH253329   3.864   3.285   3.981  0.1673 -0.2569  0.1209
10613TIP3    H153330   3.853   3.261   4.073  1.8312 -1.0932  0.1243
10613TIP3    H253331   3.945   3.241   3.954  0.0814  0.5542 -1.5482
10614TIP3   OH253332   3.204   1.473  15.481  0.1324  0.7863 -0.5432
10614TIP3    H153333   3.205   1.558  15.436 -2.5614  1.2546  0.1987
10614TIP3    H253334   3.260   1.417  15.428  2.3422  3.1329 -0.8131
10615TIP3   OH253335   2.305   3.697  16.339 -0.0831 -0.3317 -0.4260
10615TIP3    H153336   2.351   3.718  16.421 -0.2142  2.0131 -0.9059
10615TIP3    H253337   2.343   3.757  16.275 -2.1438 -0.0163 -1.3740
10616TIP3   OH253338   4.962   6.612  12.452 -0.0419  0.1009 -0.5326
10616TIP3    H153339   4.901   6.559  12.402 -0.6975  0.1482  0.2096
10616TIP3    H253340   4.907   6.672  12.503  0.5473 -0.9180  1.3416
10617TIP3   OH253341   0.638   5.502   5.092 -0.2303  0.6970 -0.5036
10617TIP3    H153342   0.708   5.538   5.039 -0.4261  1.2049 -0.4245
10617TIP3    H253343   0.570   5.477   5.029  0.1455 -0.0914 -0.6054
10618TIP3   OH253344   3.326   4.541  12.504 -0.2632 -0.2824  0.4389
10618TIP3    H153345   3.301   4.619  12.554 -2.9487 -0.6317 -0.2755
10618TIP3    H253346   3.297   4.559  12.415 -3.4705 -3.1712  0.7907
10619TIP3   OH253347   4.455   3.970  17.189 -0.6512 -0.4694  0.8807
10619TIP3    H153348   4.498   4.050  17.160 -1.4426 -0.1351  0.5944
10619TIP3    H253349   4.526   3.910  17.211 -0.0538 -0.0244  0.1664
10620TIP3   OH253350   3.493   2.764   1.917  0.0329 -0.1475  0.7525
10620TIP3    H153351   3.427   2.771   1.848  1.6701 -1.0456 -0.9547
10620TIP3    H253352   3.496   2.851   1.956 -1.3175  0.2168  0.0706
10621TIP3   OH253353   3.859   6.101  14.962 -0.5790 -0.1053  0.2622
10621TIP3    H153354   3.834   6.024  15.013 -1.3361 -0.0419 -0.0047
10621TIP3    H253355   3.867   6.171  15.027 -1.8715  0.0562  0.2771
10622TIP3   OH253356   5.690   6.183   3.377  0.5585  0.4597  0.0650
10622TIP3    H153357   5.610   6.135   3.356 -0.2987  1.7663  0.2739
10622TIP3    H253358   5.702   6.243   3.303  0.1548  1.7470  1.0261
10623TIP3   OH253359   6.078   0.971  15.539 -0.9156  0.4819  0.1313
10623TIP3    H153360   6.058   0.911  15.611 -0.9919  0.6209  0.2254
10623TIP3    H253361   6.000   0.971  15.484  0.0416 -1.5286 -1.2886
10624TIP3   OH253362   5.154   0.023  16.228  0.0339  0.8791  0.5651
10624TIP3    H153363   5.112   0.066  16.153  0.7269 -0.7080 -0.7732
10624TIP3    H253364   5.215   0.087  16.262 -2.6855  2.8694  1.8917
10625TIP3   OH253365   6.680   0.011  15.702  0.0714  0.2051 -0.1861
10625TIP3    H153366   6.711   0.066  15.631 -1.6180  0.6836 -0.5691
10625TIP3    H253367   6.585   0.011  15.693  0.0378 -3.0704 -0.4074
10626TIP3   OH253368   6.287   1.281   3.639 -0.3441 -0.2824 -0.5141
10626TIP3    H153369   6.225   1.275   3.567 -1.1158 -0.6458  0.1829
10626TIP3    H253370   6.373   1.283   3.597 -0.7998 -0.4213 -1.4415
10627TIP3   OH253371   6.534   3.327  15.231  0.6291 -0.0625  0.1122
10627TIP3    H153372   6.603   3.391  15.213  0.4900 -0.0384 -0.3479
10627TIP3    H253373   6.473   3.372  15.289  0.9825 -0.0737  0.4952
10628TIP3   OH253374   4.327   2.221   2.296 -0.2370 -0.0662  0.1824
10628TIP3    H153375   4.234   2.199   2.282 -0.3201  0.5544 -0.2598
10628TIP3    H253376   4.335   2.231   2.391 -0.3314 -1.3904  0.3409
10629TIP3   OH253377   5.103   1.219  16.325  0.0533 -0.6069  0.3636
10629TIP3    H153378   5.073   1.307  16.302  1.3670 -0.3741 -0.5564
10629TIP3    H253379   5.026   1.175  16.360 -0.7595  0.7213  0.2682
10630TIP3   OH253380   4.625   0.970   1.778 -0.6558 -0.4146  0.3061
10630TIP3    H153381   4.668   0.885   1.787 -2.5886 -1.2693  1.7342
10630TIP3    H253382   4.592   0.971   1.688 -1.3642 -1.5398  0.5469
10631TIP3   OH253383   6.349   5.451  16.167 -0.1623 -0.9967 -0.7047
10631TIP3    H153384   6.352   5.489  16.255 -0.1840 -1.2223 -0.6086
10631TIP3    H253385   6.404   5.509  16.115 -2.5731  0.9226 -1.2135
10632TIP3   OH253386   4.724   1.517   1.033 -0.5278 -0.2848 -0.3145
10632TIP3    H153387   4.680   1.587   0.984 -1.0041  1.1444  2.0982
10632TIP3    H253388   4.814   1.519   1.001 -0.5962  1.2721 -0.4452
10633TIP3   OH253389   3.633   2.554   2.095  0.4490  0.6221  0.1799
10633TIP3    H153390   3.710   2.563   2.040  0.2198  1.2633 -0.0445
10633TIP3    H253391   3.564   2.602   2.048 -0.8246 -2.2416 -1.0116
10634TIP3   OH253392   5.476   2.727   3.814  0.2083  0.0279  0.4149
10634TIP3    H153393   5.411   2.730   3.884  1.3489 -1.2864  1.5651
10634TIP3    H253394   5.439   2.667   3.750  0.1931 -0.5537  0.9672
10635TIP3   OH253395   1.347   6.559  12.724 -0.3373  0.1755  0.2899
10635TIP3    H153396   1.305   6.544  12.808 -0.3649 -0.5189  0.1524
10635TIP3    H253397   1.284   6.528  12.659  0.1906 -0.4274  0.0632
10636TIP3   OH253398   5.361   3.675  14.378  0.2369  0.3436 -0.6976
10636TIP3    H153399   5.268   3.692  14.359 -0.1278  0.3913  1.0256
10636TIP3    H253400   5.371   3.700  14.470  1.4679 -1.6420 -0.2622
10637TIP3   OH253401   2.866   2.064   4.441 -0.0119  0.1553  0.1430
10637TIP3    H153402   2.826   2.097   4.521 -2.2078 -0.0029 -0.8356
10637TIP3    H253403   2.895   1.976   4.463 -1.3982 -0.2180  0.5324
10638TIP3   OH253404   0.919   6.423   1.136  0.1768  0.2801 -0.1210
10638TIP3    H153405   0.928   6.492   1.071  1.4601 -0.3326 -0.6122
10638TIP3    H253406   0.949   6.344   1.091  0.7334 -0.2157  1.1012
10639TIP3   OH253407   6.336   2.572   1.830  0.4476  0.5864 -0.0607
10639TIP3    H153408   6.336   2.477   1.832  0.3332  0.5841 -0.1627
10639TIP3    H253409   6.249   2.596   1.796  1.7017  0.6384 -3.4652
10640TIP3   OH253410   6.710   0.823   0.887  0.2056 -0.5501  0.1017
10640TIP3    H153411   6.655   0.745   0.883 -2.3769  1.0198  3.0411
10640TIP3    H253412   6.793   0.791   0.924 -0.8125 -1.9531  1.2685
10641TIP3   OH253413   6.413   2.359  16.401  0.4455  0.0961 -0.3561
10641TIP3    H153414   6.322   2.349  16.373  0.5811 -2.8473  0.0404
10641TIP3    H253415   6.462   2.371  16.319 -0.1474  0.3161 -0.6816
10642TIP3   OH253416   2.301   5.635  14.029  0.9853 -0.3183 -0.1477
10642TIP3    H153417   2.278   5.664  13.941 -1.5132 -2.4705 -0.2793
10642TIP3    H253418   2.356   5.558  14.015  1.3162 -0.1373  0.1627
10643TIP3   OH253419   1.949   5.207  13.343  0.3214 -0.8636  0.4115
10643TIP3    H153420   1.869   5.259  13.339  1.0119  0.3076  1.4568
10643TIP3    H253421   1.922   5.119  13.316 -1.6190 -0.8076  2.0223
10644TIP3   OH253422   0.168   3.290  11.366 -0.5389 -0.2589  0.2786
10644TIP3    H153423   0.094   3.350  11.361 -0.6692 -0.5557 -1.8305
10644TIP3    H253424   0.222   3.324  11.438 -1.4763  1.3442  0.2495
10645TIP3   OH253425   1.952   4.846   2.969 -0.7132 -0.3333 -0.4239
10645TIP3    H153426   2.003   4.788   2.912 -2.0195 -1.6574 -0.2851
10645TIP3    H253427   1.901   4.900   2.908  1.7090  1.8313 -0.5886
10646TIP3   OH253428   4.239   4.688  15.502  0.5454 -0.8103 -0.4845
10646TIP3    H153429   4.303   4.624  15.535 -0.6586 -1.1788  1.1781
10646TIP3    H253430   4.289   4.769  15.493  1.1230 -0.9225  1.4304
10647TIP3   OH253431   4.951   4.588  11.383 -0.2092  0.4939 -0.3478
10647TIP3    H153432   4.985   4.632  11.305 -2.1182  3.9758  0.6640
10647TIP3    H253433   5.026   4.583  11.442  0.5795  0.3493 -1.3413
10648TIP3   OH253434   0.578   2.199  13.919  0.4250 -0.0960  0.0155
10648TIP3    H153435   0.484   2.197  13.904  0.1673  0.6386  1.3863
10648TIP3    H253436   0.608   2.278  13.875 -0.1249  1.3733  2.1830
10649TIP3   OH253437   4.166   0.420  15.404 -0.1130 -0.1567 -0.6386
10649TIP3    H153438   4.243   0.429  15.460  0.1330  2.0818 -1.2831
10649TIP3    H253439   4.102   0.374  15.458  1.4369 -1.4403  0.1304
10650TIP3   OH253440   6.398   1.021   5.295 -0.0119  0.7749 -0.0576
10650TIP3    H153441   6.466   1.084   5.319  0.2132  0.6479 -0.3568
10650TIP3    H253442   6.337   1.071   5.241 -0.8062  1.1969  1.2258
10651TIP3   OH253443   2.161   5.912  11.176  0.2216 -0.0332 -0.0118
10651TIP3    H153444   2.123   5.919  11.089  1.0541  1.6845 -0.2661
10651TIP3    H253445   2.139   5.995  11.219  0.0416 -0.7549  1.3213
10652TIP3   OH253446   3.564   4.025  12.549  0.1155 -0.8285  0.5400
10652TIP3    H153447   3.478   4.031  12.590  0.2669 -2.8115  1.1897
10652TIP3    H253448   3.625   4.055  12.617  0.0418 -0.5091  0.4660
10653TIP3   OH253449   5.900   3.555   1.769  0.4023  0.5352 -0.3494
10653TIP3    H153450   5.855   3.517   1.844  2.3310  0.9151  1.0333
10653TIP3    H253451   5.832   3.565   1.702 -1.2785 -0.0500  1.2505
10654TIP3   OH253452   3.988   5.114   6.494 -0.4044 -0.2420 -0.4210
10654TIP3    H153453   3.985   5.194   6.441 -0.5585 -0.2156 -0.3708
10654TIP3    H253454   3.976   5.144   6.584 -1.5098 -0.4299 -0.4974
10655TIP3   OH253455   3.031   0.634  11.916  0.9922 -0.0032 -0.2858
10655TIP3    H153456   3.030   0.727  11.894  1.6946 -0.0527 -0.5267
10655TIP3    H253457   3.043   0.590  11.831  0.3285 -0.3252 -0.2166
10656TIP3   OH253458   5.107   2.707  12.283  0.3229  0.1162  1.0323
10656TIP3    H153459   5.075   2.722  12.194  1.5252  3.3362  1.1005
10656TIP3    H253460   5.044   2.753  12.339 -0.1085 -1.4175  1.8284
10657TIP3   OH253461   4.439   3.536   3.322  0.4475  0.5631 -0.1156
10657TIP3    H153462   4.362   3.569   3.276 -0.0734 -0.4385  0.0131
10657TIP3    H253463   4.417   3.445   3.343  1.6763  0.2641 -0.0858
10658TIP3   OH253464   1.793   2.231   1.668  0.4462 -0.1424  0.4259
10658TIP3    H153465   1.758   2.271   1.748  1.3946  1.6564 -0.0393
10658TIP3    H253466   1.723   2.243   1.603 -0.0933 -1.0885  0.8218
10659TIP3   OH253467   0.062   2.999   1.598  0.3163 -0.3169 -0.1966
10659TIP3    H153468   0.006   2.961   1.530 -1.6138 -0.6213  1.4951
10659TIP3    H253469   0.104   2.925   1.640  2.4035 -0.0625 -1.7490
10660TIP3   OH253470   5.807   3.283   0.820  0.2747  0.2005 -0.5817
10660TIP3    H153471   5.876   3.350   0.825  0.0560  0.4231 -0.5517
10660TIP3    H253472   5.738   3.324   0.769  0.5144 -0.3373 -1.3366
10661TIP3   OH253473   5.773   6.577   4.283  0.2488 -0.0284  0.0068
10661TIP3    H153474   5.767   6.655   4.338  2.4301  0.1266  0.0780
10661TIP3    H253475   5.688   6.571   4.240 -0.8294  0.9097  1.9696
10662TIP3   OH253476   5.174   3.125   4.299 -0.0175  0.1760  0.5712
10662TIP3    H153477   5.184   3.114   4.205 -1.7366  2.4266  0.0920
10662TIP3    H253478   5.249   3.079   4.337  0.3633 -1.2442 -1.8550
10663TIP3   OH253479   6.117   2.295   4.015 -0.1126 -0.1729  0.4000
10663TIP3    H153480   6.124   2.343   3.933  1.1022  0.4219  0.8438
10663TIP3    H253481   6.120   2.203   3.990  0.4377  0.0109 -0.2043
10664TIP3   OH253482   2.111   1.545   2.539 -0.0026  0.2329  0.3944
10664TIP3    H153483   2.196   1.570   2.503 -0.6268 -0.0493 -1.3096
10664TIP3    H253484   2.122   1.453   2.563  0.7783  0.7434  2.0759
10665TIP3   OH253485   1.986   3.191   4.242 -0.1895 -0.8319 -0.6061
10665TIP3    H153486   1.937   3.235   4.173  1.7507 -0.4082 -1.7384
10665TIP3    H253487   1.947   3.224   4.323 -1.4280 -0.1170 -1.4787
10666TIP3   OH253488   5.578   6.266  16.720 -0.1232  0.4422  0.5444
10666TIP3    H153489   5.564   6.179  16.683 -1.1752  0.9655 -0.3020
10666TIP3    H253490   5.599   6.322  16.645  0.0055  1.0276  1.0095
10667TIP3   OH253491   0.814   1.973   2.618  0.0202 -0.8086  0.6176
10667TIP3    H153492   0.824   1.923   2.537  1.0835  1.3050 -0.6180
10667TIP3    H253493   0.878   1.935   2.678  0.4665 -1.2621 -0.1427
10668TIP3   OH253494   5.657   1.529   2.078 -0.3516  0.6648 -0.2822
10668TIP3    H153495   5.658   1.604   2.138  0.0542 -0.0505  0.6257
10668TIP3    H253496   5.744   1.528   2.038  0.0782 -0.0367  0.6358
10669TIP3   OH253497   5.558   6.733   4.019 -0.1560  0.3953 -0.4843
10669TIP3    H153498   5.499   6.674   4.067  0.6591 -0.9964 -1.1405
10669TIP3    H253499   5.517   6.819   4.025 -0.0608  0.2980  2.7747
10670TIP3   OH253500   5.483   5.960   1.366 -0.0135 -0.5341 -0.3455
10670TIP3    H153501   5.440   6.028   1.313  1.3151  1.9160  1.6328
10670TIP3    H253502   5.576   5.971   1.348  0.2420 -1.6219  0.2691
10671TIP3   OH253503   1.753   2.798  15.257  0.3946  0.4201 -0.6190
10671TIP3    H153504   1.845   2.789  15.282  0.7715  3.4886 -0.6523
10671TIP3    H253505   1.717   2.860  15.320 -1.6017 -0.5655 -0.7584
10672TIP3   OH253506   6.055   0.606  15.675 -0.8961 -0.4170  0.4287
10672TIP3    H153507   6.068   0.587  15.582  2.6823  0.5082  0.6445
10672TIP3    H253508   6.071   0.522  15.718 -0.7357 -0.4467  0.3148
10673TIP3   OH253509   1.079   6.096   3.798 -0.7225 -0.1816 -0.5511
10673TIP3    H153510   1.108   6.187   3.804  1.2756 -0.7847 -0.5113
10673TIP3    H253511   1.067   6.068   3.888 -1.8935  0.1998 -0.5821
10674TIP3   OH253512   3.548   4.738   5.728  0.5015 -0.0292  0.6521
10674TIP3    H153513   3.588   4.821   5.754 -1.0780  0.4513  1.6319
10674TIP3    H253514   3.570   4.729   5.635  2.0873  0.6576  0.9512
10675TIP3   OH253515   5.844   4.442   0.855 -0.1294 -0.0634  0.0239
10675TIP3    H153516   5.917   4.485   0.811  0.0910  0.3253  0.7462
10675TIP3    H253517   5.880   4.360   0.887 -0.5722 -0.8272 -1.4216
10676TIP3   OH253518   6.672   3.887   1.143 -0.3513  0.0531  0.2470
10676TIP3    H153519   6.684   3.861   1.052 -0.6363 -0.4046  0.3431
10676TIP3    H253520   6.694   3.809   1.193 -1.0413  0.0422  0.5387
10677TIP3   OH253521   0.825   2.077   6.128  0.8365 -0.1451 -0.3863
10677TIP3    H153522   0.858   2.025   6.201  1.1201 -0.0117 -0.4188
10677TIP3    H253523   0.851   2.029   6.050 -0.7340 -1.0539 -0.3834
10678TIP3   OH253524   6.443   0.728   5.932  0.3689  0.1917 -0.1490
10678TIP3    H153525   6.447   0.822   5.945  2.6126  0.4916 -2.5584
10678TIP3    H253526   6.533   0.703   5.909 -0.2332 -2.5023  0.2176
10679TIP3   OH253527   3.018   1.930  12.305 -0.3065 -0.2246  0.2806
10679TIP3    H153528   2.966   1.976  12.239 -0.0246  0.2049  0.3533
10679TIP3    H253529   3.069   1.999  12.347  1.9127 -0.8883 -1.2259
10680TIP3   OH253530   5.149   2.943   0.791 -0.0050  0.1801 -0.0521
10680TIP3    H153531   5.190   2.860   0.767 -1.7488 -0.6462 -0.2163
10680TIP3    H253532   5.216   2.988   0.842  1.6251 -0.5352 -1.4973
10681TIP3   OH253533   0.284   2.926  16.936 -0.1833 -0.4356  0.3325
10681TIP3    H153534   0.347   2.853  16.938  0.1760 -0.1970 -1.7856
10681TIP3    H253535   0.339   3.005  16.942 -0.5397 -0.2897  2.0542
10682TIP3   OH253536   1.545   1.693  16.555 -0.2608  0.6756  0.6704
10682TIP3    H153537   1.573   1.673  16.466  1.0835 -4.3150  2.0379
10682TIP3    H253538   1.627   1.696  16.606 -1.1782  0.8989  2.1669
10683TIP3   OH253539   3.357   1.134   1.261 -0.0210 -0.4548  0.1919
10683TIP3    H153540   3.377   1.207   1.202  1.7090 -1.4742 -0.5131
10683TIP3    H253541   3.438   1.119   1.309 -0.8152 -0.9558  1.3994
10684TIP3   OH253542   2.098   6.297   2.855 -0.6311  0.2262 -0.0936
10684TIP3    H153543   2.167   6.245   2.896 -0.7440  0.2273  0.0967
10684TIP3    H253544   2.144   6.348   2.788 -0.6681 -0.7800 -0.8962
10685TIP3   OH253545   5.013   3.406   0.491  0.6866 -0.0937 -0.3083
10685TIP3    H153546   5.065   3.327   0.481  1.1767  0.0350  1.0874
10685TIP3    H253547   4.941   3.381   0.549  0.0585  0.1399 -0.9640
10686TIP3   OH253548   1.227   1.915  12.087 -0.1483  0.3959 -0.1819
10686TIP3    H153549   1.264   1.834  12.123  0.1396  1.2761  1.5648
10686TIP3    H253550   1.301   1.959  12.046 -0.4882 -0.6409 -1.9344
10687TIP3   OH253551   5.232   0.964  16.774  0.1146 -0.2373  0.0829
10687TIP3    H153552   5.152   0.919  16.802 -0.7982  0.5613 -1.2311
10687TIP3    H253553   5.231   1.047  16.821  0.4497 -0.4504  0.4719
10688TIP3   OH253554   5.880   1.812   1.305  0.3706 -0.6178 -0.4300
10688TIP3    H153555   5.893   1.732   1.357  0.7653 -0.3002 -0.0292
10688TIP3    H253556   5.952   1.813   1.243  1.7163  0.5983  1.0906
10689TIP3   OH253557   3.460   5.735   2.744  0.0450  0.1275  0.3104
10689TIP3    H153558   3.542   5.765   2.702  0.6619 -1.9156  0.0117
10689TIP3    H253559   3.395   5.801   2.718  1.0902  0.5435 -1.3725
10690TIP3   OH253560   0.867   6.385   2.427 -0.3201 -0.5437  0.8629
10690TIP3    H153561   0.839   6.298   2.400  0.1448 -0.7831  1.1437
10690TIP3    H253562   0.931   6.411   2.361 -1.7185  0.3087 -0.1952
10691TIP3   OH253563   1.253   5.150  14.119 -0.1908  0.2261 -0.5617
10691TIP3    H153564   1.236   5.194  14.203  0.3918 -0.4317 -0.0893
10691TIP3    H253565   1.184   5.084  14.113  0.1768 -0.1891 -0.2636
10692TIP3   OH253566   0.558   2.591   3.692  0.0735 -0.1110 -0.3328
10692TIP3    H153567   0.473   2.628   3.715  0.2073 -1.8879  3.3566
10692TIP3    H253568   0.542   2.496   3.687  1.4338 -0.2941 -1.6163
10693TIP3   OH253569   6.113   3.119  13.845  0.5160 -0.1594  0.1764
10693TIP3    H153570   6.049   3.183  13.814  0.6279 -1.2238 -2.3433
10693TIP3    H253571   6.196   3.168  13.850  0.3985  0.1312 -0.7541
10694TIP3   OH253572   2.451   5.348  15.092  0.0380  0.0862 -0.3029
10694TIP3    H153573   2.490   5.435  15.091  2.5105 -0.9461  1.7023
10694TIP3    H253574   2.443   5.324  15.000  0.5041  1.9071 -0.8344
10695TIP3   OH253575   2.748   2.388  16.338 -0.5452  0.0745  0.4269
10695TIP3    H153576   2.680   2.356  16.279 -0.2685  2.2002 -1.0796
10695TIP3    H253577   2.727   2.347  16.422 -2.5789 -0.7725 -0.4529
10696TIP3   OH253578   3.923   2.416   5.953 -0.1385 -0.3247 -0.1224
10696TIP3    H153579   3.968   2.371   6.025 -1.1808  1.5671  1.7613
10696TIP3    H253580   3.859   2.472   5.996 -1.9526 -0.4035 -2.6183
10697TIP3   OH253581   2.663   6.426   5.600  0.2767  0.0988 -0.1682
10697TIP3    H153582   2.661   6.358   5.667  0.7343 -0.3882 -0.6455
10697TIP3    H253583   2.574   6.426   5.564 -0.5662  1.7359  1.7790
10698TIP3   OH253584   1.962   3.224   5.339  0.1717 -0.7876 -0.3257
10698TIP3    H153585   2.028   3.170   5.295 -0.5331 -0.3077 -2.0040
10698TIP3    H253586   1.954   3.186   5.426  1.8171 -1.5725 -0.4951
10699TIP3   OH253587   3.775   3.874   1.738 -0.2940 -0.2421  0.4171
10699TIP3    H153588   3.694   3.857   1.690 -0.7207  1.0054  0.6757
10699TIP3    H253589   3.815   3.948   1.692 -0.5778  0.8036  1.8262
10700TIP3   OH253590   3.723   3.520   4.473 -0.6243 -0.4716 -0.4506
10700TIP3    H153591   3.718   3.527   4.568 -0.0114 -3.7146 -0.1027
10700TIP3    H253592   3.731   3.610   4.442 -0.6144  0.6164  2.5766
10701TIP3   OH253593   1.875   1.302   3.001 -0.1701  0.3896  0.0675
10701TIP3    H153594   1.820   1.295   3.079 -0.1694  1.9599  0.2255
10701TIP3    H253595   1.847   1.229   2.946 -0.1758 -0.7394  1.5139
10702TIP3   OH253596   5.839   5.071   0.320 -0.7433  0.4869  0.2499
10702TIP3    H153597   5.769   5.025   0.275  0.4351 -1.7780  0.6304
10702TIP3    H253598   5.833   5.040   0.411 -0.7476  2.1047  0.8094
10703TIP3   OH253599   2.810   3.455  15.289 -0.2169 -0.6290 -0.3531
10703TIP3    H153600   2.760   3.472  15.369  0.7653 -3.2457  0.8908
10703TIP3    H253601   2.899   3.482  15.311 -0.1602 -0.3143 -0.9653
10704TIP3   OH253602   1.449   4.222  12.212 -0.1222 -0.1492  0.4840
10704TIP3    H153603   1.528   4.228  12.265 -0.0118  2.1356  0.1302
10704TIP3    H253604   1.403   4.305  12.227 -1.4579 -0.6129 -0.8399
10705TIP3   OH253605   0.398   3.117  13.072 -0.5901  0.3383  0.0013
10705TIP3    H153606   0.483   3.079  13.049  0.1488  2.2968 -0.6445
10705TIP3    H253607   0.341   3.093  12.999 -0.1088  0.5290 -0.4434
10706TIP3   OH253608   1.940   2.983  10.855  0.1261 -0.0976 -0.0178
10706TIP3    H153609   1.919   2.926  10.930  0.9307 -0.5661 -0.1371
10706TIP3    H253610   2.036   2.989  10.857  0.0347  1.5361  0.1936
10707TIP3   OH253611   0.975   4.296  11.989  0.0531  0.4921  0.0618
10707TIP3    H153612   0.938   4.297  11.901  0.3779  2.1673 -0.0640
10707TIP3    H253613   0.905   4.329  12.045  0.6270  1.6673  0.1032
10708TIP3   OH253614   2.667   0.336  17.086 -0.5917 -0.3010  0.0069
10708TIP3    H153615   2.752   0.344  17.044  0.3659 -0.9734  1.7650
10708TIP3    H253616   2.675   0.385  17.167 -2.6651  1.6495 -0.8931
10709TIP3   OH253617   1.999   2.748   0.245 -0.0813 -0.0438 -0.0791
10709TIP3    H153618   2.052   2.821   0.214  0.6605 -0.8220 -0.6876
10709TIP3    H253619   2.061   2.691   0.292 -0.4664 -0.7022 -0.3580
10710TIP3   OH253620   0.873   0.819  16.436 -0.2261  0.1077  0.4379
10710TIP3    H153621   0.834   0.809  16.349 -0.5604 -0.4118  0.6503
10710TIP3    H253622   0.872   0.914  16.451 -1.4089  0.0996  0.4495
10711TIP3   OH253623   5.260   3.886   2.919  0.4511 -0.0667 -0.0796
10711TIP3    H153624   5.316   3.945   2.869 -0.4629  0.4874 -0.4590
10711TIP3    H253625   5.280   3.906   3.011  1.5895 -0.5649 -0.2168
10712TIP3   OH253626   2.678   3.304  16.890 -0.1318 -0.0190 -0.3500
10712TIP3    H153627   2.749   3.269  16.835  0.5454 -0.3537  0.7153
10712TIP3    H253628   2.643   3.227  16.935  0.1764  0.4132  0.6478
10713TIP3   OH253629   2.967   4.800   2.354 -0.0437 -0.3252  0.2235
10713TIP3    H153630   2.873   4.781   2.360 -0.1989  0.6445  1.0088
10713TIP3    H253631   2.990   4.776   2.264 -1.1092 -0.3179 -0.0638
10714TIP3   OH253632   4.326   5.191  10.886  0.0749 -0.7572  0.6711
10714TIP3    H153633   4.343   5.115  10.831 -1.0122 -0.5027 -0.0582
10714TIP3    H253634   4.409   5.210  10.929  0.4616 -2.0831  0.5210
10715TIP3   OH253635   2.395   3.282  11.795  0.2725  0.6460 -0.4139
10715TIP3    H153636   2.449   3.353  11.829 -0.2889  1.6374 -1.5224
10715TIP3    H253637   2.458   3.221  11.755  0.8073  0.1774  1.1175
10716TIP3   OH253638   2.627   6.308  10.916  0.3021 -0.0019  0.5378
10716TIP3    H153639   2.655   6.387  10.870 -0.3890 -0.5288 -0.7878
10716TIP3    H253640   2.641   6.237  10.854 -1.7386 -0.5808  0.7055
10717TIP3   OH253641   1.580   2.014  16.074  0.5198 -0.3137  0.0550
10717TIP3    H153642   1.500   1.965  16.052  0.4063 -0.0421 -0.1435
10717TIP3    H253643   1.578   2.020  16.170 -0.9015  1.6533 -0.0472
10718TIP3   OH253644   0.010   1.697   2.954 -0.5639  0.2074  0.3431
10718TIP3    H153645   0.066   1.765   2.990  0.2641 -0.4646  0.3396
10718TIP3    H253646  -0.051   1.675   3.024 -2.3203  2.5444 -0.4084
10719TIP3   OH253647   0.381   4.877  13.179 -0.1357  0.1148  0.2164
10719TIP3    H153648   0.299   4.864  13.130 -0.7505  0.7723  1.0755
10719TIP3    H253649   0.385   4.802  13.239 -0.1588  0.1507  0.2616
10720TIP3   OH253650   4.319   6.006   6.547 -0.0153 -0.3384  0.1365
10720TIP3    H153651   4.366   6.077   6.590  1.8255 -1.1035 -0.5026
10720TIP3    H253652   4.292   5.948   6.618 -0.4017  0.3701  0.5612
10721TIP3   OH253653   3.048   2.677   3.598 -0.1063 -0.0892  0.1074
10721TIP3    H153654   3.038   2.720   3.513 -1.0827 -2.0754 -0.8030
10721TIP3    H253655   2.962   2.639   3.617  0.5550 -1.0918  1.1888
10722TIP3   OH253656   2.878   1.059  15.771 -0.4597  0.6694 -0.3929
10722TIP3    H153657   2.943   1.025  15.833  1.4086  3.0917 -0.9506
10722TIP3    H253658   2.822   1.116  15.824 -2.0905 -1.2836  0.0507
10723TIP3   OH253659   4.578   3.675   5.198 -0.8014 -0.3399 -1.1627
10723TIP3    H153660   4.593   3.623   5.277 -0.4083  1.0857 -0.2595
10723TIP3    H253661   4.483   3.677   5.188 -0.8829 -0.1618 -0.4364
10724TIP3   OH253662   4.158   4.456  16.602  1.1135  0.2085 -0.0644
10724TIP3    H153663   4.192   4.543  16.621 -0.8215  0.4932  2.3612
10724TIP3    H253664   4.157   4.412  16.687  0.4918 -1.6227 -0.9879
10725TIP3   OH253665   3.475   3.772  13.926  0.5454 -0.0732  0.6183
10725TIP3    H153666   3.553   3.815  13.890  0.2012 -0.4664 -0.5882
10725TIP3    H253667   3.452   3.827  14.002  1.7567  0.2693  0.7577
10726TIP3   OH253668   5.377   0.021   0.146  0.4215 -0.4616  0.3814
10726TIP3    H153669   5.356  -0.056   0.093  1.1230 -1.0654  0.9573
10726TIP3    H253670   5.470   0.010   0.167  0.6277  0.7563  0.1350
10727TIP3   OH253671   6.700   4.299   0.837  0.1986 -0.4942  0.4821
10727TIP3    H153672   6.779   4.351   0.822 -0.1044  0.2852  1.4909
10727TIP3    H253673   6.656   4.344   0.910 -1.8978 -0.0969 -0.9986
10728TIP3   OH253674   3.432   4.756   3.549 -0.4917 -0.4668  0.2545
10728TIP3    H153675   3.393   4.821   3.608  2.4507  1.2692  0.3595
10728TIP3    H253676   3.373   4.753   3.474 -0.1569  3.1380 -0.2270
10729TIP3   OH253677   0.262   0.913  12.214  0.0583 -0.5039  0.7242
10729TIP3    H153678   0.327   0.983  12.221 -0.0533 -0.3697  0.4168
10729TIP3    H253679   0.314   0.834  12.195  0.2227 -0.5864  1.5147
10730TIP3   OH253680   2.471   4.176   1.566  0.2684  0.1914  0.1965
10730TIP3    H153681   2.377   4.159   1.559  0.1902 -0.9230  3.2319
10730TIP3    H253682   2.477   4.270   1.583 -0.2587  0.3225 -0.3290
10731TIP3   OH253683   6.530   5.506  14.282 -0.4771  0.1203  0.3268
10731TIP3    H153684   6.564   5.449  14.212  0.4090  2.0245 -0.8406
10731TIP3    H253685   6.445   5.536  14.249  0.0278  1.1737 -0.0197
10732TIP3   OH253686   4.432   6.259  11.720  0.1095  0.0369  0.0782
10732TIP3    H153687   4.491   6.334  11.722 -0.1403  0.2888 -1.5883
10732TIP3    H253688   4.467   6.200  11.787  0.3254  1.6000  1.3798
10733TIP3   OH253689   3.677   4.616  16.635  0.7164 -0.1001  0.2468
10733TIP3    H153690   3.742   4.550  16.661  1.0374  0.0692 -0.1353
10733TIP3    H253691   3.677   4.615  16.540 -0.2423 -0.4916  0.2397
10734TIP3   OH253692   6.015   0.690  16.470 -0.4833 -0.0654  0.0938
10734TIP3    H153693   6.080   0.620  16.465  0.5693  0.9753 -1.1448
10734TIP3    H253694   5.938   0.654  16.428 -0.4853 -1.0553  0.9248
10735TIP3   OH253695   2.475   4.460   1.032  0.2389  0.6094 -0.4885
10735TIP3    H153696   2.488   4.466   1.126 -1.1490 -0.3215 -0.2177
10735TIP3    H253697   2.562   4.475   0.994  1.7315 -3.4958  1.1121
10736TIP3   OH253698   1.907   6.428  15.897  0.2388  0.2869 -0.1632
10736TIP3    H153699   1.839   6.470  15.844 -0.6546 -0.4538  0.3971
10736TIP3    H253700   1.987   6.476  15.873 -0.5251  1.4194 -0.5410
10737TIP3   OH253701   4.133   2.943   4.278 -0.0343  0.1504 -0.2374
10737TIP3    H153702   4.176   2.885   4.341  1.4334  0.0179 -1.3304
10737TIP3    H253703   4.172   2.920   4.194 -0.0472  2.1416 -0.8120
10738TIP3   OH253704   2.027   5.280  12.930  0.2127 -0.0504  0.5979
10738TIP3    H153705   2.075   5.332  12.994 -1.4435  0.9350  1.0650
10738TIP3    H253706   1.948   5.251  12.977 -0.7467  0.2188 -0.8286
10739TIP3   OH253707   0.766   5.240  10.918  0.2315  0.4054 -0.3509
10739TIP3    H153708   0.836   5.303  10.902  0.9408 -0.5092 -0.9503
10739TIP3    H253709   0.796   5.188  10.992 -0.5309  1.0196  0.3977
10740TIP3   OH253710   0.493   5.293   6.036 -0.4308 -0.0168 -0.0064
10740TIP3    H153711   0.426   5.289   5.968 -0.1368  0.8787 -0.3554
10740TIP3    H253712   0.530   5.205   6.038 -0.1694  0.0540 -1.2918
10741TIP3   OH253713   0.822   2.680   0.279 -0.4524  0.0821 -0.1984
10741TIP3    H153714   0.821   2.772   0.306 -0.9963 -0.3578  1.3318
10741TIP3    H253715   0.733   2.661   0.251 -1.2123 -0.8909  2.7425
10742TIP3   OH253716   4.569   4.590   2.396 -0.1422 -0.4839  0.2337
10742TIP3    H153717   4.566   4.536   2.317 -0.7074 -1.2622  0.7856
10742TIP3    H253718   4.638   4.655   2.378 -0.5624 -0.3935 -1.0568
10743TIP3   OH253719   6.427   2.814  15.222  0.2914 -0.0209  0.2470
10743TIP3    H153720   6.363   2.815  15.150  0.6161 -2.5664 -0.1301
10743TIP3    H253721   6.385   2.762  15.290  0.4172  1.5218  1.5439
10744TIP3   OH253722   3.826   0.266   6.355  0.2301 -0.6422 -0.2781
10744TIP3    H153723   3.823   0.171   6.365 -0.6838 -0.7299 -1.3508
10744TIP3    H253724   3.909   0.292   6.396 -0.5076 -1.6543  1.9316
10745TIP3   OH253725   3.659   6.091   2.703 -0.1723 -0.8309  0.1631
10745TIP3    H153726   3.753   6.075   2.713 -0.1296 -0.9422 -0.3918
10745TIP3    H253727   3.630   6.119   2.790 -0.0322 -2.7861  0.8599
10746TIP3   OH253728   3.917   2.220  12.402 -0.0116 -0.5291  0.4237
10746TIP3    H153729   3.839   2.221  12.458  0.9865  0.3305  1.8554
10746TIP3    H253730   3.967   2.298  12.429  0.4303  0.0039 -1.7979
10747TIP3   OH253731   2.059   1.668  11.567 -0.5255  0.1271 -0.4124
10747TIP3    H153732   2.089   1.692  11.480 -1.7225  1.3504 -0.5155
10747TIP3    H253733   2.121   1.711  11.627 -0.2827  0.1123 -0.6522
10748TIP3   OH253734   2.751   0.619  11.938  0.8432 -0.9185  0.5099
10748TIP3    H153735   2.828   0.567  11.961  1.1719 -0.1825  1.0807
10748TIP3    H253736   2.678   0.573  11.981  0.8568 -1.9984 -0.5927
10749TIP3   OH253737   5.052   5.544   4.878  0.1977  0.9397  0.2401
10749TIP3    H153738   5.046   5.452   4.852 -0.0600  1.2345 -0.7739
10749TIP3    H253739   5.144   5.567   4.866  0.1668  0.9494  0.0208
10750TIP3   OH253740   0.368   0.908   0.128  0.5517 -0.1038 -0.2396
10750TIP3    H153741   0.394   0.872   0.213  1.0290 -1.1779 -0.8241
10750TIP3    H253742   0.448   0.948   0.094  0.3053  0.5152 -0.0802
10751TIP3   OH253743   2.306   0.351   1.396  0.0429 -0.2207  0.2700
10751TIP3    H153744   2.216   0.377   1.417 -0.1142 -1.8702  1.6925
10751TIP3    H253745   2.311   0.259   1.421  1.1542 -1.0763 -2.9395
10752TIP3   OH253746   6.192   1.902  14.823 -0.3465 -0.3420  0.3261
10752TIP3    H153747   6.236   1.976  14.782  0.4848 -0.3816  1.1536
10752TIP3    H253748   6.110   1.939  14.857  0.4055  0.3532  1.3857
10753TIP3   OH253749   6.448   4.563   3.875  0.0338  0.2766 -0.7882
10753TIP3    H153750   6.384   4.558   3.946  0.8557  0.5729 -0.0211
10753TIP3    H253751   6.399   4.597   3.800 -0.1877  2.7189  0.4266
10754TIP3   OH253752   0.783   6.669   1.286 -0.1608  0.4198 -0.4233
10754TIP3    H153753   0.735   6.673   1.369 -0.2669 -0.6645 -0.4211
10754TIP3    H253754   0.874   6.684   1.310  0.0084 -1.3228  0.0986
10755TIP3   OH253755   6.503   5.780   3.805  0.4092  0.1018  0.0799
10755TIP3    H153756   6.502   5.722   3.729 -1.5548 -1.0316  0.9223
10755TIP3    H253757   6.425   5.835   3.795  1.3162  1.4431  0.1783
10756TIP3   OH253758   5.152   2.366  11.222  0.3602  0.0372 -0.1629
10756TIP3    H153759   5.239   2.331  11.241  0.6272 -0.4789 -2.2833
10756TIP3    H253760   5.142   2.356  11.128 -3.3626 -2.9953  0.4570
10757TIP3   OH253761   4.088   0.175  13.580  0.2562 -0.2352  0.1754
10757TIP3    H153762   4.172   0.130  13.575  0.0840 -0.5047 -0.3447
10757TIP3    H253763   4.105   0.252  13.633  0.6852 -0.6222  0.6095
10758TIP3   OH253764   2.996   1.196   4.204  0.2426 -0.0810  0.0723
10758TIP3    H153765   3.018   1.149   4.284  1.2355 -0.2832 -0.3090
10758TIP3    H253766   3.026   1.138   4.133 -0.4373  0.1857 -0.4399
10759TIP3   OH253767   3.614   3.434   0.012 -0.0109 -0.2739  0.0426
10759TIP3    H153768   3.666   3.498  -0.038  1.5468 -0.6750  1.1191
10759TIP3    H253769   3.615   3.468   0.101  0.7322 -1.7319  0.6011
10760TIP3   OH253770   2.565   0.070  16.048  0.0168  0.4108 -0.0110
10760TIP3    H153771   2.553   0.109  16.135 -0.7443  0.1396  0.0083
10760TIP3    H253772   2.630   0.126  16.006  1.0348  0.0532  1.0347
10761TIP3   OH253773   0.299   5.536   1.443  0.7106  0.3473 -0.1132
10761TIP3    H153774   0.217   5.538   1.393  0.7683  2.0659 -0.1761
10761TIP3    H253775   0.363   5.576   1.385  1.0603  1.1788  0.8369
10762TIP3   OH253776   5.611   1.740   0.540  0.1725  0.5566 -0.2361
10762TIP3    H153777   5.547   1.728   0.610  0.1958  0.6346 -0.2020
10762TIP3    H253778   5.577   1.814   0.489 -0.7122 -0.5397 -1.2670
10763TIP3   OH253779   4.790   1.017   6.095  0.3782 -0.4024  0.6516
10763TIP3    H153780   4.792   1.096   6.042  1.6417 -1.1433 -0.4128
10763TIP3    H253781   4.739   1.042   6.172  0.4955  1.3557  0.1843
10764TIP3   OH253782   5.965   4.842  11.230 -0.1833  0.4182  0.0400
10764TIP3    H153783   5.879   4.827  11.190  0.2254 -1.4421 -0.1922
10764TIP3    H253784   5.980   4.936  11.218 -1.4917  0.4924 -1.3111
10765TIP3   OH253785   1.021   6.644  14.337  0.0585 -0.6495  0.4715
10765TIP3    H153786   1.015   6.739  14.327 -0.4669 -0.6281  0.9248
10765TIP3    H253787   1.037   6.611  14.249  0.6456 -0.1083  0.3740
10766TIP3   OH253788   3.909   3.323  14.374  0.1330 -0.5781  0.3389
10766TIP3    H153789   3.860   3.403  14.358 -1.4053 -1.6920 -0.7445
10766TIP3    H253790   3.898   3.272  14.293  0.8452 -1.9831  1.1157
10767TIP3   OH253791   5.310   2.833  14.640 -0.6661 -0.0122 -0.0134
10767TIP3    H153792   5.332   2.740  14.652 -1.1672 -0.2966 -1.2699
10767TIP3    H253793   5.267   2.837  14.555 -1.1960  1.2886  0.3013
10768TIP3   OH253794   5.326   3.600  12.906  0.3017 -0.0479 -0.0484
10768TIP3    H153795   5.356   3.562  12.988  1.2626  1.0167  0.1114
10768TIP3    H253796   5.403   3.599  12.850 -1.0123 -3.3580 -1.9534
10769TIP3   OH253797   2.372   3.590  14.917  0.1328 -1.0317  0.2206
10769TIP3    H153798   2.417   3.578  15.000  0.2349 -1.3490  0.1201
10769TIP3    H253799   2.439   3.629  14.859 -0.4327  0.8054  0.7813
10770TIP3   OH253800   3.213   0.241   3.437 -0.6840 -0.2440  0.3211
10770TIP3    H153801   3.196   0.161   3.388  0.7610 -1.2306  1.3585
10770TIP3    H253802   3.129   0.264   3.477 -1.6893  0.1454 -1.9368
10771TIP3   OH253803   6.324   6.709  11.540 -0.1078 -0.2448  0.0300
10771TIP3    H153804   6.302   6.785  11.486 -0.5981 -0.3219  0.1175
10771TIP3    H253805   6.287   6.634  11.493 -1.1682 -0.2392  0.8172
10772TIP3   OH253806   6.452   6.485  15.195 -0.6345 -0.1606 -0.2505
10772TIP3    H153807   6.542   6.513  15.174 -0.5454 -0.2474  0.0201
10772TIP3    H253808   6.398   6.528  15.128 -0.3288 -0.5671 -0.7671
10773TIP3   OH253809   0.987   1.245  12.077 -0.4462 -0.3570 -0.2332
10773TIP3    H153810   0.977   1.240  11.982 -0.0844 -1.9266 -0.1948
10773TIP3    H253811   1.054   1.180  12.097 -1.0611 -0.5533  1.1885
10774TIP3   OH253812   5.010   6.465   0.740 -0.1543 -0.0102  0.4086
10774TIP3    H153813   5.032   6.478   0.832 -0.8258  2.8211  0.2003
10774TIP3    H253814   5.043   6.542   0.695 -2.7382  0.2275 -1.2056
10775TIP3   OH253815   5.130   5.528   2.013  0.1408  0.2073 -0.7458
10775TIP3    H153816   5.044   5.501   2.044 -0.2929  0.9039 -1.3459
10775TIP3    H253817   5.191   5.493   2.078 -0.2028 -4.0320 -2.4731
10776TIP3   OH253818   3.192   6.161   5.793 -0.1801 -0.3339 -0.0300
10776TIP3    H153819   3.151   6.203   5.869 -3.4674 -2.0697 -0.7341
10776TIP3    H253820   3.220   6.076   5.825  0.1450 -0.3378 -0.3185
10777TIP3   OH253821   5.203   4.993   3.455  0.2324  0.7092 -0.0731
10777TIP3    H153822   5.292   4.983   3.421  0.5348  0.6326  0.7211
10777TIP3    H253823   5.194   5.087   3.470  1.3028  0.4250  2.7496
10778TIP3   OH253824   6.460   6.448  11.986 -0.1099  0.3914  0.3739
10778TIP3    H153825   6.391   6.494  12.032 -0.9236 -0.3818 -0.0386
10778TIP3    H253826   6.483   6.374  12.043 -0.0229  0.3284  0.2585
10779TIP3   OH253827   6.159   4.910   1.754 -0.2848 -0.7963 -0.2727
10779TIP3    H153828   6.221   4.925   1.683 -0.0332  0.1763  0.1443
10779TIP3    H253829   6.130   4.819   1.742 -0.5938 -0.4969 -1.8772
10780TIP3   OH253830   5.716   4.273  14.295  0.4839  0.2293 -0.3875
10780TIP3    H153831   5.655   4.209  14.257  2.0664 -1.4328 -0.1984
10780TIP3    H253832   5.796   4.262  14.243  0.7989  1.9932 -0.2729
10781TIP3   OH253833   0.525   4.443  12.022  0.0771  0.0623 -0.0811
10781TIP3    H153834   0.530   4.538  12.033  2.0402 -0.0175 -0.1944
10781TIP3    H253835   0.434   4.422  12.046 -0.1435  1.8405  0.7862
10782TIP3   OH253836   1.201   4.258  13.307  0.5939  0.5038  0.1885
10782TIP3    H153837   1.112   4.232  13.331  0.5379  0.9397  0.4657
10782TIP3    H253838   1.242   4.282  13.390  1.6408 -1.6918  0.3283
10783TIP3   OH253839   5.209   0.508   2.712 -0.3117  0.8784  0.2188
10783TIP3    H153840   5.144   0.577   2.727  0.5047  1.7271 -0.1005
10783TIP3    H253841   5.161   0.439   2.667 -1.4146  0.7442  1.5724
10784TIP3   OH253842   0.128   3.814  16.233  0.3957 -0.5953 -0.7136
10784TIP3    H153843   0.108   3.905  16.254 -1.3750 -1.0950 -0.1108
10784TIP3    H253844   0.220   3.803  16.258  0.2186  0.6300  0.5160
10785TIP3   OH253845   1.505   1.015   1.043  0.1172 -0.5739 -0.0214
10785TIP3    H153846   1.450   0.937   1.039  0.2032 -0.5542 -1.7145
10785TIP3    H253847   1.589   0.987   1.005  0.3340  0.1818 -0.1077
10786TIP3   OH253848   5.231   3.860   5.240 -0.2150  0.0461  0.1964
10786TIP3    H153849   5.235   3.837   5.333  0.9718  1.7906  0.6063
10786TIP3    H253850   5.161   3.925   5.233 -0.6623 -0.4764 -0.2184
10787TIP3   OH253851   6.797   5.738   2.808 -0.6532 -0.0845 -0.2634
10787TIP3    H153852   6.754   5.661   2.845 -0.8379 -0.5464 -1.4414
10787TIP3    H253853   6.879   5.706   2.773 -0.8926  0.1810 -1.0869
10788TIP3   OH253854   4.043   5.679  14.525 -0.9511 -0.1351  0.4569
10788TIP3    H153855   3.954   5.645  14.525 -0.1271 -2.4372 -1.4983
10788TIP3    H253856   4.095   5.610  14.566  0.5161 -0.7274 -2.2248
10789TIP3   OH253857   3.651   2.258   5.297 -0.6029 -0.1125 -0.1927
10789TIP3    H153858   3.594   2.217   5.232 -1.7110  1.2575 -0.1188
10789TIP3    H253859   3.615   2.346   5.308  0.3557  0.1136  1.3196
10790TIP3   OH253860   1.371   4.901  13.350  0.2879 -0.0251 -0.1341
10790TIP3    H153861   1.361   4.996  13.342 -0.6776  0.0008  1.1735
10790TIP3    H253862   1.283   4.867  13.335  0.7926 -0.7994 -1.4668
10791TIP3   OH253863   4.654   5.085  16.941 -0.4045 -0.1060 -0.2747
10791TIP3    H153864   4.692   5.161  16.984 -2.7917  0.8584  0.1522
10791TIP3    H253865   4.714   5.066  16.868  1.6461  0.4964  1.2189
10792TIP3   OH253866   5.077   3.255   2.599 -0.2646  0.8719 -0.2692
10792TIP3    H153867   5.127   3.281   2.677  0.9955  0.7170 -1.0140
10792TIP3    H253868   4.989   3.291   2.614  0.1697  1.4830  0.8774
10793TIP3   OH253869   4.852   6.621   2.875 -0.5950 -0.6924 -0.7606
10793TIP3    H153870   4.909   6.594   2.803 -0.4429 -2.0099 -0.1688
10793TIP3    H253871   4.810   6.540   2.903  0.5632 -0.4950  1.6842
10794TIP3   OH253872   3.403   3.216   6.173 -0.1297 -0.2305 -0.4838
10794TIP3    H153873   3.493   3.247   6.182 -0.3042  0.1454 -0.0274
10794TIP3    H253874   3.393   3.149   6.240 -0.3479  0.0981 -0.1848
10795TIP3   OH253875   0.681   5.297  16.440  0.9389  0.6456  0.3335
10795TIP3    H153876   0.669   5.320  16.347  2.9298  0.1568 -0.0626
10795TIP3    H253877   0.595   5.313  16.479  0.2840  1.6661 -1.4251
10796TIP3   OH253878   0.189   0.169  16.597 -0.2437  0.2972 -0.1009
10796TIP3    H153879   0.100   0.144  16.574 -1.6013  3.9881  0.8392
10796TIP3    H253880   0.196   0.147  16.690 -0.1528 -0.0894 -0.2000
10797TIP3   OH253881   2.470   2.595   2.008 -0.1428  0.2420 -0.8703
10797TIP3    H153882   2.449   2.510   2.047  0.3670 -0.3638 -1.8902
10797TIP3    H253883   2.453   2.658   2.077  2.8604 -0.9812  1.0880
10798TIP3   OH253884   4.377   0.832   5.187  0.1898  0.3727 -0.0145
10798TIP3    H153885   4.314   0.820   5.259  0.6924 -1.3195  0.1679
10798TIP3    H253886   4.453   0.874   5.228 -0.0024  0.5260  0.1886
10799TIP3   OH253887   6.198   1.910  14.255  0.5231  0.5568 -0.0897
10799TIP3    H153888   6.276   1.912  14.200  1.0419 -0.4541  0.6148
10799TIP3    H253889   6.132   1.957  14.203  0.6500 -1.4238 -2.1235
10800TIP3   OH253890   4.661   0.539  11.027 -0.1749 -0.0479 -0.3365
10800TIP3    H153891   4.716   0.474  10.981  2.4019  1.8059  0.0071
10800TIP3    H253892   4.595   0.564  10.962 -0.5118 -2.1502 -0.8508
10801TIP3   OH253893   4.107   5.176  14.854 -0.2252 -0.1907  0.4620
10801TIP3    H153894   4.034   5.133  14.899  1.1689 -0.7916  2.2067
10801TIP3    H253895   4.082   5.175  14.761 -2.2984 -0.6303  0.9945
10802TIP3   OH253896   3.807   4.480  16.143 -0.4155  0.6682  0.1794
10802TIP3    H153897   3.846   4.496  16.229 -0.9609  1.0207  0.3659
10802TIP3    H253898   3.870   4.516  16.081 -0.8688  2.0967  0.5206
10803TIP3   OH253899   1.534   5.597  12.939  0.4770  0.1842  0.5545
10803TIP3    H153900   1.621   5.604  12.980 -0.6490  0.2642  2.9911
10803TIP3    H253901   1.497   5.517  12.977  0.5393 -1.3995 -2.5913
10804TIP3   OH253902   6.578   4.757   5.404 -0.6645 -0.5790  0.4010
10804TIP3    H153903   6.488   4.776   5.432 -0.4422 -0.7043  1.2294
10804TIP3    H253904   6.595   4.820   5.334 -0.5821  1.1263  1.8809
10805TIP3   OH253905   5.447   1.934  16.141 -0.0705  0.4556  0.1455
10805TIP3    H153906   5.394   2.012  16.126 -1.9206 -0.7563  0.1725
10805TIP3    H253907   5.537   1.964  16.132 -0.8120  2.0488 -2.4354
10806TIP3   OH253908   1.158   2.869  15.231  0.0221  0.2892 -0.3447
10806TIP3    H153909   1.171   2.954  15.188 -0.5331 -0.1603 -1.4258
10806TIP3    H253910   1.246   2.842  15.256  0.1419  1.4509  0.5444
10807TIP3   OH253911   0.022   4.239   3.419  0.0370 -0.2203  0.0635
10807TIP3    H153912  -0.011   4.157   3.382 -2.0645  0.9088 -0.6554
10807TIP3    H253913   0.085   4.270   3.354  0.8264 -1.2539  0.3307
10808TIP3   OH253914   1.409   3.992   3.459 -0.1045  0.1723 -0.2142
10808TIP3    H153915   1.339   3.947   3.507  0.1680  0.6953  0.6782
10808TIP3    H253916   1.364   4.063   3.413  0.0351  1.3806  1.4813
10809TIP3   OH253917   1.076   1.796  13.548  0.4244  0.2504  1.1019
10809TIP3    H153918   1.031   1.716  13.524 -0.0965  0.6332  0.7896
10809TIP3    H253919   1.006   1.861  13.558  0.9190  0.8986  0.4245
10810TIP3   OH253920   2.844   0.683  17.128  0.1505  0.4532 -0.6894
10810TIP3    H153921   2.810   0.676  17.217  0.5596  3.3267 -0.2429
10810TIP3    H253922   2.932   0.721  17.140 -0.4416  2.4550 -2.3653
10811TIP3   OH253923   0.289   0.954  11.721  0.3545  0.4634  0.4555
10811TIP3    H153924   0.360   0.978  11.662  2.1246 -0.2603  2.2277
10811TIP3    H253925   0.225   1.024  11.711  2.5701  2.6326  0.8870
10812TIP3   OH253926   6.737   3.794   0.905 -0.0324 -0.9084  0.3879
10812TIP3    H153927   6.756   3.867   0.846  0.9141 -0.2044  1.5394
10812TIP3    H253928   6.763   3.716   0.856  2.4936 -0.2059  0.5320
10813TIP3   OH253929   1.918   4.594   0.747  0.1009 -0.0306  0.0491
10813TIP3    H153930   1.828   4.570   0.725 -0.1481  0.1839  0.8120
10813TIP3    H253931   1.909   4.665   0.810  0.7914 -0.8151  1.0450
10814TIP3   OH253932   5.256   2.289  15.177  0.1529  0.3625  0.2727
10814TIP3    H153933   5.321   2.315  15.112 -0.0135 -0.7999 -0.3683
10814TIP3    H253934   5.195   2.232  15.130 -0.0791 -0.3358  1.3774
10815TIP3   OH253935   2.860   4.733  11.693  0.0352 -0.3199  0.0432
10815TIP3    H153936   2.846   4.803  11.629  0.6195 -0.7664 -0.5799
10815TIP3    H253937   2.849   4.652  11.643 -0.3120 -0.6748  0.6909
10816TIP3   OH253938   4.418   5.084  16.803 -0.2713  0.6751  0.2725
10816TIP3    H153939   4.511   5.104  16.817 -0.6021  2.0965  0.5135
10816TIP3    H253940   4.406   5.088  16.708  0.4399 -2.0397  0.0047
10817TIP3   OH253941   2.896   6.493   4.512  0.3139 -0.0902  0.1745
10817TIP3    H153942   2.895   6.467   4.604  0.3257 -0.2358  0.1349
10817TIP3    H253943   2.967   6.556   4.506  0.1070  0.1579  0.3278
10818TIP3   OH253944   3.205   4.643  13.803  0.1965  0.0282  0.7106
10818TIP3    H153945   3.268   4.581  13.764 -0.3860 -0.6903  0.8969
10818TIP3    H253946   3.248   4.673  13.883  0.9332  0.6761  0.0877
10819TIP3   OH253947   1.196   3.697  13.812 -0.9087 -0.0915  0.0433
10819TIP3    H153948   1.143   3.684  13.733 -2.0295  1.5843  0.4902
10819TIP3    H253949   1.278   3.653  13.793 -1.9963 -1.6797 -1.1661
10820TIP3   OH253950   1.180   6.747  11.496 -0.0714 -0.1606 -0.2386
10820TIP3    H153951   1.226   6.679  11.545 -1.3373 -0.8903 -0.0581
10820TIP3    H253952   1.226   6.828  11.518  0.8973 -0.8315  0.2219
10821TIP3   OH253953   3.695   1.756  13.498 -0.0148  0.0664 -0.0986
10821TIP3    H153954   3.623   1.762  13.561 -0.4679 -0.0832 -0.6034
10821TIP3    H253955   3.687   1.836  13.445 -0.5894 -0.5766 -0.9889
10822TIP3   OH253956   5.442   3.326  16.847  0.0151  0.0233 -0.4587
10822TIP3    H153957   5.482   3.375  16.775  0.2335 -0.4416 -0.6594
10822TIP3    H253958   5.348   3.336  16.834  0.0534 -0.2084 -0.9131
10823TIP3   OH253959   1.219   5.964  12.820  0.3063  0.6162 -0.6939
10823TIP3    H153960   1.291   5.961  12.883  0.6811 -2.4086 -1.1821
10823TIP3    H253961   1.140   5.963  12.874  0.6265 -0.7743 -0.2390
10824TIP3   OH253962   4.023   4.706   3.483 -0.5174  0.4056  0.0023
10824TIP3    H153963   4.000   4.615   3.465 -1.1858  0.8418 -1.4569
10824TIP3    H253964   3.940   4.746   3.510 -0.5084  0.9028 -0.7051
10825TIP3   OH253965   3.851   4.569   3.688  0.1513 -0.6727  0.1117
10825TIP3    H153966   3.786   4.502   3.670 -1.1376  0.4961  0.3776
10825TIP3    H253967   3.817   4.649   3.648  0.8846  0.2022  1.1649
10826TIP3   OH253968   6.563   1.756  15.016  0.2262 -0.6581  0.1101
10826TIP3    H153969   6.575   1.661  15.008 -0.3894 -0.6706 -0.8207
10826TIP3    H253970   6.469   1.767  15.025  0.3743 -0.1808  1.1007
10827TIP3   OH253971   1.994   0.690   5.583 -0.0996 -0.3541  0.2364
10827TIP3    H153972   2.054   0.730   5.647  0.3147 -1.1028  0.3228
10827TIP3    H253973   1.914   0.741   5.591  0.7982  1.2251 -0.4998
10828TIP3   OH253974   3.022   2.064  16.106  0.2855  0.7364  0.1226
10828TIP3    H153975   3.021   2.139  16.166 -0.5922 -0.6699  1.8955
10828TIP3    H253976   3.036   2.104  16.020  0.1517  2.9220  1.0598
10829TIP3   OH253977   4.090   4.596  10.651 -1.0200 -0.0108  0.1722
10829TIP3    H153978   4.036   4.539  10.596 -1.1313 -1.9361  2.2282
10829TIP3    H253979   4.166   4.543  10.674 -1.2245  0.5910  2.2841
10830TIP3   OH253980   1.552   1.991   3.802 -0.7024 -0.5786 -0.1390
10830TIP3    H153981   1.523   2.049   3.872 -2.3871 -1.1604 -0.3388
10830TIP3    H253982   1.559   1.905   3.842 -1.2250 -0.8260 -0.5743
10831TIP3   OH253983   0.640   6.773   2.708 -0.0312  0.2231  0.0197
10831TIP3    H153984   0.644   6.776   2.803  1.7744 -0.0583 -0.0278
10831TIP3    H253985   0.593   6.693   2.688 -0.6166  0.4045  0.6766
10832TIP3   OH253986   3.358   3.110   1.793 -0.3376 -0.3353 -0.7170
10832TIP3    H153987   3.333   3.201   1.775 -0.5397 -0.1288  0.5847
10832TIP3    H253988   3.306   3.059   1.731 -1.7964  0.2946 -0.0475
10833TIP3   OH253989   0.830   1.795   3.040  0.5075  0.0850  0.4012
10833TIP3    H153990   0.920   1.810   3.011  0.3261 -0.7863 -0.6465
10833TIP3    H253991   0.788   1.881   3.033  1.7234  0.9208  2.6861
10834TIP3   OH253992   5.958   1.230  12.065  0.4627  0.3425  0.3302
10834TIP3    H153993   5.939   1.161  12.001  1.5571  0.2390  0.1024
10834TIP3    H253994   5.983   1.306  12.011  0.5340  0.5192  0.6108
10835TIP3   OH253995   5.289   4.582   4.181 -0.3155  0.1152 -0.2156
10835TIP3    H153996   5.311   4.543   4.096  0.7539 -0.4906  0.3349
10835TIP3    H253997   5.199   4.554   4.198  0.4064 -2.0673  0.1427
10836TIP3   OH253998   1.700   2.237  15.493 -0.4912  0.4128  0.2853
10836TIP3    H153999   1.745   2.239  15.409 -3.1130  1.5276 -1.1661
10836TIP3    H254000   1.754   2.290  15.551 -0.0146  1.8935 -1.4609
10837TIP3   OH254001   2.078   2.316   1.278  0.4684 -0.1556 -0.4883
10837TIP3    H154002   2.092   2.407   1.253 -2.0680  0.5770  0.5284
10837TIP3    H254003   2.019   2.282   1.211 -1.4904  0.0469  1.0856
10838TIP3   OH254004   4.660   5.040  16.182  0.1919  0.1940  0.2516
10838TIP3    H154005   4.668   5.028  16.088 -0.3708  0.0092  0.2231
10838TIP3    H254006   4.649   5.135  16.194  1.1519  0.3152  0.2072
10839TIP3   OH254007   5.307   0.498   3.165  0.3628  0.2366 -0.2133
10839TIP3    H154008   5.232   0.456   3.124  0.5929  0.0647 -0.4604
10839TIP3    H254009   5.273   0.535   3.247 -0.2484  1.1605 -0.8802
10840TIP3   OH254010   0.073   5.342  11.302 -0.1202  0.6960  0.4543
10840TIP3    H154011   0.032   5.342  11.216  0.8906 -0.9310 -0.0417
10840TIP3    H254012   0.012   5.294  11.358  0.0269  0.2504  0.2377
10841TIP3   OH254013   1.078   5.322   5.084 -0.0284 -0.4660 -0.0810
10841TIP3    H154014   1.136   5.319   5.008  0.7313 -1.0086  0.5289
10841TIP3    H254015   1.039   5.235   5.089 -0.4616 -0.2799 -0.1411
10842TIP3   OH254016   0.787   5.519   0.485 -0.0622  0.1773  0.4279
10842TIP3    H154017   0.845   5.527   0.409 -1.0260 -2.7905 -0.6787
10842TIP3    H254018   0.758   5.609   0.502  1.8438  1.1712 -1.3729
10843TIP3   OH254019   2.658   3.544  12.767  0.1996  0.1844  0.5699
10843TIP3    H154020   2.747   3.519  12.792  0.6630  1.8547  0.5901
10843TIP3    H254021   2.657   3.541  12.672  0.9513  2.4205  0.4744
10844TIP3   OH254022   3.178   2.029   5.217  0.4873  0.2275  0.3936
10844TIP3    H154023   3.089   1.993   5.219  0.7533 -0.4506  0.0070
10844TIP3    H254024   3.175   2.099   5.153  0.2765  0.0851  0.2494
10845TIP3   OH254025   2.780   0.536   1.517  0.2622  0.1852  0.1794
10845TIP3    H154026   2.862   0.544   1.565 -0.5836 -0.5837  1.8075
10845TIP3    H254027   2.805   0.540   1.424  2.1815 -0.5582  0.6468
10846TIP3   OH254028   2.291   0.974   1.258 -0.1865 -0.0683 -0.0293
10846TIP3    H154029   2.328   1.062   1.259  0.5916 -0.3781 -0.6980
10846TIP3    H254030   2.202   0.985   1.291 -0.4794  1.1471 -1.1539
10847TIP3   OH254031   4.799   1.676  12.042  0.2102 -0.8749  0.0424
10847TIP3    H154032   4.704   1.673  12.028 -0.1381  0.1995  2.0127
10847TIP3    H254033   4.823   1.586  12.060 -0.6604 -0.9894  0.7172
10848TIP3   OH254034   1.028   0.376  11.190 -0.3558  0.1141  0.0410
10848TIP3    H154035   0.970   0.331  11.129  0.5982  1.6914 -2.0979
10848TIP3    H254036   1.059   0.453  11.142 -0.0472  1.7429  2.7476
10849TIP3   OH254037   4.800   5.274  13.344  0.1852  0.4148  0.1408
10849TIP3    H154038   4.732   5.237  13.288  0.7881  0.3908 -0.5715
10849TIP3    H254039   4.853   5.328  13.286  1.0239  0.1144  0.6139
10850TIP3   OH254040   6.254   4.958   2.357  0.1954  0.1174 -0.0661
10850TIP3    H154041   6.213   5.042   2.377 -1.6565 -1.2834  2.3628
10850TIP3    H254042   6.279   4.922   2.442  0.0462 -2.2209 -0.9681
10851TIP3   OH254043   5.510   3.640   3.896  0.0790 -0.0866 -0.5228
10851TIP3    H154044   5.429   3.661   3.849  0.1863 -0.1613 -0.7436
10851TIP3    H254045   5.482   3.578   3.964  0.0435 -0.5839 -0.9812
10852TIP3   OH254046   4.313   1.581  15.630 -0.1113  0.2190  0.1387
10852TIP3    H154047   4.369   1.545  15.561  0.3056  1.5212 -0.2144
10852TIP3    H254048   4.246   1.514  15.644  0.1290 -0.2962 -1.1307
10853TIP3   OH254049   2.912   5.924   4.514  0.0670  0.4875  0.1192
10853TIP3    H154050   2.871   5.840   4.495  0.7032  0.3558 -0.7614
10853TIP3    H254051   2.928   5.923   4.608 -0.7879  0.0217  0.2626
10854TIP3   OH254052   4.324   5.586   2.858  0.8424  0.4743 -0.4157
10854TIP3    H154053   4.365   5.569   2.773 -1.3521 -1.5878 -1.0932
10854TIP3    H254054   4.232   5.563   2.846  0.8507 -1.7640  3.0734
10855TIP3   OH254055   3.731   4.622  14.125 -0.1075 -0.7136 -0.2137
10855TIP3    H154056   3.653   4.665  14.159  0.6434  2.3255 -2.0419
10855TIP3    H254057   3.714   4.611  14.032  0.0747 -3.7300  0.0740
10856TIP3   OH254058   1.965   0.521  15.443  0.2034 -0.0284  0.0421
10856TIP3    H154059   2.016   0.523  15.524  0.7250 -0.7528 -0.2620
10856TIP3    H254060   1.903   0.593  15.452 -0.0291 -0.3726  1.2716
10857TIP3   OH254061   6.387   0.731  14.375 -0.1676 -0.0259 -0.0854
10857TIP3    H154062   6.301   0.716  14.416 -0.7807 -0.1873 -1.3823
10857TIP3    H254063   6.450   0.696  14.438 -1.1647 -1.4100  0.1890
10858TIP3   OH254064   6.121   0.203  13.680 -0.4930  0.4452 -0.5607
10858TIP3    H154065   6.171   0.176  13.757  2.4145  0.0008 -2.5597
10858TIP3    H254066   6.094   0.293  13.700 -0.6333  0.0097  1.3579
10859TIP3   OH254067   1.448   5.052   2.220 -0.3136  0.3786 -0.2276
10859TIP3    H154068   1.375   5.041   2.281 -1.6471  0.5931 -1.7338
10859TIP3    H254069   1.433   5.138   2.180  0.8433  0.4800 -0.4635
10860TIP3   OH254070   2.916   5.474   6.385  0.0464  0.0544  0.0704
10860TIP3    H154071   2.888   5.464   6.294 -0.7473  1.9189  0.0871
10860TIP3    H254072   2.928   5.569   6.396 -1.5754  0.0241  2.4133
10861TIP3   OH254073   2.058   3.171  12.411 -0.5073 -0.3896 -0.1407
10861TIP3    H154074   2.152   3.182  12.426 -0.4148 -1.1892 -0.0788
10861TIP3    H254075   2.053   3.126  12.326 -0.8499  0.0052 -0.3303
10862TIP3   OH254076   6.678   5.251   1.933 -0.3687 -0.5252 -0.9657
10862TIP3    H154077   6.648   5.213   1.851  0.7483  0.7095 -1.9531
10862TIP3    H254078   6.773   5.241   1.932 -0.3400 -0.4569  0.1475
10863TIP3   OH254079   4.905   1.066   2.016  0.2558  0.4242  0.4311
10863TIP3    H154080   4.917   0.981   1.974  1.2854 -0.7408  2.9535
10863TIP3    H254081   4.992   1.106   2.014  0.4953  0.0237  2.0917
10864TIP3   OH254082   5.384   5.194   1.486  0.3846  0.4566  0.9758
10864TIP3    H154083   5.308   5.137   1.479 -0.1637  1.2380  0.4152
10864TIP3    H254084   5.440   5.153   1.552  0.1893 -0.9328  0.2956
10865TIP3   OH254085   5.286   2.091  13.226  0.2370 -0.1308  0.5767
10865TIP3    H154086   5.199   2.068  13.259  0.2920  0.4513  1.1379
10865TIP3    H254087   5.336   2.010  13.233 -0.4433 -0.6405 -0.3684
10866TIP3   OH254088   4.852   4.809   4.097  0.1676  0.0964  0.2056
10866TIP3    H154089   4.870   4.719   4.068 -2.1138 -0.8569  1.6053
10866TIP3    H254090   4.860   4.862   4.018  0.9893 -1.4173 -0.7436
10867TIP3   OH254091   3.404   6.374  14.542 -0.0271 -0.1194  0.1405
10867TIP3    H154092   3.396   6.280  14.555  1.2327 -0.4926 -1.5632
10867TIP3    H254093   3.313   6.405  14.535 -0.4797 -1.0042  1.8990
10868TIP3   OH254094   2.878   6.608   3.623  0.5760 -0.5660  0.2786
10868TIP3    H154095   2.815   6.575   3.558  0.1656  1.6045 -0.4563
10868TIP3    H254096   2.839   6.586   3.708 -0.3909 -0.6621 -0.1904
10869TIP3   OH254097   3.994   5.863  10.845  0.3152  0.3633  0.8238
10869TIP3    H154098   4.081   5.826  10.861 -0.0868 -0.4829  1.0937
10869TIP3    H254099   3.936   5.815  10.904 -0.5564 -0.0713 -0.3736
10870TIP3   OH254100   0.890   1.894  12.935 -0.0966  0.2926  0.2067
10870TIP3    H154101   0.794   1.898  12.934 -0.0798  0.7250  0.4210
10870TIP3    H254102   0.918   1.978  12.970  0.4518  1.2604 -2.4414
10871TIP3   OH254103   3.288   6.632   3.756 -0.0078 -0.0021  0.1963
10871TIP3    H154104   3.216   6.683   3.793 -0.6361 -0.8659  0.1777
10871TIP3    H254105   3.249   6.547   3.735  0.9909 -0.4388  0.0867
10872TIP3   OH254106   3.477   4.979  15.802 -0.2826  0.6489 -0.0696
10872TIP3    H154107   3.506   5.048  15.862 -0.1941  0.5856 -0.0401
10872TIP3    H254108   3.385   4.999  15.785  0.0225  1.3844 -0.8983
10873TIP3   OH254109   1.878   6.278   1.898 -0.0884 -0.8285  0.0688
10873TIP3    H154110   1.932   6.335   1.845  1.7474 -1.1306  1.5538
10873TIP3    H254111   1.860   6.202   1.843  1.2179 -0.8363 -0.3382
10874TIP3   OH254112   2.995   1.903  15.877 -0.0923 -0.4422 -0.3757
10874TIP3    H154113   3.071   1.944  15.835 -0.8070  0.1633 -1.1046
10874TIP3    H254114   3.015   1.906  15.971  0.9028 -0.5340 -0.5773
10875TIP3   OH254115   1.271   4.154  17.023 -1.0401 -0.3222 -0.8539
10875TIP3    H154116   1.196   4.213  17.017 -1.7847 -1.0307  0.9317
10875TIP3    H254117   1.266   4.118  17.112  1.6554 -0.0951 -0.5676
10876TIP3   OH254118   6.086   4.975  14.152 -0.3124  0.2508 -0.8537
10876TIP3    H154119   6.054   5.042  14.091  1.5243  1.0822 -0.9353
10876TIP3    H254120   6.176   5.000  14.170  0.0400 -1.5637  0.0432
10877TIP3   OH254121   2.752   5.185   3.085 -0.7416  0.5577  0.3179
10877TIP3    H154122   2.726   5.111   3.140 -0.8842  1.6160  1.6701
10877TIP3    H254123   2.716   5.163   2.999 -3.0185  0.2573  1.3085
10878TIP3   OH254124   6.191   0.033   5.433  0.1264  0.3182 -0.0577
10878TIP3    H154125   6.170   0.076   5.516 -0.3835  1.3926 -0.7333
10878TIP3    H254126   6.201   0.105   5.370  1.3931 -0.4262 -0.7395
10879TIP3   OH254127   4.400   0.679  16.571  0.1009 -0.2216  0.3864
10879TIP3    H154128   4.470   0.657  16.631 -0.5631  1.0870  1.6733
10879TIP3    H254129   4.429   0.759  16.527 -0.8023  0.6438  1.3328
10880TIP3   OH254130   2.752   0.198   3.483  0.2382  0.3751  0.1485
10880TIP3    H154131   2.824   0.146   3.519  1.1185  0.7416 -1.0293
10880TIP3    H254132   2.766   0.286   3.518  0.3974  0.4580 -0.1212
10881TIP3   OH254133   2.960   2.465  14.390  1.0796  0.0639  0.1015
10881TIP3    H154134   2.902   2.405  14.436  1.7225 -0.6458 -0.0124
10881TIP3    H254135   3.019   2.498  14.458  1.2157 -0.0174  0.0240
10882TIP3   OH254136   4.444   4.989  11.599 -0.5198 -0.4610  0.2398
10882TIP3    H154137   4.503   5.064  11.591 -1.6158  0.4132  0.2527
10882TIP3    H254138   4.356   5.025  11.586 -1.0187 -1.8444 -0.3499
10883TIP3   OH254139   4.923   0.581  11.120 -0.5578  0.1891 -0.3936
10883TIP3    H154140   4.833   0.588  11.087 -0.3319  0.1045 -1.0359
10883TIP3    H254141   4.925   0.641  11.195 -0.7682  1.2455 -1.2137
10884TIP3   OH254142   4.703   1.847   3.069 -0.7992  0.1005 -0.2167
10884TIP3    H154143   4.629   1.809   3.022 -0.3380  0.2776 -1.0804
10884TIP3    H254144   4.723   1.928   3.023 -2.8679  2.3549  2.6379
10885TIP3   OH254145   0.711   1.534  15.546 -0.3249  0.1269 -0.4145
10885TIP3    H154146   0.654   1.458  15.559  0.2894 -0.3901 -0.7299
10885TIP3    H254147   0.666   1.605  15.592 -1.0064 -0.3750 -0.2871
10886TIP3   OH254148   6.035   0.022  14.798 -1.0401 -0.5823 -0.3476
10886TIP3    H154149   6.084  -0.059  14.782 -1.8208 -0.8867 -1.2709
10886TIP3    H254150   6.096   0.092  14.775 -0.5928 -0.9163 -0.2026
10887TIP3   OH254151   0.715   4.316  11.870  0.0930 -0.1043  0.4838
10887TIP3    H154152   0.690   4.327  11.778 -1.2325 -1.9023  0.6030
10887TIP3    H254153   0.645   4.360  11.919 -0.3891 -1.0988  0.6926
10888TIP3   OH254154   6.213   3.825  16.371  0.0308 -0.0137 -0.5243
10888TIP3    H154155   6.152   3.752  16.381  0.1132 -0.3903 -2.5337
10888TIP3    H254156   6.266   3.801  16.295  1.6268  1.0532  0.2199
10889TIP3   OH254157   3.269   3.857  16.240 -0.3038 -0.2573  0.5547
10889TIP3    H154158   3.186   3.832  16.281 -0.2710 -0.3355  0.5738
10889TIP3    H254159   3.256   3.839  16.147 -0.0434 -0.9984  0.6520
10890TIP3   OH254160   2.034   4.100   0.366 -0.4115 -0.9650 -0.3676
10890TIP3    H154161   2.114   4.136   0.328  0.0534  0.4000  1.7901
10890TIP3    H254162   2.042   4.005   0.351  2.3315 -1.0201  1.0401
10891TIP3   OH254163   4.470   1.593  14.625 -0.5606  0.1257  0.6096
10891TIP3    H154164   4.432   1.563  14.708 -1.6319  0.9860  0.4361
10891TIP3    H254165   4.556   1.552  14.623 -0.3987  0.3111  2.2991
10892TIP3   OH254166   0.760   0.249   2.072  0.3191 -0.3674 -0.4710
10892TIP3    H154167   0.815   0.260   2.149 -1.4390 -0.0766  0.7716
10892TIP3    H254168   0.794   0.171   2.029  0.9257 -0.8943  0.9423
10893TIP3   OH254169   3.797   5.218  15.685  0.6758  0.3738  0.5903
10893TIP3    H154170   3.833   5.130  15.674  1.8035  0.9778 -0.6912
10893TIP3    H254171   3.845   5.272  15.622 -1.5507  1.4650 -0.2232
10894TIP3   OH254172   0.867   3.602  13.758  0.1727 -0.8600 -0.7992
10894TIP3    H154173   0.817   3.604  13.676 -0.2139  0.6044 -0.5542
10894TIP3    H254174   0.829   3.673  13.810  1.2994 -0.9230  0.1239
10895TIP3   OH254175   0.974   0.538   3.562  0.0052 -0.0415  0.3202
10895TIP3    H154176   1.070   0.531   3.561  0.0063 -0.0369  0.3926
10895TIP3    H254177   0.950   0.544   3.470  0.0854  0.0880  0.3062
10896TIP3   OH254178   3.208   2.521  15.408  0.2300  0.0800  0.2545
10896TIP3    H154179   3.246   2.507  15.322  1.2002  0.5077  0.6101
10896TIP3    H254180   3.176   2.611  15.406 -0.4298 -0.1563  0.0846
10897TIP3   OH254181   2.300   2.578   3.710  0.3884 -0.2463 -0.2356
10897TIP3    H154182   2.310   2.492   3.669 -1.9450 -0.4358 -0.4490
10897TIP3    H254183   2.387   2.597   3.746  1.5994 -1.5753 -2.3188
10898TIP3   OH254184   3.408   4.780  16.680 -0.4782  0.0749  0.2005
10898TIP3    H154185   3.499   4.772  16.651 -0.6358 -2.4135  0.2600
10898TIP3    H254186   3.392   4.874  16.682  1.7388  0.5271 -0.9147
10899TIP3   OH254187   0.434   1.847   1.710 -0.0690  0.3401 -0.1101
10899TIP3    H154188   0.446   1.886   1.623  2.7128  0.5706  0.3376
10899TIP3    H254189   0.468   1.758   1.701 -1.8239 -0.3849  0.1888
10900TIP3   OH254190   6.173   3.313   1.517  0.0598 -0.0206 -0.1050
10900TIP3    H154191   6.218   3.262   1.585 -0.4163 -0.8763 -0.4389
10900TIP3    H254192   6.162   3.400   1.557 -2.6410 -1.2381  1.9883
10901TIP3   OH254193   1.353   5.786   6.130  0.8581 -0.9200  0.4680
10901TIP3    H154194   1.418   5.717   6.122 -0.7231 -2.6860  2.2009
10901TIP3    H254195   1.281   5.746   6.180 -0.3282  1.8126  1.0715
10902TIP3   OH254196   2.827   2.624   6.050 -0.3298 -0.0403  0.1844
10902TIP3    H154197   2.752   2.636   5.992  1.3369  0.3406 -1.9646
10902TIP3    H254198   2.811   2.540   6.094 -3.9128  1.8818  2.7846
10903TIP3   OH254199   4.917   5.199  12.166  0.5409  0.1352  0.1092
10903TIP3    H154200   5.011   5.196  12.153  0.6315  0.4876  0.6910
10903TIP3    H254201   4.903   5.272  12.226 -0.4697  2.9504 -3.3641
10904TIP3   OH254202   4.998   2.500  11.393 -0.0953 -0.4383 -0.1315
10904TIP3    H154203   5.029   2.494  11.483  2.5690  1.3938 -0.8746
10904TIP3    H254204   5.055   2.442  11.343 -1.6808 -1.5995 -0.6426
10905TIP3   OH254205   0.227   4.127   4.521 -0.1900  0.5799  0.4429
10905TIP3    H154206   0.253   4.219   4.529  1.8271  0.0593  0.0612
10905TIP3    H254207   0.277   4.094   4.446 -1.0885 -0.7631  0.4155
10906TIP3   OH254208   4.097   3.842  16.278  0.3228  0.5099 -0.0049
10906TIP3    H154209   4.038   3.850  16.203 -0.5774  1.6237  0.8121
10906TIP3    H254210   4.140   3.758  16.265  0.7598  1.0561 -2.1834
10907TIP3   OH254211   3.950   5.109  11.078  0.8972  0.6112  0.4353
10907TIP3    H154212   3.900   5.178  11.035  3.5807  1.5839 -1.2577
10907TIP3    H254213   3.967   5.143  11.166  0.3156  1.1606  0.3380
10908TIP3   OH254214   4.738   0.868   6.482  0.3464 -0.4437  0.4219
10908TIP3    H154215   4.813   0.856   6.424  0.4261 -0.5479  0.5462
10908TIP3    H254216   4.759   0.817   6.560  0.2088 -0.3611  0.5144
10909TIP3   OH254217   3.008   4.938  11.178 -0.0246 -0.2057 -0.3443
10909TIP3    H154218   3.005   5.023  11.133  1.6634  0.0727  0.0431
10909TIP3    H254219   2.939   4.887  11.136  1.1737  0.2139 -2.9197
10910TIP3   OH254220   1.647   0.103   3.343 -0.0858 -0.1126 -1.1537
10910TIP3    H154221   1.625   0.196   3.347 -1.9871 -0.5461 -0.7927
10910TIP3    H254222   1.691   0.092   3.259  1.6265  1.3993 -0.4850
10911TIP3   OH254223   4.205   6.698  15.114 -0.2605 -0.1000 -0.0322
10911TIP3    H154224   4.269   6.752  15.068  0.1568 -0.0525  0.5950
10911TIP3    H254225   4.216   6.721  15.207 -0.4139 -0.8946  0.1935
10912TIP3   OH254226   2.479   2.324  16.845  0.0016  0.7337  0.2941
10912TIP3    H154227   2.514   2.409  16.819 -2.6098  0.8966 -3.0939
10912TIP3    H254228   2.474   2.275  16.763  0.0988 -2.1824  1.9872
10913TIP3   OH254229   1.612   3.891  15.987  0.2977  0.2040 -0.0951
10913TIP3    H154230   1.650   3.829  15.925 -0.8291  1.5704 -2.2033
10913TIP3    H254231   1.681   3.956  16.001  0.3051  0.2792 -0.4751
10914TIP3   OH254232   1.318   6.142  17.112  0.8538 -0.1791 -0.6200
10914TIP3    H154233   1.354   6.223  17.148  1.4723 -0.6547 -0.1766
10914TIP3    H254234   1.332   6.149  17.018 -1.1133  1.2438 -0.8443
10915TIP3   OH254235   3.949   6.721  16.441  0.3988 -0.4582 -0.5084
10915TIP3    H154236   3.921   6.709  16.350  1.8416  1.8667 -1.3029
10915TIP3    H254237   4.035   6.679  16.445 -0.4028 -2.0701  0.2661
10916TIP3   OH254238   6.283   2.813  11.409 -0.5748  0.3483  0.0663
10916TIP3    H154239   6.256   2.721  11.401 -0.0131  0.1611  0.3334
10916TIP3    H254240   6.275   2.848  11.321 -3.0656  0.6711  0.3729
10917TIP3   OH254241   3.706   3.898  15.214  0.6636 -0.0430 -0.0816
10917TIP3    H154242   3.726   3.814  15.173  1.7689  0.3229 -0.2963
10917TIP3    H254243   3.694   3.958  15.141 -1.9190 -0.3710 -0.0025
10918TIP3   OH254244   5.608   2.115  12.171  0.2980 -0.1324  0.6396
10918TIP3    H154245   5.645   2.152  12.091  0.6209 -0.4863  0.6230
10918TIP3    H254246   5.513   2.130  12.162  0.2756 -0.6654 -0.0630
10919TIP3   OH254247   2.828   4.938  10.533  0.1031 -0.0548 -0.8357
10919TIP3    H154248   2.761   4.934  10.465  0.0768  2.4989 -0.9982
10919TIP3    H254249   2.903   4.893  10.496  0.4141  2.1420 -2.9674
10920TIP3   OH254250   6.750   5.765  11.240  0.1176  0.7924  0.2987
10920TIP3    H154251   6.693   5.704  11.286  0.6980 -0.6075 -0.8162
10920TIP3    H254252   6.737   5.746  11.148  0.8103  1.9157 -0.0473
10921TIP3   OH254253   6.791   6.691  14.458 -0.8846 -0.6207  0.4720
10921TIP3    H154254   6.809   6.749  14.384 -0.2498 -0.2860  0.8860
10921TIP3    H254255   6.779   6.750  14.532 -1.9516 -0.9311  0.5571
10922TIP3   OH254256   5.126   5.417  10.419 -0.9639 -0.0252  0.0285
10922TIP3    H154257   5.055   5.356  10.440 -0.4477 -0.8865 -0.7136
10922TIP3    H254258   5.201   5.361  10.398 -0.7841  0.8403 -1.7227
10923TIP3   OH254259   4.616   2.429  13.783 -0.3645  0.2403  0.0001
10923TIP3    H154260   4.565   2.447  13.704 -1.0906 -1.9214 -0.0637
10923TIP3    H254261   4.628   2.515  13.825 -0.6858  1.2832 -2.0087
10924TIP3   OH254262   3.369   3.906   1.376  0.0182 -0.6789  0.4907
10924TIP3    H154263   3.421   3.834   1.339  1.2534  0.5915 -0.2843
10924TIP3    H254264   3.409   3.985   1.340 -1.4717  0.3896  1.1665
10925TIP3   OH254265   6.679   2.845   2.517 -0.1458 -0.1068  0.3962
10925TIP3    H154266   6.670   2.870   2.425  1.6893 -1.3378 -0.1406
10925TIP3    H254267   6.758   2.792   2.520 -2.0859 -3.0757  2.0607
10926TIP3   OH254268   5.319   1.392   5.570  0.5373 -0.3326  0.3264
10926TIP3    H154269   5.269   1.310   5.575 -0.8415  0.5186  0.8665
10926TIP3    H254270   5.254   1.458   5.547  1.9821  0.3267 -1.9769
10927TIP3   OH254271   2.409   1.362  11.735 -0.4796 -0.1736  0.5739
10927TIP3    H154272   2.493   1.395  11.704  0.1113 -1.5535  0.6656
10927TIP3    H254273   2.411   1.375  11.830 -0.7331  0.5917  0.4768
10928TIP3   OH254274   4.516   2.398   1.444  0.2056 -0.2412 -0.1249
10928TIP3    H154275   4.577   2.462   1.481 -0.6191  0.0730  0.7233
10928TIP3    H254276   4.464   2.449   1.381  0.6254 -0.4498 -0.6496
10929TIP3   OH254277   3.790   2.622   3.298  0.2244  0.1307  0.3895
10929TIP3    H154278   3.806   2.693   3.360  0.8396 -0.6161  1.0762
10929TIP3    H254279   3.745   2.665   3.225  1.2638  1.3798  0.4612
10930TIP3   OH254280   2.403   0.695   1.987 -0.3131 -0.7636 -0.2965
10930TIP3    H154281   2.347   0.617   1.986  0.1750 -1.1564  1.3876
10930TIP3    H254282   2.475   0.674   1.928 -1.9742 -0.2108 -2.5673
10931TIP3   OH254283   3.088   3.609  14.281 -0.3289  0.0443  0.8001
10931TIP3    H154284   3.048   3.651  14.204  0.7007  1.6702  1.1363
10931TIP3    H254285   3.049   3.654  14.356 -0.3946 -0.6927  1.2170
10932TIP3   OH254286   0.541   4.717   3.266 -0.1911 -0.1467 -0.3043
10932TIP3    H154287   0.535   4.651   3.197  1.1410 -0.2426 -0.3267
10932TIP3    H254288   0.544   4.666   3.348  3.6890 -0.2764 -0.4452
10933TIP3   OH254289   3.927   4.574   3.967 -0.3710  0.0403  0.0160
10933TIP3    H154290   3.833   4.573   3.987 -0.7427 -0.7451 -1.7503
10933TIP3    H254291   3.933   4.539   3.879  1.6736 -0.7109  0.4412
10934TIP3   OH254292   1.705   3.822   5.694  0.3810 -0.2899 -0.0443
10934TIP3    H154293   1.738   3.739   5.728 -0.6299 -0.1934  1.1951
10934TIP3    H254294   1.630   3.842   5.749  0.9203  1.7039 -0.0100
10935TIP3   OH254295   2.881   2.143   0.266  0.1772  0.4201 -0.2126
10935TIP3    H154296   2.966   2.106   0.288  0.9008 -0.4443 -4.2133
10935TIP3    H254297   2.818   2.087   0.312  1.6357 -0.8171  0.2917
10936TIP3   OH254298   3.864   6.494  16.020 -0.1141 -0.2437 -0.2871
10936TIP3    H154299   3.827   6.412  15.989 -0.8438 -0.1274  0.2766
10936TIP3    H254300   3.955   6.492  15.989 -0.1721 -1.1825 -0.4113
10937TIP3   OH254301   6.069   0.852  12.138  0.3300 -0.0031  0.1435
10937TIP3    H154302   6.095   0.903  12.215 -0.6420 -0.0909  0.5295
10937TIP3    H254303   5.991   0.805  12.165  0.0599 -0.1424 -0.8559
10938TIP3   OH254304   4.569   5.564   0.098  0.8090  0.1245 -0.1954
10938TIP3    H154305   4.545   5.581   0.007  1.3284  1.1516 -0.1384
10938TIP3    H254306   4.510   5.619   0.149  1.3106  0.4483  0.0442
10939TIP3   OH254307   1.742   2.325   5.692 -0.2368 -0.2230  0.3882
10939TIP3    H154308   1.775   2.410   5.718 -0.2691  0.0490 -0.4254
10939TIP3    H254309   1.648   2.329   5.709  0.0622 -0.8161  2.2284
10940TIP3   OH254310   0.118   6.388  13.583 -0.8278  0.5511 -0.1589
10940TIP3    H154311   0.130   6.391  13.488 -0.5730  1.7412 -0.0982
10940TIP3    H254312   0.205   6.408  13.619 -0.5062 -1.6596  0.3432
10941TIP3   OH254313   2.143   5.712  14.703 -0.0790  0.6738  0.3464
10941TIP3    H154314   2.200   5.668  14.766  2.5003  1.8369 -1.0972
10941TIP3    H254315   2.163   5.670  14.619  0.4350  2.7349 -0.5857
10942TIP3   OH254316   3.772   2.283   2.783 -0.6952  0.7613 -0.5772
10942TIP3    H154317   3.840   2.348   2.798  0.6874 -0.3192 -2.0582
10942TIP3    H254318   3.690   2.332   2.791  0.3516  3.2752 -4.0882
10943TIP3   OH254319   0.258   2.681   1.223  0.0605 -0.2173  0.1624
10943TIP3    H154320   0.293   2.595   1.199 -0.3455 -0.3307 -0.0326
10943TIP3    H254321   0.199   2.663   1.296 -0.6877 -0.2266 -0.4375
10944TIP3   OH254322   4.813   2.735   3.339  0.1901 -0.1407 -0.5572
10944TIP3    H154323   4.868   2.669   3.381  0.3202 -0.1759 -0.7800
10944TIP3    H254324   4.775   2.690   3.263  1.5815  0.5027 -1.6567
10945TIP3   OH254325   2.857   6.543   5.023 -0.4848 -0.4961  0.1578
10945TIP3    H154326   2.898   6.627   5.045 -1.4355 -0.1361  0.5540
10945TIP3    H254327   2.877   6.487   5.098  1.3124 -1.0574 -0.6957
10946TIP3   OH254328   5.123   2.553   2.163 -0.0437  0.0802 -0.2742
10946TIP3    H154329   5.072   2.547   2.244 -0.5735 -1.1296 -0.6874
10946TIP3    H254330   5.142   2.646   2.154  0.7988  0.1468  1.7320
10947TIP3   OH254331   5.654   4.954  13.865 -0.1253  0.9057 -0.0625
10947TIP3    H154332   5.633   4.923  13.953 -2.2090 -1.2565 -1.2635
10947TIP3    H254333   5.748   4.935  13.855 -0.2637 -0.4490  1.0529
10948TIP3   OH254334   1.073   5.335  12.330  0.2935 -0.0049  0.1423
10948TIP3    H154335   1.120   5.289  12.260 -1.8091  0.1433 -1.3946
10948TIP3    H254336   1.084   5.428  12.309  1.3031  0.1172  1.1296
10949TIP3   OH254337   4.284   3.191   2.516 -0.5277 -0.1800 -0.4988
10949TIP3    H154338   4.306   3.281   2.540  1.8015 -0.8493  0.0902
10949TIP3    H254339   4.224   3.162   2.585 -0.2773  0.5303  0.0275
10950TIP3   OH254340   2.350   3.179   6.083  0.6338 -0.0451 -0.4280
10950TIP3    H154341   2.336   3.089   6.113  2.8224 -0.0079  0.8058
10950TIP3    H254342   2.420   3.172   6.018  2.3097  0.9705  1.2033
10951TIP3   OH254343   4.031   3.634   4.589 -0.1220 -0.6034  0.3817
10951TIP3    H154344   4.065   3.551   4.555  1.7061  0.7471 -1.2449
10951TIP3    H254345   4.097   3.662   4.653 -0.2840 -0.0087  0.2904
10952TIP3   OH254346   2.874   3.061  13.293  0.8363  0.4097  0.0122
10952TIP3    H154347   2.869   3.022  13.380 -1.4226 -1.6546 -0.9785
10952TIP3    H254348   2.806   3.128  13.292  2.4896  2.1460  0.6004
10953TIP3   OH254349   2.684   3.788   3.043  0.4926  0.4026 -0.3767
10953TIP3    H154350   2.668   3.808   3.135  1.2439 -0.1191 -0.1228
10953TIP3    H254351   2.629   3.711   3.026  1.4586 -0.4109  0.0575
10954TIP3   OH254352   5.994   1.866  12.633 -0.0287 -0.0131  0.1361
10954TIP3    H154353   6.081   1.859  12.672  0.9903 -1.8722 -2.3442
10954TIP3    H254354   5.951   1.784  12.656  0.1563 -0.6108 -1.5660
10955TIP3   OH254355   6.678   4.433  10.841  0.1129 -0.4654 -0.1299
10955TIP3    H154356   6.658   4.480  10.760 -1.6303 -2.6047 -1.0065
10955TIP3    H254357   6.773   4.438  10.849  0.2993 -0.1225 -2.2746
10956TIP3   OH254358   1.913   3.504   5.403  0.0013 -0.4471 -0.8093
10956TIP3    H154359   1.936   3.411   5.401  0.4483 -0.3375 -0.8366
10956TIP3    H254360   1.997   3.550   5.396 -0.1420 -0.0401  0.1010
10957TIP3   OH254361   4.315   0.158   0.229 -0.8059 -0.2563  0.1834
10957TIP3    H154362   4.343   0.179   0.318 -1.3240 -2.1012  0.8051
10957TIP3    H254363   4.254   0.228   0.206  0.9061  1.3819  0.4701
10958TIP3   OH254364   0.765   2.441   0.497 -0.3607 -0.0475  0.2840
10958TIP3    H154365   0.755   2.346   0.488 -0.7947 -0.0268  0.5572
10958TIP3    H254366   0.693   2.478   0.446 -0.0901  0.1401  0.0343
10959TIP3   OH254367   0.435   6.395   1.314  0.0114  0.4166  1.0105
10959TIP3    H154368   0.458   6.392   1.407 -0.9283 -0.9000  1.2167
10959TIP3    H254369   0.376   6.321   1.302  0.1169  0.5927 -0.6449
10960TIP3   OH254370   5.354   3.542   4.779  0.4512  0.0235 -0.2315
10960TIP3    H154371   5.399   3.470   4.735  0.2837 -2.3790  3.2794
10960TIP3    H254372   5.303   3.584   4.711  1.3741 -2.5671 -2.6176
10961TIP3   OH254373   1.763   3.604   1.514 -0.3336  0.0430 -0.1892
10961TIP3    H154374   1.807   3.520   1.496 -1.4611 -0.4298 -0.8033
10961TIP3    H254375   1.740   3.638   1.428 -0.5563  0.6260  0.0993
10962TIP3   OH254376   2.277   3.493  16.622 -0.2053  0.0798 -0.0636
10962TIP3    H154377   2.277   3.535  16.535 -0.9722 -0.5806 -0.3887
10962TIP3    H254378   2.367   3.502  16.652 -0.0941  0.9574 -0.6216
10963TIP3   OH254379   3.858   2.951  16.179  0.3861  0.3968 -0.0149
10963TIP3    H154380   3.805   2.892  16.125  0.5928 -1.2787  1.5320
10963TIP3    H254381   3.801   2.973  16.252  0.0200  2.8504 -1.0069
10964TIP3   OH254382   6.154   1.143  10.392 -0.1244  0.5177 -0.7167
10964TIP3    H154383   6.188   1.054  10.398 -1.3128  0.1784  1.7162
10964TIP3    H254384   6.231   1.198  10.380  0.6745 -0.7692 -1.6241
10965TIP3   OH254385   5.373   1.747   0.662  0.6548  0.6753 -0.2188
10965TIP3    H154386   5.368   1.838   0.690  0.0663  0.5041  0.2125
10965TIP3    H254387   5.348   1.749   0.569  0.3722  0.9060 -0.1344
10966TIP3   OH254388   2.943   3.723   2.559  0.1870  0.3811 -0.2427
10966TIP3    H154389   2.897   3.806   2.560 -2.4255 -0.9712 -1.9735
10966TIP3    H254390   3.014   3.735   2.496  0.3041  1.5417  0.1171
10967TIP3   OH254391   5.830   4.762   0.275 -0.2335 -0.2257  0.3130
10967TIP3    H154392   5.769   4.691   0.291  0.2853 -1.0777 -1.4283
10967TIP3    H254393   5.821   4.819   0.352 -1.3393 -1.6579  1.2654
10968TIP3   OH254394   4.009   3.571   5.023 -0.6616  0.6069  0.2237
10968TIP3    H154395   4.081   3.628   4.994  1.1918 -1.6251  0.3199
10968TIP3    H254396   4.036   3.541   5.109 -0.9540 -1.4972 -0.3995
10969TIP3   OH254397   5.619   1.381  15.330 -0.4754 -0.1153  0.0880
10969TIP3    H154398   5.601   1.471  15.304  0.1583 -0.5390 -1.9758
10969TIP3    H254399   5.562   1.365  15.405 -2.1029  1.3319 -0.8050
10970TIP3   OH254400   3.159   5.886  11.832 -0.0589 -0.0391 -0.0660
10970TIP3    H154401   3.222   5.936  11.781 -1.1311  0.8121 -0.5643
10970TIP3    H254402   3.173   5.915  11.922 -0.2907  0.7393 -0.2813
10971TIP3   OH254403   6.680   3.075  16.909  0.2041 -0.0503 -0.1997
10971TIP3    H154404   6.681   2.981  16.925 -0.4363 -0.1892 -0.9939
10971TIP3    H254405   6.628   3.111  16.981  0.4333 -0.2974  0.0920
10972TIP3   OH254406   4.545   5.185  14.149 -0.5166 -0.1722  0.2770
10972TIP3    H154407   4.521   5.274  14.174 -2.5768 -0.6180 -0.0551
10972TIP3    H254408   4.602   5.196  14.072  1.2069  0.9311  1.6526
10973TIP3   OH254409   4.220   2.894   0.871 -0.3980  0.1400  1.5064
10973TIP3    H154410   4.160   2.941   0.929 -0.9463  0.2180  0.8823
10973TIP3    H254411   4.278   2.961   0.837 -0.6851  0.2473  1.2239
10974TIP3   OH254412   4.524   3.904  16.912  0.0820  0.7543  0.2528
10974TIP3    H154413   4.526   3.811  16.936  0.4241  0.7161  0.0791
10974TIP3    H254414   4.607   3.939  16.943  1.5949  0.1781 -2.8952
10975TIP3   OH254415   3.495   1.180  13.297 -0.1647 -0.3115 -0.1488
10975TIP3    H154416   3.552   1.105  13.316 -0.5598 -0.2836  1.1862
10975TIP3    H254417   3.490   1.228  13.380 -0.6091  0.7231 -0.7675
10976TIP3   OH254418   0.882   5.652   3.227  0.1419  0.5640 -0.2307
10976TIP3    H154419   0.958   5.647   3.285 -0.5770 -1.4475  0.5708
10976TIP3    H254420   0.809   5.669   3.285 -0.3183  0.4717 -0.7790
10977TIP3   OH254421   3.284   1.756   2.784  0.3563  0.3547 -0.5102
10977TIP3    H154422   3.208   1.701   2.801  1.2207 -0.7142  0.0066
10977TIP3    H254423   3.274   1.829   2.844  0.4050 -0.4588  0.5136
10978TIP3   OH254424   0.233   4.429  16.944 -0.1489  0.3679 -0.8135
10978TIP3    H154425   0.234   4.372  16.868 -2.0603 -0.4129 -0.2827
10978TIP3    H254426   0.203   4.513  16.911 -0.2610  0.2377 -1.0430
10979TIP3   OH254427   5.373   2.122  12.864 -0.1536  0.1087 -0.4346
10979TIP3    H154428   5.314   2.101  12.792  0.3421  1.1036 -1.1417
10979TIP3    H254429   5.460   2.121  12.825  0.1633  0.1079  0.2698
10980TIP3   OH254430   1.126   5.074  11.842 -0.2042 -0.2629  0.1789
10980TIP3    H154431   1.219   5.055  11.829 -0.0005  0.6903  0.1865
10980TIP3    H254432   1.081   5.016  11.781  0.3736 -0.9762  0.4166
10981TIP3   OH254433   4.535   2.691  11.250  0.4187  0.1420 -0.2248
10981TIP3    H154434   4.469   2.623  11.239  0.1097  0.4585 -0.3483
10981TIP3    H254435   4.608   2.647  11.293 -0.1240 -0.0670  0.5013
10982TIP3   OH254436   0.453   0.979   5.295  0.3887  0.2350 -0.1540
10982TIP3    H154437   0.360   1.000   5.305  0.0993 -1.1357  0.0415
10982TIP3    H254438   0.475   1.012   5.208 -0.7221 -1.0332 -0.9184
10983TIP3   OH254439   0.154   3.098   0.214 -0.4679 -0.5883 -0.1271
10983TIP3    H154440   0.202   3.180   0.230  2.2599 -2.2630  0.5687
10983TIP3    H254441   0.145   3.095   0.119 -1.6022  1.0485 -0.1003
10984TIP3   OH254442   3.826   2.077   1.418  0.1560 -0.1090  0.3861
10984TIP3    H154443   3.845   2.162   1.456  1.0992 -0.1298 -0.0241
10984TIP3    H254444   3.891   2.018   1.455  0.3214 -0.3802 -0.3143
10985TIP3   OH254445   6.076   3.932  10.419  0.5392 -0.3897 -0.3381
10985TIP3    H154446   6.016   4.006  10.429  0.8290 -0.1649 -0.2610
10985TIP3    H254447   6.132   3.956  10.345  3.0583  1.1481  1.9495
10986TIP3   OH254448   1.500   0.082  14.334 -0.6139  0.1083  0.2204
10986TIP3    H154449   1.470   0.142  14.266  2.4388  1.4708  0.0124
10986TIP3    H254450   1.511   0.137  14.412 -0.8024 -0.7875  0.8948
10987TIP3   OH254451   5.237   4.283   0.659 -0.3322  0.3654  0.0749
10987TIP3    H154452   5.285   4.365   0.653  4.0452 -2.0862 -0.0085
10987TIP3    H254453   5.255   4.238   0.577 -2.9682 -0.6001 -0.0431
10988TIP3   OH254454   6.459   2.117  17.270  0.8665  0.1215 -0.1305
10988TIP3    H154455   6.475   2.207  17.242  0.9618 -0.0443 -0.6019
10988TIP3    H254456   6.365   2.112  17.283  0.6311 -0.2547 -1.9543
10989TIP3   OH254457   5.080   1.304   3.229 -0.4850  0.1954  0.1827
10989TIP3    H154458   5.005   1.315   3.171 -0.2151  1.5821  0.0747
10989TIP3    H254459   5.098   1.392   3.262  0.7165 -0.2206  0.6798
10990TIP3   OH254460   2.782   2.154  14.716  0.3796  0.0065 -0.3692
10990TIP3    H154461   2.814   2.071  14.751  1.7771  0.9383  0.5892
10990TIP3    H254462   2.842   2.177  14.646  0.2269  0.4036 -0.3754
10991TIP3   OH254463   6.779   3.321  15.568  0.2800 -0.1352  0.6575
10991TIP3    H154464   6.752   3.408  15.597  1.2628  1.0458 -1.8233
10991TIP3    H254465   6.815   3.279  15.646 -1.3014  1.2143  2.1535
10992TIP3   OH254466   3.214   5.604   4.414 -0.1707  0.0705  0.0945
10992TIP3    H154467   3.240   5.647   4.495 -0.9063 -0.0293  0.3886
10992TIP3    H254468   3.178   5.675   4.360 -1.9518 -0.2594  0.8184
10993TIP3   OH254469   6.139   5.157   1.064 -0.2894  0.3307  0.8462
10993TIP3    H154470   6.177   5.226   1.119 -0.9663  0.3788  1.2516
10993TIP3    H254471   6.046   5.159   1.084 -0.7185  1.1085 -1.1524
10994TIP3   OH254472   6.085   1.818  16.310 -0.0501 -0.4848 -0.1422
10994TIP3    H154473   6.035   1.785  16.384 -0.7798  2.0342  0.5414
10994TIP3    H254474   6.032   1.797  16.233 -1.2510  0.4743  0.4138
10995TIP3   OH254475   4.690   1.220   2.036  0.4025  0.1365  0.1195
10995TIP3    H154476   4.765   1.161   2.026  0.4710 -0.2641  2.5349
10995TIP3    H254477   4.666   1.244   1.947  0.0964 -3.8739 -1.0104
10996TIP3   OH254478   1.840   0.424  13.622  0.5090 -0.0491  0.1407
10996TIP3    H154479   1.896   0.350  13.599 -0.2745  0.4504 -3.7919
10996TIP3    H254480   1.891   0.502  13.597  0.3568  0.6731  1.9903
10997TIP3   OH254481   3.356   3.088   6.777 -0.2561 -0.0620 -0.1711
10997TIP3    H154482   3.342   3.011   6.832 -1.3856 -2.4420 -3.6281
10997TIP3    H254483   3.433   3.067   6.725 -0.3270  1.3354 -0.8762
10998TIP3   OH254484   6.424   5.637   3.590  0.1998 -0.1766  0.4975
10998TIP3    H154485   6.402   5.547   3.615  1.2751  0.3204  3.4527
10998TIP3    H254486   6.493   5.627   3.525 -0.3944 -1.5220  0.0599
10999TIP3   OH254487   4.745   0.261   4.681  0.1454 -0.0525 -0.7749
10999TIP3    H154488   4.736   0.281   4.775  1.8030 -0.4372 -0.5186
10999TIP3    H254489   4.667   0.299   4.641 -1.2220 -0.9653  0.9262
11000TIP3   OH254490   6.768   3.797  11.232  0.0228 -0.4336 -0.3443
11000TIP3    H154491   6.762   3.879  11.281 -1.7536 -1.2908  0.9657
11000TIP3    H254492   6.858   3.768  11.245  0.3973  0.8272 -0.0265
11001TIP3   OH254493   4.606   6.471  11.750  0.3566 -0.0773 -0.0489
11001TIP3    H154494   4.526   6.524  11.748  0.0881 -0.4922 -0.3216
11001TIP3    H254495   4.676   6.534  11.767 -0.2473  0.0166  2.1905
11002TIP3   OH254496   5.396   3.832  13.493  0.4215 -0.1468  0.2709
11002TIP3    H154497   5.439   3.843  13.408  0.4580  0.1515  0.3271
11002TIP3    H254498   5.390   3.920  13.528 -0.8545 -0.1092 -0.0292
11003TIP3   OH254499   0.357   5.652   3.075  0.1206  0.3378  0.5475
11003TIP3    H154500   0.431   5.701   3.110  0.7582 -0.1605 -0.0806
11003TIP3    H254501   0.285   5.715   3.075 -0.6050 -0.3480  5.0792
11004TIP3   OH254502   6.306   6.044   0.193  0.3502  0.5227  0.4517
11004TIP3    H154503   6.311   5.982   0.120 -0.8658  0.3925  0.4657
11004TIP3    H254504   6.344   5.998   0.267 -0.9544 -0.3808  0.5716
11005TIP3   OH254505   2.969   2.690   3.013  0.4074  0.2354 -0.1173
11005TIP3    H154506   2.891   2.686   3.068 -0.1498  0.3898 -0.8890
11005TIP3    H254507   2.936   2.710   2.926  1.0958 -1.7922 -0.8870
11006TIP3   OH254508   3.964   3.776   3.415 -0.4126 -0.2732 -0.4846
11006TIP3    H154509   4.043   3.806   3.460 -0.3554  0.5313 -1.1316
11006TIP3    H254510   3.891   3.808   3.469 -0.3354  0.3015 -0.7301
11007TIP3   OH254511   6.707   5.353  15.164 -0.3240  0.3370 -0.0826
11007TIP3    H154512   6.758   5.293  15.109 -0.2833 -0.5791  0.9288
11007TIP3    H254513   6.625   5.307  15.180 -0.5769  0.8576  0.1247
11008TIP3   OH254514   5.942   2.581   0.661 -0.1945 -0.3226  0.8726
11008TIP3    H154515   5.972   2.571   0.571 -1.0404 -0.2837  0.5781
11008TIP3    H254516   5.987   2.659   0.692 -0.9050  0.4311  0.0455
11009TIP3   OH254517   0.838   5.849  16.665  0.1555 -0.2966  0.6012
11009TIP3    H154518   0.895   5.924  16.644 -0.2604 -0.1871 -0.1475
11009TIP3    H254519   0.750   5.886  16.664 -0.1628 -1.0959 -1.1450
11010TIP3   OH254520   4.354   3.882  14.627  0.3100 -0.4290  0.8010
11010TIP3    H154521   4.448   3.900  14.636  0.6273 -1.7752  0.2701
11010TIP3    H254522   4.314   3.968  14.618  1.6933  0.0868 -0.7720
11011TIP3   OH254523   1.465   2.494  11.596  0.3765  0.5542  0.0250
11011TIP3    H154524   1.516   2.418  11.624 -1.3019 -0.3858  0.5566
11011TIP3    H254525   1.505   2.568  11.641  2.5105  0.1164 -1.0960
11012TIP3   OH254526   0.524   5.433   0.443 -0.3802 -0.4537  0.1966
11012TIP3    H154527   0.521   5.351   0.392  0.8670 -1.3395  1.5350
11012TIP3    H254528   0.617   5.448   0.458 -0.5185  1.9150 -1.1050
11013TIP3   OH254529   4.408   6.349  12.777 -0.3976  0.1344  0.5466
11013TIP3    H154530   4.454   6.267  12.793 -0.2136  0.7250  3.3706
11013TIP3    H254531   4.477   6.411  12.754 -0.2020  0.1155  1.0647
11014TIP3   OH254532   0.790   2.476   2.860 -0.1218  0.2567  0.4922
11014TIP3    H154533   0.768   2.504   2.949 -0.1028 -1.4694  1.0780
11014TIP3    H254534   0.723   2.515   2.804 -1.3761 -0.3473  1.5489
11015TIP3   OH254535   4.922   0.152   1.313 -0.3042 -0.5179  0.4718
11015TIP3    H154536   5.017   0.157   1.306 -0.2948  1.6100  1.6282
11015TIP3    H254537   4.898   0.078   1.258  2.0043 -0.9981  0.0496
11016TIP3   OH254538   0.652   2.179   2.518 -0.0067 -0.6128  0.4813
11016TIP3    H154539   0.716   2.121   2.559 -0.7633 -1.0173  1.1076
11016TIP3    H254540   0.571   2.128   2.515 -0.6186  0.3163  0.8214
11017TIP3   OH254541   0.946   0.825   3.266 -0.4411  0.0038  0.1238
11017TIP3    H154542   0.979   0.738   3.286 -0.8695 -0.0820  0.4845
11017TIP3    H254543   1.013   0.884   3.300  0.2555 -0.1957 -0.8943
11018TIP3   OH254544   4.515   1.316   6.741  0.3271 -0.5106 -0.0438
11018TIP3    H154545   4.543   1.234   6.781  1.4945 -0.3617 -0.5359
11018TIP3    H254546   4.420   1.311   6.740  0.3890 -1.7769  0.0904
11019TIP3   OH254547   1.717   4.565   3.495  0.2483 -0.2405  0.3072
11019TIP3    H154548   1.675   4.488   3.534 -1.2974  0.1118 -0.6180
11019TIP3    H254549   1.810   4.543   3.491 -0.1065 -1.8228  0.5951
11020TIP3   OH254550   2.262   5.493   1.097  0.6561  0.1554  0.4761
11020TIP3    H154551   2.315   5.418   1.124 -0.6862 -0.5828  1.0897
11020TIP3    H254552   2.315   5.538   1.032  0.5700 -2.5571 -1.5343
11021TIP3   OH254553   4.707   5.942   3.231 -0.4300 -0.4662 -0.3474
11021TIP3    H154554   4.651   5.871   3.199  0.5711 -0.8906 -1.1900
11021TIP3    H254555   4.672   5.963   3.317 -2.1533 -0.4301 -1.0227
11022TIP3   OH254556   4.067   0.591  12.142 -0.3872  0.1974  0.4915
11022TIP3    H154557   3.995   0.543  12.102 -1.3713  1.5026  0.6696
11022TIP3    H254558   4.053   0.580  12.236  0.2551 -0.4221  0.5202
11023TIP3   OH254559   6.345   4.797   1.154 -0.1005 -0.4780 -0.3706
11023TIP3    H154560   6.423   4.802   1.099 -0.3206 -0.9761 -0.7333
11023TIP3    H254561   6.272   4.795   1.092 -0.5022  1.8289  0.0052
11024TIP3   OH254562   4.908   0.664  10.799  0.1818 -0.5749 -0.0455
11024TIP3    H154563   4.853   0.587  10.785  1.3758 -1.7013  1.3035
11024TIP3    H254564   4.996   0.629  10.808  0.9532  1.0990 -0.8789
11025TIP3   OH254565   6.068   0.746  11.073 -0.2816 -0.2201  0.9071
11025TIP3    H154566   6.047   0.654  11.085 -0.0761 -0.1898  1.5193
11025TIP3    H254567   5.984   0.789  11.061 -0.5785 -0.1299  3.0997
11026TIP3   OH254568   4.703   2.413   6.033  0.0335  0.2168  0.4457
11026TIP3    H154569   4.724   2.335   6.083 -0.0617 -0.2527 -0.2343
11026TIP3    H254570   4.674   2.477   6.098  0.5309 -0.1699  1.0476
11027TIP3   OH254571   3.658   4.476  15.784 -0.1950 -0.4042  0.2940
11027TIP3    H154572   3.709   4.549  15.818 -2.1434 -0.1926  2.8622
11027TIP3    H254573   3.584   4.517  15.738 -0.3565 -0.7431  0.2426
11028TIP3   OH254574   2.300   5.577  14.909  0.1991  0.1598  0.1091
11028TIP3    H154575   2.234   5.517  14.944  0.3248  0.4677  0.8908
11028TIP3    H254576   2.324   5.632  14.984  1.0002  0.3505 -0.2850
11029TIP3   OH254577   0.815   5.497  14.980  0.0065  0.6577 -0.2507
11029TIP3    H154578   0.772   5.578  14.950 -2.0713 -0.2977  0.0739
11029TIP3    H254579   0.843   5.516  15.069 -1.5446  0.6687  0.2599
11030TIP3   OH254580   4.284   1.606  13.621  0.1660  0.6965 -0.1691
11030TIP3    H154581   4.212   1.600  13.557 -0.9018  2.3486  0.8418
11030TIP3    H254582   4.337   1.679  13.589 -0.1783  1.2997  0.6231
11031TIP3   OH254583   3.170   5.039  12.973  0.2770  0.1473 -0.1846
11031TIP3    H154584   3.188   5.115  13.029 -0.6285  0.8008 -0.7718
11031TIP3    H254585   3.100   5.069  12.914  0.6793 -0.7850 -1.1426
11032TIP3   OH254586   3.531   1.025  11.726  0.2041 -0.5812 -0.1673
11032TIP3    H154587   3.458   1.058  11.674  0.4465 -0.5867 -0.5160
11032TIP3    H254588   3.509   0.934  11.744  0.3503 -0.7198 -0.6850
11033TIP3   OH254589   0.922   6.458  11.867 -0.2506 -0.2501  0.6473
11033TIP3    H154590   0.871   6.475  11.787  1.0442 -0.3171 -0.2103
11033TIP3    H254591   1.003   6.417  11.835  0.9607  1.1529  1.8583
11034TIP3   OH254592   2.482   1.056  12.102 -0.3878  0.6436 -0.3046
11034TIP3    H154593   2.430   0.978  12.083  1.8469 -0.8069 -0.5878
11034TIP3    H254594   2.570   1.023  12.120  0.0625  2.8920  1.9568
11035TIP3   OH254595   2.181   0.739   3.499 -0.3194 -0.1875 -0.1858
11035TIP3    H154596   2.191   0.742   3.594  0.7210 -0.3104 -0.2917
11035TIP3    H254597   2.268   0.717   3.466 -0.6037  0.1770 -1.1899
11036TIP3   OH254598   4.191   3.382  14.862 -0.4220  0.5699  0.3963
11036TIP3    H154599   4.218   3.317  14.926 -0.4194 -0.5429 -0.7064
11036TIP3    H254600   4.204   3.339  14.777 -0.5635  1.9513 -0.3498
11037TIP3   OH254601   3.735   3.926   6.737  0.5940 -0.0412  0.4184
11037TIP3    H154602   3.741   4.021   6.748 -0.8436  0.2118 -0.8534
11037TIP3    H254603   3.786   3.890   6.810 -0.1784  1.6833  1.8402
11038TIP3   OH254604   1.723   2.389  16.398 -0.2735  0.0362  0.1085
11038TIP3    H154605   1.680   2.375  16.482  1.2002 -0.5761  0.7748
11038TIP3    H254606   1.661   2.356  16.333 -1.2073  0.0680  0.9863
11039TIP3   OH254607   5.181   0.825   2.408 -0.4130 -0.6020  0.7976
11039TIP3    H154608   5.147   0.900   2.458  1.2979  1.0385 -0.4299
11039TIP3    H254609   5.267   0.808   2.446  0.1295 -0.5295 -0.3880
11040TIP3   OH254610   1.073   3.596  11.113  0.5098 -0.4706  0.1910
11040TIP3    H154611   1.007   3.532  11.136 -1.5915  1.6193  0.1947
11040TIP3    H254612   1.120   3.557  11.039 -2.2555 -1.0174 -1.3312
11041TIP3   OH254613   5.681   4.400  12.422 -0.1303  0.1328  0.3489
11041TIP3    H154614   5.697   4.490  12.395  0.7499  0.6340  2.4339
11041TIP3    H254615   5.590   4.383  12.397 -0.9951  2.3309  1.8849
11042TIP3   OH254616   4.089   2.079   3.503  0.0198  0.2613  0.1274
11042TIP3    H154617   4.090   1.992   3.544  1.4245  0.5732  0.7757
11042TIP3    H254618   4.119   2.064   3.414 -2.0229 -0.2582 -0.5090
11043TIP3   OH254619   1.062   3.013  16.405  0.2342  0.1291 -0.2578
11043TIP3    H154620   1.125   2.989  16.473  1.0466  0.0079 -1.0543
11043TIP3    H254621   1.112   3.065  16.343 -0.5122  0.2433 -0.7696
11044TIP3   OH254622   4.295   1.413   0.347  0.2241  0.0085  0.8190
11044TIP3    H154623   4.273   1.506   0.356  0.5717  0.0067  1.7052
11044TIP3    H254624   4.373   1.412   0.292  0.3335  0.2540  0.9695
11045TIP3   OH254625   6.418   2.943  13.303 -0.2583  0.4577  0.6743
11045TIP3    H154626   6.454   2.925  13.390  0.6952 -0.1799  0.1474
11045TIP3    H254627   6.328   2.973  13.321  0.3021  1.4234  1.9370
11046TIP3   OH254628   0.873   1.091  16.368 -0.1387 -0.6459 -0.1387
11046TIP3    H154629   0.943   1.121  16.426 -0.0950  3.6716 -2.1897
11046TIP3    H254630   0.918   1.050  16.294  0.1334 -0.0111 -0.3276
11047TIP3   OH254631   3.504   3.544  15.509 -0.1960 -0.0668  0.2074
11047TIP3    H154632   3.497   3.537  15.414 -0.3757  2.9809 -0.0492
11047TIP3    H254633   3.586   3.501  15.531  1.4418  1.9727 -1.7290
11048TIP3   OH254634   6.335   6.169  17.105 -0.1936  0.2689 -0.2374
11048TIP3    H154635   6.258   6.139  17.057 -0.3760  1.4234 -0.6884
11048TIP3    H254636   6.307   6.250  17.147  1.0115  1.1358 -1.0795
11049TIP3   OH254637   0.737   3.832  13.894 -0.5075  0.1619 -0.0361
11049TIP3    H154638   0.733   3.811  13.987 -0.5058 -1.1020 -0.3067
11049TIP3    H254639   0.674   3.903  13.882  0.4407  1.2193  1.1550
11050TIP3   OH254640   1.089   6.664  13.367  0.3390 -0.7367 -0.1723
11050TIP3    H154641   1.148   6.739  13.361  1.3120 -1.5301 -0.7020
11050TIP3    H254642   1.129   6.598  13.310  0.2018 -2.1172  1.3052
11051TIP3   OH254643   3.004   0.123  11.244  0.3560 -0.5685  0.1503
11051TIP3    H154644   2.970   0.117  11.333 -1.0321 -0.4957 -0.3686
11051TIP3    H254645   3.076   0.060  11.241 -0.6707 -1.7727  0.8288
11052TIP3   OH254646   4.922   0.623   3.135 -0.1747  0.1590 -0.2290
11052TIP3    H154647   4.827   0.620   3.137 -0.1879 -1.3802 -1.6164
11052TIP3    H254648   4.944   0.711   3.106 -1.1378  0.9300  1.3564
11053TIP3   OH254649   1.735   4.127  14.224  0.4144  0.0729  0.3403
11053TIP3    H154650   1.640   4.134  14.236  0.6768  2.5578  1.3141
11053TIP3    H254651   1.771   4.146  14.311  1.8656  1.0889 -0.4661
11054TIP3   OH254652   5.081   1.973  11.409  0.8948  0.5088 -0.4888
11054TIP3    H154653   5.150   1.939  11.352  0.9049 -1.3550  0.5962
11054TIP3    H254654   5.124   2.041  11.461  1.7501 -0.1665 -0.3040
11055TIP3   OH254655   0.564   0.539  14.392 -0.1611 -0.0269 -0.3033
11055TIP3    H154656   0.595   0.589  14.467  1.0685  0.4155 -1.0966
11055TIP3    H254657   0.490   0.488  14.426  2.1968 -2.0509  1.9011
11056TIP3   OH254658   0.929   1.837   1.813  0.0485 -0.1299  0.4574
11056TIP3    H154659   0.982   1.806   1.887  0.0688 -0.1593  0.4306
11056TIP3    H254660   0.880   1.760   1.786 -0.8745  0.1837  1.2220
11057TIP3   OH254661   4.442   0.099  15.251 -0.5914  0.4874  0.2606
11057TIP3    H154662   4.370   0.037  15.258  0.4438 -0.8545 -0.7330
11057TIP3    H254663   4.499   0.078  15.325  0.0256 -0.1148 -0.3754
11058TIP3   OH254664   0.589   2.494   0.275 -0.2272 -0.4611  0.4521
11058TIP3    H154665   0.594   2.399   0.264 -0.4799 -0.5782  1.2952
11058TIP3    H254666   0.535   2.524   0.202  0.2957 -0.9028 -0.1138
11059TIP3   OH254667   0.812   3.327   1.996  0.1841 -0.6714  0.2128
11059TIP3    H154668   0.749   3.279   2.050  1.4823 -1.2524  1.2419
11059TIP3    H254669   0.805   3.287   1.909  0.9044 -2.4224  0.9441
11060TIP3   OH254670   3.311   4.046  12.655  0.6129  0.8518 -0.8464
11060TIP3    H154671   3.258   3.977  12.615 -0.3114  0.2935  1.3080
11060TIP3    H254672   3.260   4.126  12.644  0.9804  0.9416 -1.9622
11061TIP3   OH254673   3.076   0.464  12.122  0.3675 -0.1164  0.3614
11061TIP3    H154674   3.049   0.526  12.054 -0.2310  0.3264  0.9927
11061TIP3    H254675   3.111   0.389  12.074 -0.3557  0.0542 -0.4405
11062TIP3   OH254676   6.423   5.314   4.311 -0.1482  0.0152  0.1831
11062TIP3    H154677   6.472   5.359   4.380 -0.4272 -1.9515  1.6898
11062TIP3    H254678   6.336   5.354   4.314 -0.3153 -0.4288  1.3298
11063TIP3   OH254679   1.129   0.273  13.736  0.0291  0.0368  0.0623
11063TIP3    H154680   1.209   0.320  13.712 -1.1369  1.7448 -0.5556
11063TIP3    H254681   1.128   0.275  13.831  2.3077 -2.7380  0.2053
11064TIP3   OH254682   6.748   1.986  11.343  0.9190  0.0501  0.3183
11064TIP3    H154683   6.759   1.895  11.316  1.9595 -0.5266  2.5925
11064TIP3    H254684   6.726   2.032  11.262 -2.1448 -2.6002 -0.4896
11065TIP3   OH254685   1.262   6.646  13.643  0.0023 -1.0414  0.0219
11065TIP3    H154686   1.233   6.659  13.553  0.4563 -1.0858 -0.1316
11065TIP3    H254687   1.201   6.698  13.696  0.6583  0.1952 -0.4310
11066TIP3   OH254688   2.830   1.279   4.587  0.4751 -0.2613  0.2565
11066TIP3    H154689   2.777   1.352   4.553  2.2603  1.1711  0.4867
11066TIP3    H254690   2.799   1.268   4.677  0.8136  0.8294  0.5186
11067TIP3   OH254691   3.877   0.619   2.398  0.2856 -0.0747  0.1621
11067TIP3    H154692   3.958   0.577   2.428 -0.1116 -1.2118 -0.3178
11067TIP3    H254693   3.810   0.551   2.409 -0.7353  1.0930  1.2194
11068TIP3   OH254694   4.554   5.465   1.552  0.0984  0.4493 -0.8134
11068TIP3    H154695   4.539   5.401   1.621 -0.3949  0.2799 -1.0722
11068TIP3    H254696   4.569   5.412   1.473  2.4757  0.6019 -0.5027
11069TIP3   OH254697   4.376   4.869  11.059  0.6956  0.4444 -0.0347
11069TIP3    H154698   4.417   4.860  11.145 -2.3505 -0.6422  1.3694
11069TIP3    H254699   4.378   4.781  11.022  1.7614  0.8583 -0.9968
11070TIP3   OH254700   3.313   1.750   4.719 -0.1500 -0.4763 -0.2167
11070TIP3    H154701   3.301   1.739   4.813  0.1692 -2.3204 -0.3647
11070TIP3    H254702   3.280   1.838   4.701 -0.1559 -0.0726  1.6175
11071TIP3   OH254703   4.730   2.300   5.111  0.3658  0.6076 -0.1661
11071TIP3    H154704   4.780   2.222   5.086  1.5133  1.7223 -1.4527
11071TIP3    H254705   4.741   2.306   5.206 -1.4798 -1.9633  0.2736
11072TIP3   OH254706   0.528   2.998   2.854  0.3655  0.2086 -0.3034
11072TIP3    H154707   0.482   2.929   2.808 -1.7293  1.8898 -0.8283
11072TIP3    H254708   0.488   3.000   2.941  1.2079  0.0104  0.0965
11073TIP3   OH254709   0.223   4.486  14.757  0.0370  0.2523  0.1365
11073TIP3    H154710   0.226   4.439  14.841  0.4619  1.8422  1.0365
11073TIP3    H254711   0.314   4.502  14.735 -0.0939  0.4263 -0.2783
11074TIP3   OH254712   1.971   5.317  11.518  0.1747  0.0082  0.2441
11074TIP3    H154713   2.030   5.242  11.505 -0.3343 -0.3247 -0.1780
11074TIP3    H254714   1.958   5.321  11.612  1.9715  0.9404  0.4694
11075TIP3   OH254715   1.773   1.115   0.123 -0.1317  0.2161 -0.1128
11075TIP3    H154716   1.827   1.135   0.046  2.4757  2.4492  2.2292
11075TIP3    H254717   1.797   1.025   0.146  1.8590  0.8209  0.2647
11076TIP3   OH254718   6.270   1.161  16.089  0.0411  0.0865  0.0980
11076TIP3    H154719   6.184   1.190  16.118 -0.5506  0.4131 -1.8647
11076TIP3    H254720   6.255   1.130  15.999  1.9196 -0.0621 -0.1817
11077TIP3   OH254721   1.812   4.861   2.481  0.1858  0.7432 -0.1702
11077TIP3    H154722   1.765   4.892   2.403 -0.5595  0.1076  0.0231
11077TIP3    H254723   1.873   4.932   2.502 -2.1113  2.4980  0.8052
11078TIP3   OH254724   6.447   4.409  12.606  0.0649  0.0294 -0.3036
11078TIP3    H154725   6.522   4.351  12.605 -0.7221 -1.0567  1.4854
11078TIP3    H254726   6.433   4.430  12.699 -0.9791  1.3424 -0.7256
11079TIP3   OH254727   0.357   0.995  13.784 -0.0865 -0.3836  0.8730
11079TIP3    H154728   0.417   0.978  13.855  1.0090 -0.1194  0.0219
11079TIP3    H254729   0.303   0.917  13.778  0.1890 -0.6301  1.6170
11080TIP3   OH254730   5.156   1.926   3.642  0.1691 -0.4914 -0.4313
11080TIP3    H154731   5.147   1.863   3.713 -0.5927 -0.4987 -0.5230
11080TIP3    H254732   5.249   1.946   3.638  0.2671 -0.8047  0.2965
11081TIP3   OH254733   0.177   0.018  10.995  0.7378 -0.2637 -0.5929
11081TIP3    H154734   0.092  -0.010  10.960 -0.2066  0.5101  1.0244
11081TIP3    H254735   0.212   0.077  10.929 -0.4091  0.1369 -0.8427
11082TIP3   OH254736   0.955   5.144  15.828  0.0753 -0.6093 -0.1048
11082TIP3    H154737   0.940   5.144  15.923 -1.7697 -0.6738 -0.3930
11082TIP3    H254738   1.050   5.132  15.820  0.4898  1.0317  1.7655
11083TIP3   OH254739   0.759   1.687  14.198  0.2721 -0.1665  0.5264
11083TIP3    H154740   0.819   1.616  14.178  0.4346  0.1064  0.0376
11083TIP3    H254741   0.686   1.645  14.244 -0.9536 -1.0938 -2.1728
11084TIP3   OH254742   5.077   6.327  12.592 -0.2732 -0.2950 -0.0818
11084TIP3    H154743   5.111   6.292  12.674  1.0172 -0.8861 -0.8487
11084TIP3    H254744   5.140   6.395  12.567  0.2203 -1.2017 -1.3785
11085TIP3   OH254745   1.225   0.681   2.270 -0.4967 -0.0277 -0.4027
11085TIP3    H154746   1.311   0.679   2.229 -0.3497  0.3719 -0.1213
11085TIP3    H254747   1.175   0.745   2.219  0.3345  2.0500  1.2641
11086TIP3   OH254748   1.219   3.457  15.902 -0.1799  0.9669  0.1209
11086TIP3    H154749   1.283   3.504  15.848 -1.3828  0.8241 -1.4518
11086TIP3    H254750   1.142   3.513  15.902 -0.9646 -0.1043 -0.1690
11087TIP3   OH254751   1.599   5.878  12.346  0.4716  0.2192 -0.2376
11087TIP3    H154752   1.637   5.794  12.322 -0.0374 -0.1425  0.1966
11087TIP3    H254753   1.518   5.883  12.295  0.1530  0.1290  0.2488
11088TIP3   OH254754   0.823   6.570   3.981 -0.4205  0.4343 -0.1392
11088TIP3    H154755   0.843   6.616   4.062 -1.2008  1.3618 -0.4699
11088TIP3    H254756   0.792   6.638   3.921  0.5113 -0.1791 -1.3449
11089TIP3   OH254757   5.063   0.943  17.146 -0.0807 -0.0989 -0.5201
11089TIP3    H154758   5.057   0.981  17.234 -0.2150 -0.3465 -0.4227
11089TIP3    H254759   5.000   0.995  17.095  2.0173  1.8967 -1.1456
11090TIP3   OH254760   6.455   0.234  13.538 -0.0221 -0.3780 -1.0731
11090TIP3    H154761   6.436   0.178  13.463  1.5683 -1.6755 -0.5350
11090TIP3    H254762   6.487   0.174  13.606  0.4968  1.0200 -0.0566
11091TIP3   OH254763   0.361   0.060   2.778 -0.0869  0.2399  1.2645
11091TIP3    H154764   0.397   0.043   2.691  0.0892  1.4963  1.0831
11091TIP3    H254765   0.426   0.023   2.838  0.4012  0.4763  0.8872
11092TIP3   OH254766   3.418   0.346   0.821 -0.1920  0.1646 -0.3204
11092TIP3    H154767   3.466   0.297   0.754 -0.3299  0.9175 -0.9808
11092TIP3    H254768   3.486   0.384   0.876 -0.0879 -4.3401  2.8831
11093TIP3   OH254769   4.084   4.269  13.450 -0.1848 -0.4201 -0.5878
11093TIP3    H154770   4.161   4.254  13.505  1.0721  0.5120 -2.0755
11093TIP3    H254771   4.015   4.217  13.491  0.6627  0.4196  2.0104
11094TIP3   OH254772   0.110   0.664   0.797  0.8096  0.6567 -0.2230
11094TIP3    H154773   0.040   0.657   0.731  0.3991  0.3524  0.2372
11094TIP3    H254774   0.183   0.616   0.759 -0.1112 -1.3151  0.4208
11095TIP3   OH254775   1.149   1.951   2.327 -0.0105  0.9126 -0.6657
11095TIP3    H154776   1.107   2.008   2.390 -0.1001  1.2640 -1.0405
11095TIP3    H254777   1.239   1.941   2.358 -0.2851  0.4117 -0.0309
11096TIP3   OH254778   5.169   2.778  14.896  0.9879  0.4182 -0.2040
11096TIP3    H154779   5.083   2.818  14.909 -0.1883 -1.7551 -1.0699
11096TIP3    H254780   5.200   2.815  14.814  0.5380  0.6499 -0.2742
11097TIP3   OH254781   0.388   4.938   3.832 -0.1887 -0.6579  0.2920
11097TIP3    H154782   0.377   4.843   3.827 -1.5504 -0.4440 -1.5572
11097TIP3    H254783   0.354   4.962   3.918  0.8816 -1.9124  1.0958
11098TIP3   OH254784   1.441   3.919   0.990  0.2164 -0.1961  0.5343
11098TIP3    H154785   1.432   3.878   1.077 -1.4922  0.5924  0.7665
11098TIP3    H254786   1.511   3.982   1.001 -0.6731  0.6256  1.6518
11099TIP3   OH254787   0.910   2.661   4.371 -0.5424 -0.0280  0.6502
11099TIP3    H154788   0.937   2.674   4.462 -0.4570 -0.9424  0.7519
11099TIP3    H254789   0.958   2.728   4.323 -0.9231  0.7530  1.3317
11100TIP3   OH254790   5.852   3.904   4.560  0.6415 -0.4555 -0.0949
11100TIP3    H154791   5.943   3.905   4.591  0.0299 -2.8076  1.8910
11100TIP3    H254792   5.803   3.950   4.628  0.2692  0.5355 -1.0161
11101TIP3   OH254793   5.715   3.759   2.857 -0.3734 -0.3419  0.0599
11101TIP3    H154794   5.806   3.762   2.828 -0.6684 -1.3362 -1.0257
11101TIP3    H254795   5.684   3.850   2.848 -0.3127 -0.5179 -2.3712
11102TIP3   OH254796   6.622   2.661   0.517  0.1425 -0.2741  0.1811
11102TIP3    H154797   6.598   2.697   0.432  0.6146 -2.8016 -1.0827
11102TIP3    H254798   6.542   2.622   0.551  0.1291  0.0876  0.5806
11103TIP3   OH254799   5.055   1.998   1.633 -0.8830  0.4678 -0.5475
11103TIP3    H154800   4.963   2.016   1.649 -1.0520 -0.0931 -0.9272
11103TIP3    H254801   5.058   1.951   1.550 -0.3373 -0.3516 -0.0780
11104TIP3   OH254802   4.700   5.045  15.449  0.2438 -1.0126 -0.2535
11104TIP3    H154803   4.660   5.107  15.510  1.3271 -0.6054  0.0571
11104TIP3    H254804   4.778   5.014  15.495  0.8207 -1.0494 -1.2570
11105TIP3   OH254805   5.944   5.682   1.754  0.0380  1.0703 -0.9546
11105TIP3    H154806   5.907   5.604   1.715  2.7726 -1.0191  0.4539
11105TIP3    H254807   6.035   5.685   1.722  0.9080  1.9049  1.4211
11106TIP3   OH254808   5.330   6.195  16.150 -0.4590 -0.1368  0.3155
11106TIP3    H154809   5.414   6.153  16.130 -0.4971 -0.6133  1.1395
11106TIP3    H254810   5.349   6.289  16.144 -0.2993 -0.2507 -1.2109
11107TIP3   OH254811   0.044   6.096   1.493  0.1037  0.3269 -0.6020
11107TIP3    H154812  -0.012   6.101   1.415  1.1459  0.8819 -1.3298
11107TIP3    H254813   0.086   6.010   1.487 -0.6955 -0.1133 -0.0246
11108TIP3   OH254814   2.255   4.191  11.993  1.1473 -0.1096 -0.6786
11108TIP3    H154815   2.174   4.215  11.947  2.1222  0.0518 -2.3465
11108TIP3    H254816   2.267   4.261  12.057 -2.0552 -2.0865  2.2821
11109TIP3   OH254817   2.930   2.102  15.009  0.2977  0.0345  0.2263
11109TIP3    H154818   2.985   2.088  14.932  0.0249 -0.5619  0.1335
11109TIP3    H254819   2.850   2.052  14.990 -1.6002  3.3978 -1.0593
11110TIP3   OH254820   3.038   2.635   2.428 -0.3736  0.5330  0.8312
11110TIP3    H154821   2.983   2.682   2.489 -2.8596 -0.5662 -0.4782
11110TIP3    H254822   2.976   2.586   2.373  1.9180 -0.9179 -0.5334
11111TIP3   OH254823   0.655   5.937  13.991  0.3598  0.5959  0.3847
11111TIP3    H154824   0.585   5.985  13.948 -1.0869  0.0452  2.0710
11111TIP3    H254825   0.700   6.002  14.044 -0.1090  0.5564  0.8293
11112TIP3   OH254826   2.624   4.216   0.365 -0.1594  0.6617 -0.5393
11112TIP3    H154827   2.627   4.298   0.318 -0.9337  0.5224 -0.8375
11112TIP3    H254828   2.640   4.240   0.457 -1.0823  1.2302 -0.5231
11113TIP3   OH254829   3.519   2.269   4.161  0.1392  0.2909  0.1755
11113TIP3    H154830   3.505   2.176   4.147 -0.1469  0.3059  0.3697
11113TIP3    H254831   3.478   2.311   4.086  0.9476  0.2168 -0.3112
11114TIP3   OH254832   5.946   1.461   3.175 -0.3352 -0.0358  0.2652
11114TIP3    H154833   6.027   1.419   3.148 -0.3657 -0.0031  0.1219
11114TIP3    H254834   5.878   1.396   3.154 -0.5470  0.6774 -1.3806
11115TIP3   OH254835   5.855   0.912   5.327  0.1673 -0.2794 -0.1353
11115TIP3    H154836   5.851   1.006   5.309 -3.2058 -0.1820  0.8266
11115TIP3    H254837   5.823   0.871   5.246 -1.2329 -0.4451  0.4877
11116TIP3   OH254838   0.132   0.934  15.809  0.0204  0.5689 -0.7533
11116TIP3    H154839   0.096   0.855  15.769 -1.5345  0.5479  0.6274
11116TIP3    H254840   0.218   0.906  15.843 -0.2797 -0.3737 -0.7424
11117TIP3   OH254841   5.608   3.527  15.281 -0.0973  0.2780 -0.4044
11117TIP3    H154842   5.595   3.619  15.301 -0.4862  0.5273 -1.7734
11117TIP3    H254843   5.520   3.491  15.270 -0.1763 -1.2503  4.2786
11118TIP3   OH254844   5.724   0.643  16.589 -0.8539 -0.1316  0.2047
11118TIP3    H154845   5.699   0.721  16.540 -1.0851 -0.2740  0.0954
11118TIP3    H254846   5.653   0.629  16.652 -0.5779  0.0252  0.5525
11119TIP3   OH254847   1.369   5.003  11.501 -0.1308 -0.4338 -0.2520
11119TIP3    H154848   1.280   5.007  11.467  0.7268  1.0463 -2.4353
11119TIP3    H254849   1.418   4.955  11.434  1.5713  2.4393 -1.1419
11120TIP3   OH254850   5.617   1.594  16.486 -0.4823  0.7071  0.3589
11120TIP3    H154851   5.546   1.623  16.429  0.8230 -0.4246 -1.8905
11120TIP3    H254852   5.681   1.665  16.482 -0.6007  0.8486  0.8483
11121TIP3   OH254853   0.031   2.963  14.291 -0.3872  0.3106 -0.1409
11121TIP3    H154854   0.109   2.928  14.247 -1.6390 -1.8237 -0.6987
11121TIP3    H254855   0.063   2.989  14.378  1.2585  0.8526 -0.8947
11122TIP3   OH254856   2.560   2.096   2.532 -0.0809  0.8673  0.1004
11122TIP3    H154857   2.470   2.063   2.537  0.1081  0.2584 -0.4537
11122TIP3    H254858   2.607   2.046   2.599  0.5019 -0.9818 -1.6347
11123TIP3   OH254859   2.292   4.024   5.961  0.0237 -0.7144 -0.0483
11123TIP3    H154860   2.272   4.024   6.054  0.4926  1.0691  0.0599
11123TIP3    H254861   2.290   4.116   5.935  1.2122 -1.0722 -1.5180
11124TIP3   OH254862   3.255   3.301   3.681  0.1649  0.6180  0.3758
11124TIP3    H154863   3.196   3.371   3.706  0.1519  1.0365 -0.7964
11124TIP3    H254864   3.243   3.292   3.587 -0.4812 -1.5594  0.6445
11125TIP3   OH254865   4.178   6.510  10.924 -0.0077  0.0433  0.0743
11125TIP3    H154866   4.147   6.424  10.950  0.6490 -0.3501 -0.4414
11125TIP3    H254867   4.256   6.493  10.872  1.4763  1.0667  1.9087
11126TIP3   OH254868   3.467   5.606   5.280  0.8851  0.0922 -0.3347
11126TIP3    H154869   3.523   5.667   5.328 -0.0948  2.1088 -1.6860
11126TIP3    H254870   3.517   5.524   5.277  2.2310  0.8269  1.4926
11127TIP3   OH254871   2.332   4.327   4.607 -0.3873 -0.1925  0.0884
11127TIP3    H154872   2.267   4.392   4.580 -0.0498 -0.0423 -0.3659
11127TIP3    H254873   2.347   4.346   4.699 -0.9216 -0.1728  0.1768
11128TIP3   OH254874   1.992   2.896  14.261 -0.0978  0.1440 -0.5889
11128TIP3    H154875   1.903   2.891  14.225 -0.8590  0.2940  1.2250
11128TIP3    H254876   2.021   2.984  14.239 -0.9214  0.5701 -0.0018
11129TIP3   OH254877   6.042   1.902  12.994 -0.3567  0.3891  0.3465
11129TIP3    H154878   6.037   1.996  13.011  0.5607  1.1027 -2.9206
11129TIP3    H254879   5.951   1.871  13.000 -0.8661  1.7722 -0.1157
11130TIP3   OH254880   2.531   2.957  14.224 -0.9534 -0.1718 -0.1606
11130TIP3    H154881   2.449   2.931  14.182 -0.7244  0.9719 -1.3267
11130TIP3    H254882   2.563   3.031  14.172  0.5004 -0.2034  0.6572
11131TIP3   OH254883   0.337   0.716   5.842 -0.4766 -0.3709  0.5577
11131TIP3    H154884   0.300   0.749   5.924  0.9479  0.4596  0.8930
11131TIP3    H254885   0.281   0.643   5.818 -1.6763  0.1845  1.6024
11132TIP3   OH254886   0.083   0.322  10.704 -0.0186 -0.1852  0.2383
11132TIP3    H154887  -0.001   0.306  10.747 -0.0021 -0.5142  0.1529
11132TIP3    H254888   0.064   0.388  10.637 -0.2334 -0.3358  0.1491
11133TIP3   OH254889   1.263   1.297   6.070  0.2618 -0.2547 -0.5708
11133TIP3    H154890   1.254   1.290   6.166 -0.9622  0.6528 -0.6120
11133TIP3    H254891   1.184   1.254   6.036  0.4496 -0.1319 -1.1571
11134TIP3   OH254892   5.683   0.111  13.890 -0.5764 -0.3195  0.3559
11134TIP3    H154893   5.672   0.206  13.889 -0.7213 -0.3070  1.7479
11134TIP3    H254894   5.740   0.093  13.815 -0.8345  0.8235 -0.1314
11135TIP3   OH254895   6.323   5.555  15.667  0.0779 -0.2263  0.0019
11135TIP3    H154896   6.229   5.540  15.660 -0.1045  0.8627  0.0533
11135TIP3    H254897   6.347   5.602  15.587  0.5776 -0.5068 -0.0183
11136TIP3   OH254898   4.397   6.721  12.751 -0.0487  0.3322  0.1335
11136TIP3    H154899   4.387   6.640  12.702 -0.5946  0.0729  0.6682
11136TIP3    H254900   4.308   6.745  12.777  0.2606  0.3508  1.1906
11137TIP3   OH254901   5.043   1.673   2.419 -0.2642 -0.1800 -0.1590
11137TIP3    H154902   4.975   1.697   2.356 -0.3434  1.9534  0.7141
11137TIP3    H254903   5.044   1.744   2.482  0.7911 -1.6107  1.4858
11138TIP3   OH254904   4.486   6.111   3.149 -0.0252 -0.1867 -1.0743
11138TIP3    H154905   4.565   6.079   3.192  0.9589  0.9835 -1.9656
11138TIP3    H254906   4.436   6.032   3.129  0.9296 -0.9414 -0.5354
11139TIP3   OH254907   1.445   4.277  13.168 -0.4835 -0.0466 -0.0350
11139TIP3    H154908   1.460   4.327  13.248  0.1138  0.7850 -0.6567
11139TIP3    H254909   1.356   4.244  13.176 -0.6545  0.5901  0.6702
11140TIP3   OH254910   3.479   4.348  16.261 -0.2137  0.1420 -0.2306
11140TIP3    H154911   3.466   4.398  16.342 -3.8319 -0.7311 -0.1930
11140TIP3    H254912   3.469   4.413  16.192 -0.1521  0.3209 -0.0762
11141TIP3   OH254913   2.420   2.044   4.893 -0.3440 -0.8186 -0.6541
11141TIP3    H154914   2.339   2.063   4.939 -2.2801 -4.1314 -2.5097
11141TIP3    H254915   2.480   2.014   4.962 -0.7743  1.2731  0.6678
11142TIP3   OH254916   3.101   6.380  12.204 -0.5015  0.7154  0.5039
11142TIP3    H154917   3.020   6.374  12.154  0.1672  1.8985 -0.7738
11142TIP3    H254918   3.148   6.300  12.184 -1.5612 -0.2170  1.6575
11143TIP3   OH254919   0.711   4.814  14.960 -0.0655 -0.2040  0.2488
11143TIP3    H154920   0.796   4.848  14.987  0.7477 -1.4145 -0.7132
11143TIP3    H254921   0.723   4.719  14.959 -0.6002 -0.2679 -2.5642
11144TIP3   OH254922   5.247   3.071   4.927  0.4584 -0.1492 -0.4038
11144TIP3    H154923   5.323   3.090   4.981 -0.0070 -2.3834  1.0725
11144TIP3    H254924   5.173   3.103   4.978  0.0551 -1.8611  0.1036
11145TIP3   OH254925   3.972   5.722  10.529  0.1352  0.2231 -0.1448
11145TIP3    H154926   4.007   5.652  10.583 -0.2160 -0.5830 -0.9528
11145TIP3    H254927   4.046   5.753  10.478  0.3273  0.5589  0.3346
11146TIP3   OH254928   0.727   6.750   1.555 -0.3829 -0.4177 -0.0698
11146TIP3    H154929   0.711   6.842   1.577  0.2849  0.1530 -1.8912
11146TIP3    H254930   0.685   6.701   1.626  0.3421  1.3097  1.6035
11147TIP3   OH254931   4.463   3.405   1.404 -0.0502  0.2785  0.7109
11147TIP3    H154932   4.422   3.486   1.373 -0.8849 -0.5964 -0.5113
11147TIP3    H254933   4.473   3.351   1.326 -0.9224 -1.4219  1.7300
11148TIP3   OH254934   3.705   6.724   5.726  0.2671 -0.6622  0.6788
11148TIP3    H154935   3.618   6.684   5.734 -1.0186  2.0837  0.7439
11148TIP3    H254936   3.711   6.751   5.635  0.3098  0.8007  1.1051
11149TIP3   OH254937   3.494   1.023   0.501 -0.2928 -0.4439 -0.2996
11149TIP3    H154938   3.480   1.117   0.506  2.5209  0.0980 -1.7128
11149TIP3    H254939   3.569   1.007   0.558 -0.7124 -1.8286 -0.1211
11150TIP3   OH254940   3.725   1.435  15.505  0.2103  0.0049  0.0386
11150TIP3    H154941   3.683   1.356  15.540 -0.6915  0.6016  0.3362
11150TIP3    H254942   3.659   1.504  15.516  1.1101  0.8740  0.0867
11151TIP3   OH254943   3.419   3.802  12.146 -0.2618  0.5888  0.4055
11151TIP3    H154944   3.442   3.781  12.236 -0.8248  0.5290  0.5324
11151TIP3    H254945   3.328   3.774  12.136 -0.1464  0.4325 -0.2320
11152TIP3   OH254946   2.559   0.925   1.379  0.2337 -0.1215 -0.2359
11152TIP3    H154947   2.616   0.976   1.322 -0.1250 -0.6233 -1.0646
11152TIP3    H254948   2.482   0.906   1.325 -0.0818 -0.6758  0.3913
11153TIP3   OH254949   0.697   1.149   5.724 -0.1385  0.3330  0.1464
11153TIP3    H154950   0.649   1.213   5.672 -0.9516  1.4395  2.1794
11153TIP3    H254951   0.787   1.181   5.727 -0.1874  0.5007 -0.2138
11154TIP3   OH254952   4.036   6.136  15.324  0.3301  0.3827 -0.1343
11154TIP3    H154953   4.003   6.188  15.251 -0.4562 -0.8900 -0.7041
11154TIP3    H254954   3.995   6.175  15.402  2.4745  2.8081 -0.1407
11155TIP3   OH254955   4.855   4.439  15.864 -0.7676  1.0869 -0.7027
11155TIP3    H154956   4.799   4.475  15.932 -0.9222 -2.0562  0.9598
11155TIP3    H254957   4.943   4.471  15.885 -1.1914  2.0633 -0.4256
11156TIP3   OH254958   1.570   2.068  16.333  0.6428 -0.1912  0.0301
11156TIP3    H154959   1.627   2.063  16.410  1.3007  0.0776 -0.4352
11156TIP3    H254960   1.596   2.149  16.289 -0.7794  0.4636  0.3414
11157TIP3   OH254961   6.286   0.488   4.917  0.5722  0.4846  0.1054
11157TIP3    H154962   6.344   0.423   4.876  0.7755  1.0502 -0.5124
11157TIP3    H254963   6.253   0.444   4.996  1.6601  0.0757  0.3436
11158TIP3   OH254964   1.147   4.139   0.131 -0.4418  0.4706  0.0794
11158TIP3    H154965   1.159   4.221   0.083 -1.4309  0.6350  0.1129
11158TIP3    H254966   1.204   4.077   0.085 -0.0717  1.0458 -0.2566
11159TIP3   OH254967   1.329   6.222  11.244  0.2045 -0.1051 -0.7282
11159TIP3    H154968   1.298   6.206  11.155 -1.9267  1.3232 -0.2861
11159TIP3    H254969   1.393   6.293  11.234 -1.3310  1.2981 -0.9710
11160TIP3   OH254970   0.212   4.728   2.580  0.4572 -0.4550 -0.1140
11160TIP3    H154971   0.145   4.786   2.619  0.6391 -0.8074  0.7434
11160TIP3    H254972   0.196   4.734   2.486  0.8781  1.4956 -0.0983
11161TIP3   OH254973   4.455   4.527  13.467  0.4939  0.0409 -0.1680
11161TIP3    H154974   4.487   4.588  13.400  1.1787  1.5626  1.4993
11161TIP3    H254975   4.443   4.582  13.545 -1.0802 -1.5416  0.7294
11162TIP3   OH254976   4.708   4.991   5.205 -0.5301  0.1996 -0.0797
11162TIP3    H154977   4.719   4.954   5.292  0.3672  1.3308  0.2960
11162TIP3    H254978   4.703   5.085   5.219 -0.8670  0.3619 -1.2083
11163TIP3   OH254979   0.471   2.012   5.471  0.0750  0.9024 -0.0687
11163TIP3    H154980   0.496   2.063   5.394 -1.0249  0.0457 -0.9951
11163TIP3    H254981   0.378   1.993   5.459  0.3379 -0.8236  0.5635
11164TIP3   OH254982   0.561   1.237   4.485 -0.1281 -0.1261  0.0950
11164TIP3    H154983   0.545   1.144   4.498 -0.8513 -0.0254 -0.0309
11164TIP3    H254984   0.516   1.258   4.403 -0.8590  0.5438  0.6528
11165TIP3   OH254985   3.379   5.718  13.361 -0.0866  0.4553  0.3287
11165TIP3    H154986   3.327   5.754  13.433 -1.6912  1.5961 -1.3580
11165TIP3    H254987   3.442   5.660  13.404 -0.8174  1.3285  2.6678
11166TIP3   OH254988   1.340   3.260   5.045 -0.3148 -0.1733  0.0157
11166TIP3    H154989   1.285   3.337   5.059 -2.7845 -1.3940 -2.5422
11166TIP3    H254990   1.297   3.190   5.094  1.2619 -0.2516  1.3534
11167TIP3   OH254991   1.219   1.051  12.811 -0.1629 -0.1409  0.0364
11167TIP3    H154992   1.133   1.020  12.785 -0.1048  0.6064 -1.1050
11167TIP3    H254993   1.250   1.102  12.736  0.5465  1.0320  1.1001
11168TIP3   OH254994   4.656   0.143  17.286  0.2832 -0.5450 -0.1118
11168TIP3    H154995   4.620   0.073  17.340 -1.2016 -2.0054 -2.9433
11168TIP3    H254996   4.742   0.110  17.259  0.8714  0.0388  0.9694
11169TIP3   OH254997   2.866   2.653  13.638 -0.0771  0.3237 -0.0286
11169TIP3    H154998   2.943   2.658  13.582 -0.1055  0.7571 -0.0293
11169TIP3    H254999   2.850   2.743  13.666  0.9234 -0.0962  1.9993
11170TIP3   OH255000   3.697   4.990   0.252 -0.0653 -0.2523  0.1009
11170TIP3    H155001   3.730   5.080   0.251 -0.4667 -0.1114 -0.7865
11170TIP3    H255002   3.758   4.941   0.197 -0.8598 -0.1549 -0.8818
11171TIP3   OH255003   5.282   2.376   6.160  0.3255  0.6244 -0.0477
11171TIP3    H155004   5.324   2.410   6.239  2.5417  0.9108 -1.2986
11171TIP3    H255005   5.333   2.298   6.138 -1.8828 -0.9349  0.2308
11172TIP3   OH255006   3.594   1.246   5.269 -0.3559 -0.4479  0.2158
11172TIP3    H155007   3.616   1.153   5.266 -1.2404 -0.6110 -2.0895
11172TIP3    H255008   3.650   1.286   5.204  0.7419  0.8236  1.9110
11173TIP3   OH255009   5.157   2.054  15.888 -0.0451  0.1836 -0.2415
11173TIP3    H155010   5.183   1.963  15.871 -0.2911  0.1430 -0.3974
11173TIP3    H255011   5.066   2.048  15.915  0.0658  0.3457  0.1612
11174TIP3   OH255012   2.503   4.960   5.043 -0.0063 -0.0039 -0.4684
11174TIP3    H155013   2.515   5.022   4.971  1.2251  1.0010  0.5950
11174TIP3    H255014   2.589   4.954   5.085 -0.5361 -1.1298  0.4997
11175TIP3   OH255015   3.348   0.229  16.327 -0.1993  0.6275 -0.2454
11175TIP3    H155016   3.349   0.238  16.422  0.0598 -0.3526 -0.1468
11175TIP3    H255017   3.321   0.315  16.294  0.0768  1.0781  0.6977
11176TIP3   OH255018   3.845   5.616  12.871  0.0148 -0.4558 -0.3512
11176TIP3    H155019   3.901   5.670  12.815  0.1976 -1.2918 -0.9788
11176TIP3    H255020   3.758   5.622  12.832  0.0742 -0.7704 -0.5327
11177TIP3   OH255021   6.089   4.792   3.671  0.0276 -0.1274 -0.2861
11177TIP3    H155022   6.064   4.844   3.595 -0.7197  0.5010  0.3907
11177TIP3    H255023   6.177   4.760   3.649 -0.7971 -1.2602 -2.0873
11178TIP3   OH255024   0.914   5.522   5.259  0.2848  0.3025 -0.2056
11178TIP3    H155025   0.952   5.457   5.200  1.2557 -0.2042  0.9660
11178TIP3    H255026   0.848   5.566   5.206  0.2577 -1.0047 -1.2994
11179TIP3   OH255027   3.527   5.374   0.664  0.2328 -0.1603  0.4448
11179TIP3    H155028   3.530   5.296   0.721 -1.6486 -0.0019  0.7929
11179TIP3    H255029   3.456   5.355   0.602  0.0789  1.0919  0.2427
11180TIP3   OH255030   5.265   0.507   3.457  0.6771 -0.3478 -0.0030
11180TIP3    H155031   5.266   0.429   3.512 -0.5677 -0.9537 -0.8153
11180TIP3    H255032   5.176   0.540   3.464  1.6366  1.9996  1.6879
11181TIP3   OH255033   4.128   0.755   3.043  0.4386 -0.4315  0.0388
11181TIP3    H155034   4.147   0.675   3.093 -0.5582 -0.0850  0.9802
11181TIP3    H255035   4.201   0.813   3.063  1.2349 -1.1427 -0.7465
11182TIP3   OH255036   3.384   4.201  17.123  0.9785 -0.0355  0.0606
11182TIP3    H155037   3.379   4.164  17.211 -0.2529 -1.9954 -0.8089
11182TIP3    H255038   3.294   4.225  17.101  1.5995  2.6741  0.2192
11183TIP3   OH255039   1.702   0.896  13.058 -0.3581 -0.1899 -0.1659
11183TIP3    H155040   1.722   0.823  13.000  0.8209  0.6454 -0.8411
11183TIP3    H255041   1.618   0.929  13.026  0.3359  0.3429 -1.5365
11184TIP3   OH255042   1.656   4.194  16.834  0.2721 -0.0777  0.2608
11184TIP3    H155043   1.626   4.198  16.925 -0.2262 -0.6384  0.1290
11184TIP3    H255044   1.640   4.103  16.808 -0.6051  0.3499 -0.7260
11185TIP3   OH255045   4.858   4.973   3.854 -0.2074  0.2652  0.3364
11185TIP3    H155046   4.828   4.916   3.782  1.1122 -0.5855  0.4227
11185TIP3    H255047   4.872   5.058   3.813  0.7100 -0.2645 -0.4678
11186TIP3   OH255048   5.830   4.445  11.562  0.6893 -0.3595  0.4805
11186TIP3    H155049   5.739   4.473  11.549  1.1510  1.4071  0.8932
11186TIP3    H255050   5.824   4.357  11.598 -0.8519 -0.3384  0.2965
11187TIP3   OH255051   3.494   3.783   6.440 -0.5803  0.1105  0.0093
11187TIP3    H155052   3.483   3.699   6.396  0.9447  0.1925 -0.5694
11187TIP3    H255053   3.473   3.766   6.532 -1.1869 -0.6750 -0.2748
11188TIP3   OH255054   1.447   6.387   2.264  0.2641 -0.7534 -0.5707
11188TIP3    H155055   1.416   6.447   2.196 -0.4903 -0.2721  0.1824
11188TIP3    H255056   1.467   6.444   2.339 -2.5263 -1.5938  0.9095
11189TIP3   OH255057   2.728   0.801   3.722 -0.5698 -0.0765  0.5261
11189TIP3    H155058   2.714   0.852   3.801 -0.6499  0.0304  0.4433
11189TIP3    H255059   2.821   0.777   3.724 -0.1789  1.3055 -0.1629
11190TIP3   OH255060   5.149   3.537  13.252 -0.4087  0.9506 -0.2349
11190TIP3    H155061   5.165   3.535  13.347 -0.2070 -0.3277 -0.2858
11190TIP3    H255062   5.228   3.576  13.216  0.3049 -0.2631 -0.0192
11191TIP3   OH255063   0.170   5.450  15.952  0.3239  0.1341 -0.4587
11191TIP3    H155064   0.218   5.399  15.886 -1.4025 -0.7607 -1.0815
11191TIP3    H255065   0.157   5.389  16.025  2.4881  1.2179  0.8527
11192TIP3   OH255066   4.544   2.375   5.748  0.7893  0.5242 -0.0527
11192TIP3    H155067   4.545   2.380   5.844  1.5529  1.3420 -0.0944
11192TIP3    H255068   4.636   2.361   5.724  0.5352 -0.1348 -0.6421
11193TIP3   OH255069   0.178   5.021  12.691 -0.0386  0.0324  1.0810
11193TIP3    H155070   0.189   5.116  12.684  1.8224 -0.2296 -0.0008
11193TIP3    H255071   0.093   5.009  12.732  0.0108  2.1815  1.8358
11194TIP3   OH255072   1.702   4.687   0.202 -0.0261  0.4066  0.4659
11194TIP3    H155073   1.684   4.618   0.137  1.2399 -1.0730  1.6435
11194TIP3    H255074   1.619   4.698   0.248 -0.2806 -0.2403  0.1795
11195TIP3   OH255075   1.224   3.200  12.384  0.5534 -0.1335  0.5117
11195TIP3    H155076   1.312   3.184  12.418 -0.7568 -2.4798  2.9771
11195TIP3    H255077   1.189   3.269  12.441 -0.1173 -1.0564  1.2348
11196TIP3   OH255078   4.787   2.470   5.554  0.2052  0.2652  0.1015
11196TIP3    H155079   4.730   2.547   5.555  0.1992  0.2487  0.8549
11196TIP3    H255080   4.863   2.497   5.502  0.1036  0.7059  0.1823
11197TIP3   OH255081   3.506   4.665  15.030 -0.2844  0.0608  0.7969
11197TIP3    H155082   3.455   4.593  14.992 -0.9122  0.1922  1.3746
11197TIP3    H255083   3.570   4.688  14.963 -0.3511 -0.7654  0.4471
11198TIP3   OH255084   4.763   3.983  17.003  0.3863 -0.4669 -0.3186
11198TIP3    H155085   4.765   4.053  17.068  1.2767 -2.0443  1.4083
11198TIP3    H255086   4.848   3.990  16.958  1.0472 -1.2782  0.7884
11199TIP3   OH255087   0.042   6.126   5.399  0.5430  0.3397  0.9219
11199TIP3    H155088  -0.046   6.114   5.436 -1.2431  0.7132 -2.8645
11199TIP3    H255089   0.041   6.072   5.320  2.9492  2.1238 -0.3893
11200TIP3   OH255090   2.568   0.756  16.464  0.6470  0.4532 -0.0370
11200TIP3    H155091   2.651   0.751  16.416  0.2121 -1.6987 -0.6405
11200TIP3    H255092   2.505   0.713  16.406 -0.4934  0.4631  1.1932
11201TIP3   OH255093   4.863   3.492   0.902  0.1365 -0.7198  0.5280
11201TIP3    H155094   4.785   3.481   0.847  1.0364 -3.0834 -0.3524
11201TIP3    H255095   4.834   3.464   0.989 -0.6917  0.9153  0.7950
11202TIP3   OH255096   0.401   3.361  15.459  0.4198 -0.4382 -0.0548
11202TIP3    H155097   0.435   3.444  15.492  2.3511 -0.1975 -2.5440
11202TIP3    H255098   0.476   3.317  15.419 -0.9884 -2.5071 -0.5548
11203TIP3   OH255099   0.805   2.030   1.377 -0.0495  0.3388  0.1574
11203TIP3    H155100   0.760   2.114   1.370  1.3108  1.1811  1.1895
11203TIP3    H255101   0.777   1.981   1.299  0.4260  2.3939 -1.3667
11204TIP3   OH255102   5.436   4.088   5.480  0.4555  0.0152  0.0107
11204TIP3    H155103   5.514   4.111   5.430 -0.0259  1.2006 -0.2133
11204TIP3    H255104   5.453   4.122   5.568 -0.6330  2.1039 -0.5508
11205TIP3   OH255105   6.349   6.475  11.729  0.2123 -0.0474  0.0687
11205TIP3    H155106   6.403   6.464  11.807  0.2833 -0.0111  0.0241
11205TIP3    H255107   6.412   6.478  11.657  0.0821 -1.3836 -0.1188
11206TIP3   OH255108   0.222   1.655  11.987 -0.0953 -0.5982  0.4476
11206TIP3    H155109   0.280   1.590  12.025 -0.4733  0.9358  3.8210
11206TIP3    H255110   0.252   1.739  12.023 -2.5358  0.5653 -0.0834
11207TIP3   OH255111   2.854   6.576  12.112  0.2859  0.5824 -0.3537
11207TIP3    H155112   2.868   6.639  12.041  0.2220 -0.0843 -0.9680
11207TIP3    H255113   2.815   6.627  12.182 -0.5389  1.0567 -1.1468
11208TIP3   OH255114   1.929   4.598  11.309  0.1264 -0.4710  0.4784
11208TIP3    H155115   1.990   4.583  11.382  1.1530 -0.5737 -0.4028
11208TIP3    H255116   1.915   4.693  11.309  0.2206 -0.4552  0.7231
11209TIP3   OH255117   5.113   4.085  15.979 -0.9063  0.1646  0.0826
11209TIP3    H155118   5.198   4.041  15.975  0.0772  1.9314  1.0773
11209TIP3    H255119   5.088   4.081  16.072 -1.1910  0.9846  0.0428
11210TIP3   OH255120   1.911   3.584  13.300 -0.1147  0.2755 -0.1549
11210TIP3    H155121   1.834   3.527  13.311  0.3774 -0.3526  0.0802
11210TIP3    H255122   1.879   3.657  13.246 -0.9287  0.1333  0.1286
11211TIP3   OH255123   1.793   3.583   0.118  0.0099 -0.6706 -0.0415
11211TIP3    H155124   1.733   3.594   0.191  1.5769  0.7658  1.0637
11211TIP3    H255125   1.794   3.668   0.074  1.0261 -0.7687 -0.2184
11212TIP3   OH255126   2.368   3.444   0.950  0.7070  0.8802  0.3750
11212TIP3    H155127   2.313   3.366   0.948  0.4994  1.0232  0.4257
11212TIP3    H255128   2.384   3.460   1.043  1.3345  0.4893  0.3297
11213TIP3   OH255129   3.852   3.329  15.152 -0.1154  1.0486  0.7420
11213TIP3    H155130   3.829   3.365  15.238 -2.4912  0.7861  0.2668
11213TIP3    H255131   3.868   3.236  15.168 -0.0026  1.1089  0.9847
11214TIP3   OH255132   6.628   1.235   4.368  0.7384  0.5650  0.1998
11214TIP3    H155133   6.713   1.222   4.325  1.1680 -2.8812  1.8937
11214TIP3    H255134   6.566   1.187   4.313  0.4533  0.3954  0.6648
11215TIP3   OH255135   0.034   5.029   3.583 -0.0590  0.1579  0.3824
11215TIP3    H155136   0.041   4.942   3.620 -0.1465  1.0742  2.6264
11215TIP3    H255137   0.085   5.085   3.642 -1.8245  1.9865  0.2508
11216TIP3   OH255138   3.533   1.847   0.121  0.4109 -0.7601  0.7142
11216TIP3    H155139   3.614   1.896   0.108  1.1010 -1.2700  3.0108
11216TIP3    H255140   3.561   1.757   0.136 -0.6142 -1.0317  1.0378
11217TIP3   OH255141   3.733   4.226  16.360  0.4180 -0.3812  0.3837
11217TIP3    H155142   3.802   4.284  16.391 -0.2927 -0.1697  1.5945
11217TIP3    H255143   3.661   4.285  16.336  0.5332 -0.6205 -0.5822
11218TIP3   OH255144   3.941   2.868  15.791  0.6623  0.0468  0.3801
11218TIP3    H155145   3.931   2.884  15.697 -0.1705 -0.4244  0.3739
11218TIP3    H255146   3.996   2.939  15.822 -0.1669  0.9817 -0.2309
11219TIP3   OH255147   6.045   1.484  11.967 -0.0369 -0.2228 -0.2151
11219TIP3    H155148   5.999   1.499  11.884  0.5192  3.1151 -0.0080
11219TIP3    H255149   6.134   1.515  11.949 -0.1385  1.3470  1.8439
11220TIP3   OH255150   4.759   4.640   0.610 -0.2461  0.4584  0.0205
11220TIP3    H155151   4.831   4.694   0.579 -1.5978  2.3048 -0.0231
11220TIP3    H255152   4.770   4.637   0.705  0.4433 -0.1110 -0.0723
11221TIP3   OH255153   0.832   1.017  15.543 -0.6590  0.7152 -0.3395
11221TIP3    H155154   0.875   1.056  15.468 -0.0513  0.2816 -0.2178
11221TIP3    H255155   0.751   0.980  15.508  0.1877 -0.5459 -1.0113
11222TIP3   OH255156   0.269   0.727  12.482 -0.0467  0.1759 -0.4269
11222TIP3    H155157   0.333   0.676  12.532  0.0817  0.4776 -0.2814
11222TIP3    H255158   0.282   0.700  12.391  1.0481  1.0491 -0.5422
11223TIP3   OH255159   2.608   5.457  15.973  0.1992  0.3011  0.2185
11223TIP3    H155160   2.515   5.456  15.994 -0.0541 -1.1712 -0.8791
11223TIP3    H255161   2.616   5.400  15.896  1.9174  0.8888 -0.0628
11224TIP3   OH255162   6.461   2.467  12.270  0.5931  0.0562  0.4630
11224TIP3    H155163   6.373   2.502  12.255  0.0985 -0.4722  2.0423
11224TIP3    H255164   6.447   2.376  12.298  1.6634 -0.1933  0.2212
11225TIP3   OH255165   6.152   2.222   0.387 -0.6883  0.3616  0.2730
11225TIP3    H155166   6.155   2.141   0.439 -0.7018 -0.7014 -1.3638
11225TIP3    H255167   6.235   2.266   0.408  0.1906 -0.9968 -0.2876
11226TIP3   OH255168   6.470   5.289  14.966 -0.0767 -0.2491  0.3383
11226TIP3    H155169   6.450   5.382  14.971 -1.7757 -0.5412 -0.5134
11226TIP3    H255170   6.489   5.263  15.056  0.6201  0.9571  0.5409
11227TIP3   OH255171   0.188   4.644  14.242 -0.4706 -0.6803 -0.0222
11227TIP3    H155172   0.222   4.639  14.332  1.1161  2.1258 -0.3972
11227TIP3    H255173   0.096   4.668  14.252  0.1281  1.3167  0.8334
11228TIP3   OH255174   1.064   3.508   4.153 -1.0020  0.2245 -0.7479
11228TIP3    H155175   1.051   3.602   4.160  1.7167  0.5538  0.6948
11228TIP3    H255176   1.075   3.478   4.243  1.9353 -0.8273 -1.3954
11229TIP3   OH255177   6.599   5.270  12.776  0.3348 -0.4311  0.3853
11229TIP3    H155178   6.507   5.283  12.751  1.2465  1.0401 -2.4343
11229TIP3    H255179   6.647   5.330  12.720  3.0561 -1.2189  1.8153
11230TIP3   OH255180   3.927   1.809  15.595  0.1765  0.0136  0.3658
11230TIP3    H155181   3.924   1.721  15.632 -0.4309 -0.5134 -0.9077
11230TIP3    H255182   3.900   1.866  15.667  1.2603 -0.7605  1.4115
11231TIP3   OH255183   3.344   4.999  14.904  0.4420  0.3925  0.0815
11231TIP3    H155184   3.343   4.926  14.967  0.5402  0.1772 -0.1678
11231TIP3    H255185   3.304   4.963  14.825  0.3568  0.6539  0.0044
11232TIP3   OH255186   4.609   0.070  15.453 -0.3392  0.0580 -0.3098
11232TIP3    H155187   4.703   0.081  15.438 -0.2631 -1.9879 -1.5222
11232TIP3    H255188   4.603   0.044  15.545  0.4140 -0.9477 -0.5285
11233TIP3   OH255189   4.999   2.959   2.614 -0.1182 -0.0517 -0.1204
11233TIP3    H155190   4.906   2.951   2.634 -0.1373  0.9392  0.2120
11233TIP3    H255191   5.003   3.029   2.548  0.3694 -0.2230 -0.2708
11234TIP3   OH255192   3.263   2.908   6.099  0.2491 -0.6174 -0.3241
11234TIP3    H155193   3.340   2.920   6.155 -1.1569  0.1811  1.4962
11234TIP3    H255194   3.203   2.854   6.150 -1.2426  0.4720 -0.8687
11235TIP3   OH255195   6.748   0.400   2.200 -0.2461 -0.1077 -0.1578
11235TIP3    H155196   6.755   0.345   2.122 -1.6781 -0.9531  0.2974
11235TIP3    H255197   6.660   0.436   2.197  0.0787  0.7723  0.4818
11236TIP3   OH255198   5.138   2.243  12.990  0.1268 -0.2190 -0.3566
11236TIP3    H155199   5.193   2.293  13.051  0.3191  0.2494 -0.9110
11236TIP3    H255200   5.201   2.197  12.934  0.0004  1.8785 -2.2967
11237TIP3   OH255201   4.918   4.576   2.917  0.3638  0.2237 -0.6809
11237TIP3    H155202   4.835   4.559   2.960 -0.6628  1.5170 -2.0979
11237TIP3    H255203   4.927   4.672   2.918  2.7906  0.0304  1.2024
11238TIP3   OH255204   6.289   5.061  12.120 -0.4629 -0.3220  0.4402
11238TIP3    H155205   6.337   5.113  12.185 -1.4831  0.0019  0.9523
11238TIP3    H255206   6.283   4.974  12.159 -0.0873 -0.4279  0.2672
11239TIP3   OH255207   6.589   3.060   2.726 -0.4392 -0.4482 -0.0318
11239TIP3    H155208   6.549   3.116   2.660 -1.3788 -0.4888  0.4938
11239TIP3    H255209   6.620   2.983   2.677 -1.4916 -0.6610 -0.3706
11240TIP3   OH255210   5.264   3.303  14.695 -0.0318 -0.5012  0.7067
11240TIP3    H155211   5.328   3.275  14.629  0.6725 -0.5394  1.3987
11240TIP3    H255212   5.291   3.392  14.719 -0.8656 -0.1233  0.2340
11241TIP3   OH255213   4.709   2.660  12.584  0.7064 -0.2002  0.1663
11241TIP3    H155214   4.667   2.742  12.609 -0.7027 -0.8675  0.0806
11241TIP3    H255215   4.755   2.680  12.502 -0.5036  0.2481 -0.4113
11242TIP3   OH255216   2.581   4.365   3.793  1.1024 -0.2480  0.4082
11242TIP3    H155217   2.621   4.451   3.804 -0.1868  0.4124  0.0291
11242TIP3    H255218   2.541   4.369   3.706  2.4141 -1.8034 -0.3042
11243TIP3   OH255219   3.627   5.902   0.597  0.0180  0.5695  0.3280
11243TIP3    H155220   3.574   5.961   0.651  0.6172  1.6686 -0.2874
11243TIP3    H255221   3.567   5.830   0.577 -0.0324 -0.2090  2.9859
11244TIP3   OH255222   3.862   0.118   5.048 -0.5094 -0.5682 -0.5800
11244TIP3    H155223   3.770   0.105   5.024 -0.6626  0.0686 -0.3506
11244TIP3    H255224   3.910   0.106   4.967 -0.8470 -0.3876 -0.8071
11245TIP3   OH255225   2.318   3.152  11.313  0.1437 -0.2013 -0.2830
11245TIP3    H155226   2.353   3.064  11.330 -0.5072 -0.7895 -1.9563
11245TIP3    H255227   2.332   3.166  11.220 -2.2159  0.3740 -0.5874
11246TIP3   OH255228   6.472   0.864   3.774 -0.4967 -0.2395  0.3685
11246TIP3    H155229   6.501   0.953   3.797 -1.2088 -0.0272  0.4618
11246TIP3    H255230   6.447   0.871   3.682 -1.5167 -0.0923  0.6513
11247TIP3   OH255231   3.089   6.740   1.947  0.5360 -0.2349 -0.3706
11247TIP3    H155232   3.179   6.711   1.964  0.3967  0.2207  1.1968
11247TIP3    H255233   3.035   6.690   2.008 -0.2638 -0.3628 -1.1666
11248TIP3   OH255234   2.564   2.485   0.497 -0.3360  0.0133  0.2732
11248TIP3    H155235   2.652   2.499   0.462  0.1453  0.9693  1.7939
11248TIP3    H255236   2.547   2.392   0.483  0.3275  0.1242 -1.3308
11249TIP3   OH255237   1.790   5.233  15.942  0.1623 -0.6506 -0.3602
11249TIP3    H155238   1.742   5.315  15.928 -0.7392 -1.1860 -0.4841
11249TIP3    H255239   1.877   5.260  15.969 -0.1088  0.3527 -0.4708
11250TIP3   OH255240   2.389   6.513  16.307  0.0327 -0.3966 -0.9595
11250TIP3    H155241   2.423   6.431  16.343 -0.3069 -0.6572 -1.2241
11250TIP3    H255242   2.441   6.582  16.350 -0.7447 -0.6718  0.4612
11251TIP3   OH255243   5.834   2.693  14.142 -0.0441  0.5207 -0.3355
11251TIP3    H155244   5.890   2.632  14.190 -2.2977 -1.0548  0.3473
11251TIP3    H255245   5.847   2.777  14.188 -0.1812 -0.3891  1.4273
11252TIP3   OH255246   4.915   5.632   2.330  0.1305 -0.2797  0.0130
11252TIP3    H155247   4.923   5.667   2.241  2.0957  2.8106  1.2872
11252TIP3    H255248   4.998   5.587   2.345  0.4850  0.6067  0.7888
11253TIP3   OH255249   2.113   5.405  12.276 -0.3872  0.2408 -0.4328
11253TIP3    H155250   2.124   5.496  12.249  2.8217 -0.3717 -1.3437
11253TIP3    H255251   2.165   5.397  12.356 -0.4608 -0.8731 -0.4857
11254TIP3   OH255252   2.206   3.947   2.885  0.2475 -0.6912  0.4283
11254TIP3    H155253   2.249   3.866   2.859  1.6833  0.2213 -0.1337
11254TIP3    H255254   2.125   3.949   2.834  0.9337 -1.0506 -0.7003
11255TIP3   OH255255   4.500   3.257  11.651  0.1255  0.3912  0.0662
11255TIP3    H155256   4.454   3.274  11.569 -1.9455  0.1041  1.1384
11255TIP3    H255257   4.432   3.262  11.718  1.5059 -0.9791  1.6028
11256TIP3   OH255258   4.981   3.364   3.625  0.4841  0.3249  0.2996
11256TIP3    H155259   5.039   3.438   3.644 -1.0090  1.2814  1.3011
11256TIP3    H255260   4.910   3.373   3.689 -1.6060  0.1284 -1.9215
11257TIP3   OH255261   4.594   3.801  16.028 -0.1110  0.2294 -0.2274
11257TIP3    H155262   4.657   3.801  15.955  0.1266  1.4930 -0.0499
11257TIP3    H255263   4.526   3.862  16.000  0.0796  0.8706  0.6832
11258TIP3   OH255264   6.246   2.375  13.850  0.5019 -0.4316  0.2865
11258TIP3    H155265   6.292   2.404  13.929 -1.4283  1.6767  0.6870
11258TIP3    H255266   6.307   2.392  13.778  1.2766  0.0275  1.0530
11259TIP3   OH255267   4.938   5.893  15.612  1.0631 -0.3359  0.1041
11259TIP3    H155268   4.851   5.907  15.648  0.7052 -0.6463 -0.6317
11259TIP3    H255269   4.926   5.826  15.545  1.8945 -0.5006  0.1125
11260TIP3   OH255270   4.066   6.200   5.580 -0.2721 -0.4634 -0.2383
11260TIP3    H155271   4.101   6.222   5.667 -0.2400  0.0942 -0.3910
11260TIP3    H255272   4.007   6.272   5.559  0.5078 -0.0746 -1.1234
11261TIP3   OH255273   3.644   1.462   0.494  0.0432 -0.4503  0.4199
11261TIP3    H155274   3.639   1.535   0.556  1.7731  0.1984 -0.1650
11261TIP3    H255275   3.707   1.401   0.534  0.4138 -0.4907 -0.2191
11262TIP3   OH255276   6.706   0.730   2.591 -0.0945 -0.5601  0.3761
11262TIP3    H155277   6.708   0.672   2.667 -4.1414  0.7247  1.5985
11262TIP3    H255278   6.753   0.808   2.619  0.4514 -1.0048  0.7121
11263TIP3   OH255279   5.584   5.138   4.891  0.0677 -0.0699 -0.5798
11263TIP3    H155280   5.575   5.045   4.872  1.2632 -0.5138  0.9481
11263TIP3    H255281   5.575   5.181   4.806  0.0606 -1.6166 -1.3714
11264TIP3   OH255282   2.276   1.515  12.843  0.0100 -0.1114 -0.3969
11264TIP3    H155283   2.289   1.484  12.933  0.2358 -0.5975 -0.5933
11264TIP3    H255284   2.306   1.443  12.789  0.6510  0.5004 -0.8663
11265TIP3   OH255285   4.638   2.525   1.105 -0.1942 -0.2355 -0.6271
11265TIP3    H155286   4.662   2.436   1.080  1.7319 -0.2421  1.1247
11265TIP3    H255287   4.722   2.572   1.109 -0.9468  1.0096  0.9735
11266TIP3   OH255288   4.785   0.913  14.293  0.4807 -0.2290  0.1452
11266TIP3    H155289   4.766   0.967  14.216  0.2607 -0.5657 -0.0374
11266TIP3    H255290   4.777   0.823  14.262  1.7226 -0.3800  0.2290
11267TIP3   OH255291   2.003   1.557   4.317  0.7772  0.5578 -0.6337
11267TIP3    H155292   1.936   1.555   4.250 -1.9872  0.3742  2.0180
11267TIP3    H255293   2.017   1.465   4.340 -0.9497  0.7912  1.5137
11268TIP3   OH255294   6.615   1.751  16.635  0.5762  1.0890  0.3771
11268TIP3    H155295   6.686   1.812  16.613  0.8404  0.9785  0.9105
11268TIP3    H255296   6.652   1.664  16.616 -0.2749  1.1399 -1.7289
11269TIP3   OH255297   6.620   6.252   0.151  0.0421  0.2674 -0.7110
11269TIP3    H155298   6.574   6.178   0.113  0.1459 -0.4870  0.6110
11269TIP3    H255299   6.701   6.215   0.186  0.1877  1.0281 -0.2282
11270TIP3   OH255300   0.555   5.943   5.915 -0.2461  0.5774 -0.4663
11270TIP3    H155301   0.539   5.972   5.825 -1.9887 -0.8880 -0.6520
11270TIP3    H255302   0.538   5.849   5.914  2.3310  0.0539  0.8269
11271TIP3   OH255303   1.500   4.850  11.961 -0.0930  0.1142  0.1510
11271TIP3    H155304   1.457   4.889  11.885 -0.2712 -1.4368 -0.5705
11271TIP3    H255305   1.431   4.846  12.027  0.6118  3.4612  1.1764
11272TIP3   OH255306   2.518   6.471  14.002  0.2851  0.1957 -0.5682
11272TIP3    H155307   2.595   6.512  14.042 -0.2302  2.5429 -1.8685
11272TIP3    H255308   2.448   6.482  14.066  0.0097  1.9084 -1.1502
11273TIP3   OH255309   1.549   4.270   6.253  0.3727 -0.2513  0.1310
11273TIP3    H155310   1.629   4.246   6.299  0.5399 -2.4868 -1.2380
11273TIP3    H255311   1.481   4.215   6.294 -0.1598  0.4198  0.1630
11274TIP3   OH255312   3.767   2.191   5.934  0.0852  0.3585  0.7682
11274TIP3    H155313   3.813   2.275   5.932 -1.3707  1.1502 -1.7467
11274TIP3    H255314   3.719   2.192   6.018  2.5987  0.5827  2.2513
11275TIP3   OH255315   2.007   4.183  12.941 -0.1144  0.0873 -0.2135
11275TIP3    H155316   2.038   4.166  13.030 -0.4935 -1.5566 -0.3693
11275TIP3    H255317   2.072   4.241  12.903  1.3232 -1.1259  0.3571
11276TIP3   OH255318   3.114   6.254   3.159 -0.1911  0.7272 -0.1020
11276TIP3    H155319   3.063   6.218   3.087 -0.8433 -1.0667  1.2107
11276TIP3    H255320   3.195   6.203   3.159 -1.1182 -0.8348  1.7723
11277TIP3   OH255321   6.156   0.250   2.878 -0.6462  0.2684 -0.3407
11277TIP3    H155322   6.108   0.254   2.796 -0.0658  0.7412 -0.6675
11277TIP3    H255323   6.149   0.338   2.914  1.7226  0.9313 -1.4200
11278TIP3   OH255324   0.232   4.435  15.673  0.4076  0.0116  0.2573
11278TIP3    H155325   0.198   4.509  15.724  0.4363  0.9265 -1.0191
11278TIP3    H255326   0.155   4.399  15.629  0.4258 -0.6055  0.7211
11279TIP3   OH255327   1.610   2.531   3.355 -0.1567  0.1349 -0.0465
11279TIP3    H155328   1.575   2.444   3.373  0.5954 -0.2953 -0.5916
11279TIP3    H255329   1.614   2.536   3.259  2.5433 -0.3864 -0.0110
11280TIP3   OH255330   5.162   5.749   4.026  0.2956 -0.1490  0.1180
11280TIP3    H155331   5.194   5.769   3.938  1.1540 -2.0367 -0.0275
11280TIP3    H255332   5.214   5.804   4.084  1.7257 -0.9752 -0.3566
11281TIP3   OH255333   3.288   0.507  17.078 -0.0562 -0.2158  0.1948
11281TIP3    H155334   3.305   0.414  17.095  0.0556 -0.2649 -0.1843
11281TIP3    H255335   3.373   0.549  17.094 -0.3142 -0.0652  1.1860
11282TIP3   OH255336   1.507   3.038   2.027  0.1594  0.4626 -0.3149
11282TIP3    H155337   1.577   3.060   2.088 -0.8994  3.1110  0.0197
11282TIP3    H255338   1.434   3.013   2.084 -0.1326  0.7765 -0.5483
11283TIP3   OH255339   0.119   3.083  14.016 -0.6455  0.0880 -0.5789
11283TIP3    H155340   0.100   3.037  13.934  1.9671 -0.9038 -0.6719
11283TIP3    H255341   0.172   3.022  14.066  0.8726  2.0890  0.3160
11284TIP3   OH255342   2.714   1.947   2.722 -0.3623 -0.0857  0.7005
11284TIP3    H155343   2.711   1.892   2.801  1.6306  0.7842  1.4203
11284TIP3    H255344   2.792   2.001   2.733 -0.6345  0.8018 -1.4018
11285TIP3   OH255345   0.984   5.479   3.005 -0.1979 -0.1587 -0.1252
11285TIP3    H155346   0.939   5.535   3.067 -0.1694  0.4278 -0.6308
11285TIP3    H255347   1.063   5.527   2.980 -0.4551 -0.1623 -0.9825
11286TIP3   OH255348   2.889   1.578  14.135  0.1937  0.1999  0.3771
11286TIP3    H155349   2.937   1.658  14.113 -0.0710  1.3453  3.6907
11286TIP3    H255350   2.947   1.531  14.195 -1.5974  0.2302  2.1793
11287TIP3   OH255351   3.166   6.538  14.571 -0.1023 -0.3293  0.0028
11287TIP3    H155352   3.212   6.621  14.562  0.9414 -0.4556  3.4691
11287TIP3    H255353   3.073   6.561  14.577 -0.0572  0.3427 -1.8746
11288TIP3   OH255354   3.645   6.261  13.083  0.0658 -0.2702  0.1058
11288TIP3    H155355   3.674   6.296  13.167  0.4786 -0.1018 -0.1067
11288TIP3    H255356   3.633   6.168  13.100  1.7234 -0.5393 -0.0567
11289TIP3   OH255357   3.141   2.782  15.419 -0.3015  0.1125 -0.3334
11289TIP3    H155358   3.220   2.820  15.457 -1.0272  0.4049  0.9391
11289TIP3    H255359   3.145   2.806  15.327  1.8711 -1.2368 -0.6135
11290TIP3   OH255360   3.440   5.007   2.327  0.1493  0.1826  0.1515
11290TIP3    H155361   3.429   5.057   2.408 -0.6366  0.9639 -0.4282
11290TIP3    H255362   3.446   4.916   2.356 -1.6186  0.3101  1.0186
11291TIP3   OH255363   0.633   5.228   4.543  0.8203  0.9014  0.3395
11291TIP3    H155364   0.706   5.254   4.487  1.2275  2.3187  1.4853
11291TIP3    H255365   0.572   5.302   4.538  0.8306  1.0079  1.7044
11292TIP3   OH255366   5.268   0.802   2.168 -0.0618  0.1915  0.3173
11292TIP3    H155367   5.239   0.768   2.253 -0.6845  0.2723  0.1397
11292TIP3    H255368   5.266   0.897   2.178  1.2414  0.1995  0.6643
11293TIP3   OH255369   0.307   3.887   0.609  0.0221 -0.0394 -0.3868
11293TIP3    H155370   0.258   3.861   0.687 -1.0207  1.9493 -0.3315
11293TIP3    H255371   0.354   3.966   0.636  0.0089  0.3986 -1.6283
11294TIP3   OH255372   6.456   4.748   0.332  0.0455 -0.6530  0.2363
11294TIP3    H155373   6.429   4.840   0.339 -0.1156 -0.6336 -0.6059
11294TIP3    H255374   6.374   4.699   0.330  0.0882 -0.6848 -1.0695
11295TIP3   OH255375   1.309   1.045  16.032  0.0830 -0.4731 -0.6920
11295TIP3    H155376   1.306   1.140  16.024  0.6704 -0.4361 -0.4261
11295TIP3    H255377   1.231   1.015  15.984  0.5362  0.0730 -1.7993
11296TIP3   OH255378   0.810   5.133   5.406  0.2231 -0.0892  0.1509
11296TIP3    H155379   0.794   5.196   5.336  0.1148 -0.6722 -0.3466
11296TIP3    H255380   0.725   5.125   5.451  0.5033  0.9246  0.8846
11297TIP3   OH255381   5.286   0.040   1.161 -0.1598  0.1724  0.1648
11297TIP3    H155382   5.311   0.132   1.155  1.9768 -0.4603 -1.4118
11297TIP3    H255383   5.247   0.019   1.077  1.0588 -0.7944 -0.1937
11298TIP3   OH255384   6.281   0.267  10.989  0.4251  0.6914  0.2026
11298TIP3    H155385   6.260   0.354  10.956  2.5489  0.8554 -0.7580
11298TIP3    H255386   6.206   0.214  10.963 -1.0664  2.2895  1.1249
11299TIP3   OH255387   2.360   4.362   3.245 -1.1979  0.8472 -0.6643
11299TIP3    H155388   2.421   4.346   3.173 -0.0501 -1.0081  0.6956
11299TIP3    H255389   2.274   4.337   3.210 -0.7857  0.8017 -1.6563
11300TIP3   OH255390   5.751   1.871   6.623  0.1724  0.0858  0.0791
11300TIP3    H155391   5.743   1.814   6.546  1.2915 -0.1996  0.1580
11300TIP3    H255392   5.807   1.821   6.683  2.4291  1.8984 -0.4612
11301TIP3   OH255393   6.185   2.658   2.714 -0.0049  0.2598  0.8325
11301TIP3    H155394   6.232   2.681   2.634  0.9958  0.0685  1.3619
11301TIP3    H255395   6.202   2.730   2.774 -0.7547  0.3992  0.8933
11302TIP3   OH255396   1.285   5.433  10.685 -0.2415  0.6567 -0.1526
11302TIP3    H155397   1.224   5.501  10.713  1.1138  2.2851 -1.0312
11302TIP3    H255398   1.364   5.450  10.736 -0.3756 -1.1698  0.6724
11303TIP3   OH255399   3.325   5.532  15.421 -0.0141  0.1440 -0.9049
11303TIP3    H155400   3.415   5.560  15.406  0.2454 -0.7610 -1.0923
11303TIP3    H255401   3.329   5.479  15.501 -0.4885  0.6167 -0.5652
11304TIP3   OH255402   3.712   3.554  12.343 -0.1718  0.5255 -0.4412
11304TIP3    H155403   3.685   3.613  12.413  0.8799  1.2775 -0.6630
11304TIP3    H255404   3.671   3.470  12.365  0.7299  0.5669  1.4265
11305TIP3   OH255405   1.372   2.332  13.056  0.3792  0.4328 -0.6089
11305TIP3    H155406   1.346   2.303  12.969 -1.8016 -1.4732  0.6067
11305TIP3    H255407   1.403   2.253  13.100 -1.2919  0.7599  1.2552
11306TIP3   OH255408   2.128   0.086   3.802 -0.6444 -0.3705 -0.5973
11306TIP3    H155409   2.112   0.179   3.821  0.8792  0.0022 -0.9963
11306TIP3    H255410   2.045   0.043   3.820 -0.8670  0.7957  1.4248
11307TIP3   OH255411   5.863   1.761   5.270  0.8264  0.1270 -0.1373
11307TIP3    H155412   5.828   1.674   5.252  0.2612  0.0679  1.1899
11307TIP3    H255413   5.903   1.788   5.188  1.0714 -1.4158 -0.5374
11308TIP3   OH255414   0.085   4.011   1.144 -0.6407 -0.3210  0.3353
11308TIP3    H155415   0.071   4.028   1.051 -1.6101 -2.1338  0.1286
11308TIP3    H255416  -0.002   3.987   1.177  0.1969 -2.3807  1.1115
11309TIP3   OH255417   0.668   4.929   2.446  0.3810  0.5828 -0.1703
11309TIP3    H155418   0.628   5.014   2.466 -0.0859 -0.0051  1.4712
11309TIP3    H255419   0.627   4.902   2.364 -0.6367  1.2338  0.1135
11310TIP3   OH255420   3.167   0.591   2.679  0.1289  0.5221 -0.9485
11310TIP3    H155421   3.193   0.616   2.768  0.5875 -1.1781 -0.5950
11310TIP3    H255422   3.089   0.538   2.690 -0.4169  1.1783 -1.6413
11311TIP3   OH255423   0.938   6.450   0.450 -0.2326  0.0829  0.5737
11311TIP3    H155424   0.847   6.471   0.429 -0.0454 -0.8673 -1.2431
11311TIP3    H255425   0.945   6.467   0.544 -2.7537 -1.5000  1.1004
11312TIP3   OH255426   2.970   1.504   5.316  0.0630 -0.2328 -0.6146
11312TIP3    H155427   2.935   1.555   5.389 -1.6570 -2.5955  0.2897
11312TIP3    H255428   3.021   1.567   5.264 -0.9120  2.0637  1.1392
11313TIP3   OH255429   0.186   6.302   1.831  0.4082  0.3645  0.0653
11313TIP3    H155430   0.211   6.286   1.922  2.3154 -1.7739 -0.7760
11313TIP3    H255431   0.158   6.216   1.798  0.4526  0.9543 -1.5548
11314TIP3   OH255432   4.913   4.626  10.844 -0.5892 -0.0862  0.3663
11314TIP3    H155433   4.842   4.582  10.891 -0.0780 -3.4418 -1.8877
11314TIP3    H255434   4.892   4.616  10.752  1.4837  1.1623 -0.2907
11315TIP3   OH255435   3.013   0.094   1.141  0.1801 -0.2091  0.9298
11315TIP3    H155436   3.070   0.085   1.064 -0.3287  1.0212  0.4104
11315TIP3    H255437   3.074   0.101   1.215  0.7268  1.5425  0.3296
11316TIP3   OH255438   4.171   5.094   2.442  0.4501 -0.0972 -0.4895
11316TIP3    H155439   4.141   5.185   2.443  0.0927 -0.2103  0.1532
11316TIP3    H255440   4.252   5.095   2.392  0.0800  0.4590 -1.0796
11317TIP3   OH255441   0.376   2.876  15.735 -0.2745  0.1097  0.3382
11317TIP3    H155442   0.471   2.883  15.741 -0.4533  0.3074  3.7798
11317TIP3    H255443   0.351   2.823  15.811 -2.9511  0.2229 -0.4071
11318TIP3   OH255444   2.940   0.871   0.525  0.2954  0.3922  0.0487
11318TIP3    H155445   2.895   0.798   0.568  0.3492 -0.0738 -0.6859
11318TIP3    H255446   3.033   0.847   0.526  0.4603  1.0235  0.9162
11319TIP3   OH255447   5.766   5.914  14.581  0.1608  0.3685  0.1806
11319TIP3    H155448   5.815   5.933  14.501 -2.2599 -0.0141 -1.4427
11319TIP3    H255449   5.776   5.992  14.635  0.7901  1.1159 -1.0184
11320TIP3   OH255450   2.272   3.756   4.257 -0.3311  0.0996  0.1523
11320TIP3    H155451   2.221   3.829   4.222 -0.7188 -1.0835 -1.8647
11320TIP3    H255452   2.207   3.700   4.299  0.1547  1.5893  2.9735
11321TIP3   OH255453   5.619   3.803   5.047 -0.1373  0.1684  0.2593
11321TIP3    H155454   5.532   3.787   5.010 -1.5937  2.5296  2.4759
11321TIP3    H255455   5.654   3.876   4.996 -0.6519  1.0567  1.1528
11322TIP3   OH255456   1.499   2.814   1.905 -0.0206 -0.2229  0.0339
11322TIP3    H155457   1.438   2.804   1.832 -0.8837 -0.7346  0.8198
11322TIP3    H255458   1.483   2.903   1.937 -1.5659 -0.9427  1.3122
11323TIP3   OH255459   4.236   5.774  14.223  0.1510  0.3177 -0.2929
11323TIP3    H155460   4.183   5.810  14.294  0.5480 -0.3864  0.3757
11323TIP3    H255461   4.326   5.784  14.254  0.4136  1.3707 -1.3492
11324TIP3   OH255462   4.174   0.503   2.541  0.2808  0.6560  0.1932
11324TIP3    H155463   4.233   0.578   2.547  0.3175  0.6684 -0.3016
11324TIP3    H255464   4.225   0.429   2.576  1.1473  0.3475 -1.6901
11325TIP3   OH255465   4.883   6.450   4.520  0.2328  0.0730 -0.2673
11325TIP3    H155466   4.938   6.387   4.473 -1.7779 -2.8600  1.1497
11325TIP3    H255467   4.927   6.534   4.507  4.5375 -1.9887  0.0429
11326TIP3   OH255468   6.610   3.171  16.378 -0.3565 -0.0125  0.2573
11326TIP3    H155469   6.669   3.096  16.368 -0.7081 -0.5766  2.1200
11326TIP3    H255470   6.523   3.132  16.386 -0.5655  0.6024  1.0037
11327TIP3   OH255471   3.883   4.879   6.369 -0.1509  0.1775 -0.0286
11327TIP3    H155472   3.891   4.963   6.414 -0.7360  0.1337  0.1604
11327TIP3    H255473   3.968   4.867   6.326 -0.0208  0.8052  0.0429
11328TIP3   OH255474   2.581   0.491   3.075 -0.3202  0.1254 -0.3256
11328TIP3    H155475   2.494   0.480   3.113 -0.3597  0.3620 -0.3486
11328TIP3    H255476   2.635   0.426   3.120 -0.8087 -0.9716 -1.2884
11329TIP3   OH255477   0.785   4.731  12.339  0.1724  0.6185  0.5240
11329TIP3    H155478   0.829   4.680  12.407  0.0213  0.3442  0.4181
11329TIP3    H255479   0.789   4.821  12.370  1.6729  0.7282  0.0531
11330TIP3   OH255480   1.749   1.098   4.793 -0.2024  0.0423  0.7890
11330TIP3    H155481   1.786   1.069   4.876 -0.3036 -1.9750  0.1478
11330TIP3    H255482   1.817   1.080   4.728 -0.5336  0.6128  0.2749
11331TIP3   OH255483   0.081   1.059  14.465 -0.0597 -0.4127  0.1709
11331TIP3    H155484   0.161   1.077  14.515 -0.0953  0.9076 -0.2314
11331TIP3    H255485   0.020   1.128  14.492  0.1576  0.7530 -2.2001
11332TIP3   OH255486   2.044   1.375  16.553 -0.1766 -0.0198 -0.2484
11332TIP3    H155487   2.121   1.321  16.531  1.1501  1.8702 -0.3775
11332TIP3    H255488   2.032   1.361  16.647  0.2771 -0.3958 -0.2397
11333TIP3   OH255489   4.048   2.366  12.040 -0.2443  0.2484  0.0653
11333TIP3    H155490   4.081   2.455  12.056  1.0680 -0.3312  0.6215
11333TIP3    H255491   3.956   2.370  12.064  0.3544  0.8752  2.3599
11334TIP3   OH255492   6.337   1.020  15.563  0.2545  0.2342 -0.1344
11334TIP3    H155493   6.349   1.111  15.536 -0.2730 -0.2390 -2.0898
11334TIP3    H255494   6.247   0.999  15.537  0.0136 -0.5196  1.2904
11335TIP3   OH255495   0.190   3.473  11.866  0.3070 -0.0790  0.6908
11335TIP3    H155496   0.166   3.551  11.817  2.2073  0.1655  0.1002
11335TIP3    H255497   0.270   3.498  11.912  1.2943 -1.8720 -0.0073
11336TIP3   OH255498   0.784   1.646   4.102 -0.4128  0.0637 -0.7127
11336TIP3    H155499   0.706   1.593   4.090  0.5345 -1.8687  1.3529
11336TIP3    H255500   0.812   1.669   4.013 -0.1961 -3.8567 -1.7417
11337TIP3   OH255501   6.081   1.760  14.019 -0.0147  0.5181 -0.1485
11337TIP3    H155502   5.997   1.797  13.992 -0.7026 -1.2951 -0.5619
11337TIP3    H255503   6.063   1.717  14.102  0.2099 -0.9132 -0.8252
11338TIP3   OH255504   6.179   4.986  13.131 -0.1480  0.8748 -0.1062
11338TIP3    H155505   6.250   4.995  13.067  0.7757  0.2205  0.7936
11338TIP3    H255506   6.119   5.057  13.111 -0.7316 -0.3049 -2.7740
11339TIP3   OH255507   5.579   2.896   3.612 -0.4369 -0.0690  0.4538
11339TIP3    H155508   5.634   2.962   3.654 -2.2942  0.6376  1.8097
11339TIP3    H255509   5.550   2.840   3.683 -0.3512 -1.2692 -0.4466
11340TIP3   OH255510   0.457   2.075  14.282  0.4264 -0.2215  0.4715
11340TIP3    H155511   0.517   2.139  14.243  1.1135  0.2973  2.3291
11340TIP3    H255512   0.456   2.096  14.375  0.0223 -2.3972  1.0004
11341TIP3   OH255513   6.484   4.766  14.453 -0.0982 -0.5047 -0.1430
11341TIP3    H155514   6.420   4.773  14.524  0.7986  0.5352  0.5921
11341TIP3    H255515   6.512   4.856  14.437  1.0162 -0.9230 -0.6018
11342TIP3   OH255516   4.147   2.311   4.242 -0.3167 -0.1211 -0.1679
11342TIP3    H155517   4.116   2.387   4.192 -0.2305 -0.9403 -1.5077
11342TIP3    H255518   4.087   2.304   4.315  0.5131  2.0869  0.7833
11343TIP3   OH255519   2.293   1.258  12.668  0.5640 -0.6001 -0.8024
11343TIP3    H155520   2.311   1.257  12.574  0.7470 -1.9286 -0.7625
11343TIP3    H255521   2.198   1.260  12.675  0.5400 -1.0474 -1.0128
11344TIP3   OH255522   1.599   6.470   3.971  0.2199 -0.3134  0.3770
11344TIP3    H155523   1.690   6.484   3.944  0.1004 -0.5205 -0.1313
11344TIP3    H255524   1.587   6.531   4.044  0.2377  0.9696 -0.6798
11345TIP3   OH255525   0.094   2.535  15.514  0.3236 -0.5229  0.3781
11345TIP3    H155526   0.107   2.598  15.443 -0.0776 -0.8434  0.0171
11345TIP3    H255527   0.072   2.453  15.471 -2.0440 -0.2064  0.9011
11346TIP3   OH255528   2.438   6.568  14.276  0.0324 -0.1684  0.4101
11346TIP3    H155529   2.351   6.535  14.253  0.3411  0.2725 -1.4641
11346TIP3    H255530   2.425   6.661  14.295 -0.3080 -0.6429  2.5838
11347TIP3   OH255531   4.056   2.822  11.571 -0.2416  0.0073 -0.4207
11347TIP3    H155532   4.128   2.762  11.551 -1.4229 -1.8394  0.7267
11347TIP3    H255533   4.099   2.899  11.609  1.3563  0.2472 -2.5895
11348TIP3   OH255534   1.703   2.174   3.610 -0.4130  0.9797 -0.2218
11348TIP3    H155535   1.774   2.132   3.561 -0.0118  0.8975  0.4130
11348TIP3    H255536   1.672   2.105   3.670  0.0641  1.4949  0.6290
11349TIP3   OH255537   0.158   0.213   1.774 -0.5268  0.3822  0.0139
11349TIP3    H155538   0.178   0.158   1.698 -2.7766  0.9829 -1.0767
11349TIP3    H255539   0.148   0.152   1.847 -1.6887 -0.5355 -0.8980
11350TIP3   OH255540   2.746   5.741  17.064  0.0953 -0.5906  0.1634
11350TIP3    H155541   2.703   5.722  16.980  1.0860  0.8267 -0.6714
11350TIP3    H255542   2.683   5.796  17.110  0.8548  1.2528 -0.9500
11351TIP3   OH255543   0.360   3.186   6.122 -0.1796 -0.0660 -0.8436
11351TIP3    H155544   0.420   3.214   6.192 -0.9041 -0.1274 -0.1844
11351TIP3    H255545   0.413   3.186   6.043  0.7557 -0.3557 -0.2275
11352TIP3   OH255546   1.565   4.531   6.084  0.1344  0.1953  0.1880
11352TIP3    H155547   1.603   4.586   6.153  1.0439  0.3942 -0.4655
11352TIP3    H255548   1.555   4.445   6.125  1.2736  0.1466  0.3693
11353TIP3   OH255549   4.335   0.861  13.314 -0.1326  0.2186 -0.0149
11353TIP3    H155550   4.395   0.793  13.284 -0.2492  0.6482 -1.2453
11353TIP3    H255551   4.251   0.816  13.323 -0.0010 -0.0083  0.0854
11354TIP3   OH255552   5.798   2.249  12.874  0.5287 -0.2055 -0.2704
11354TIP3    H155553   5.864   2.219  12.937  2.0288 -0.4183 -1.9172
11354TIP3    H255554   5.848   2.302  12.811 -1.5361  3.1758  0.8243
11355TIP3   OH255555   1.619   4.716  14.163  0.0531 -0.4071  0.8501
11355TIP3    H155556   1.677   4.642  14.180 -1.5833 -2.1775 -1.0642
11355TIP3    H255557   1.570   4.728  14.244  0.9312 -0.8667  1.4579
11356TIP3   OH255558   6.077   1.424  13.767 -0.3515 -0.5848 -0.2617
11356TIP3    H155559   5.984   1.415  13.789 -0.8886  0.4178 -2.0410
11356TIP3    H255560   6.123   1.387  13.843 -2.1511  1.9871  2.1982
11357TIP3   OH255561   1.563   6.028   4.944  0.1662  0.0814  0.1188
11357TIP3    H155562   1.643   6.071   4.974 -0.2814  1.2683 -0.3221
11357TIP3    H255563   1.566   5.940   4.982  1.1214  0.5005  1.0312
11358TIP3   OH255564   2.580   1.228  16.073 -0.0933 -0.1987 -0.0349
11358TIP3    H155565   2.554   1.165  16.141 -0.7865 -0.3874 -0.4593
11358TIP3    H255566   2.519   1.301  16.083  0.1214 -0.0079 -0.1260
11359TIP3   OH255567   6.138   3.479   0.806  0.4513 -0.0019  0.5734
11359TIP3    H155568   6.223   3.446   0.835  0.0366 -0.5892  1.1139
11359TIP3    H255569   6.123   3.437   0.722 -0.0270 -1.1135  1.2109
11360TIP3   OH255570   4.789   6.032   3.510 -0.1645 -0.0118  0.0418
11360TIP3    H155571   4.870   5.988   3.532 -0.4431  0.0525  1.2572
11360TIP3    H255572   4.813   6.124   3.501 -0.2128  0.1075  1.0701
11361TIP3   OH255573   3.372   4.462  13.389 -0.1008  0.0155 -0.0537
11361TIP3    H155574   3.404   4.521  13.321 -0.8750 -1.5105 -1.7923
11361TIP3    H255575   3.409   4.377  13.367 -1.6675 -0.8313  0.5043
11362TIP3   OH255576   5.112   2.076   0.020 -0.2605 -0.0749 -0.1877
11362TIP3    H155577   5.177   2.032  -0.035  1.4058  0.9935  0.8811
11362TIP3    H255578   5.036   2.018   0.017  1.4959 -2.5198  0.3172
11363TIP3   OH255579   2.725   3.781  13.063  0.2958 -0.5273 -0.5590
11363TIP3    H155580   2.671   3.708  13.092  0.1465 -1.3090 -2.6683
11363TIP3    H255581   2.663   3.848  13.035  0.4273 -0.0627  0.2643
11364TIP3   OH255582   6.630   5.699   3.441  0.0057 -0.0697 -0.2855
11364TIP3    H155583   6.720   5.670   3.424  0.2467  1.0188 -0.9321
11364TIP3    H255584   6.595   5.720   3.354 -0.4575  0.6803  0.0823
11365TIP3   OH255585   2.379   3.951   2.530 -0.1903 -0.2306  0.4092
11365TIP3    H155586   2.313   3.901   2.481 -0.6743  0.6996  0.0939
11365TIP3    H255587   2.358   4.043   2.510 -1.2581  0.2447  3.4465
11366TIP3   OH255588   5.301   4.503  12.537  0.3995 -1.2380  0.1894
11366TIP3    H155589   5.241   4.524  12.609  0.1701 -1.5382  0.0899
11366TIP3    H255590   5.348   4.584  12.520  0.4875 -1.1749  0.7076
11367TIP3   OH255591   4.187   1.490   2.146 -0.1431  0.3551 -0.3108
11367TIP3    H155592   4.225   1.575   2.167 -0.4816  0.7966 -1.4558
11367TIP3    H255593   4.260   1.429   2.152  0.3804  0.9241 -0.7501
11368TIP3   OH255594   2.413   4.904   5.829  0.0457  0.0134 -0.0584
11368TIP3    H155595   2.363   4.957   5.767  0.3191  0.7175  0.3126
11368TIP3    H255596   2.400   4.948   5.914  0.4815 -0.3670  0.2098
11369TIP3   OH255597   2.356   2.195  10.912  0.7562  0.4099  0.2018
11369TIP3    H155598   2.275   2.232  10.876  0.6302 -0.0975 -0.0263
11369TIP3    H255599   2.332   2.168  11.001  0.8769  0.9639  0.4109
11370TIP3   OH255600   2.826   5.542   6.143  0.2231  0.4686  0.0024
11370TIP3    H155601   2.799   5.531   6.052 -1.0764 -0.6353  0.5073
11370TIP3    H255602   2.765   5.606   6.179 -0.1864 -0.1924  0.4882
11371TIP3   OH255603   0.698   6.160   0.705 -0.3316 -0.2120 -0.5514
11371TIP3    H155604   0.621   6.118   0.744 -0.0766  0.6583  0.9197
11371TIP3    H255605   0.671   6.250   0.687  1.1701  0.9289  2.6122
11372TIP3   OH255606   4.294   1.388  14.809  0.6896 -0.1852  0.0960
11372TIP3    H155607   4.302   1.352  14.721  0.9500 -0.3271  0.1747
11372TIP3    H255608   4.234   1.328  14.854  2.1121 -1.2676  0.6025
11373TIP3   OH255609   3.611   5.253  15.889 -0.2915  0.8723  0.2989
11373TIP3    H155610   3.674   5.249  15.818 -1.4872  1.8656 -0.8384
11373TIP3    H255611   3.572   5.340  15.882 -2.2232  0.0591  0.6156
11374TIP3   OH255612   2.187   2.263  16.061 -0.5254  0.3089  0.6699
11374TIP3    H155613   2.177   2.317  16.139 -0.3884  1.8294 -0.3433
11374TIP3    H255614   2.234   2.185  16.092  1.0832  1.6741  1.7739
11375TIP3   OH255615   6.285   4.327  17.010  0.5256 -0.1281 -0.3753
11375TIP3    H155616   6.334   4.345  16.930  1.0938 -2.7967 -0.6661
11375TIP3    H255617   6.282   4.231  17.015 -0.3726  0.0104  2.2571
11376TIP3   OH255618   3.988   2.420   5.349  0.3099 -0.0378 -0.2527
11376TIP3    H155619   4.074   2.384   5.370 -0.0318 -0.7086 -0.0122
11376TIP3    H255620   3.957   2.459   5.430 -0.8790 -2.3688  0.4621
11377TIP3   OH255621   5.551   6.511  11.576 -0.6371 -0.7137  0.1746
11377TIP3    H155622   5.566   6.417  11.570  0.8374 -0.4870  0.3306
11377TIP3    H255623   5.626   6.545  11.624 -0.0012  0.8409 -1.8461
11378TIP3   OH255624   0.136   5.176  15.757  0.7231  0.1143  0.1375
11378TIP3    H155625   0.078   5.105  15.729  0.1548  0.1744  1.1765
11378TIP3    H255626   0.188   5.195  15.679 -1.2336  0.6551 -1.0587
11379TIP3   OH255627   5.937   4.218  15.707  0.4715  0.9552 -0.5106
11379TIP3    H155628   5.959   4.139  15.657  0.0839  0.1014  0.6600
11379TIP3    H255629   6.021   4.247  15.743  0.1848 -0.5325  1.3839
11380TIP3   OH255630   0.916   2.465  12.235 -0.3550 -0.1379  1.0295
11380TIP3    H155631   0.957   2.475  12.149  1.4303  3.0891  2.1739
11380TIP3    H255632   0.970   2.401  12.280 -0.1047 -0.3378  0.4442
11381TIP3   OH255633   4.584   1.723   1.374 -0.1136  0.0030 -0.4761
11381TIP3    H155634   4.632   1.711   1.456  1.5172  1.2960 -1.1919
11381TIP3    H255635   4.518   1.789   1.393  0.0413  0.0526 -0.1225
11382TIP3   OH255636   1.270   1.814  16.723  0.4600 -0.4456  0.5617
11382TIP3    H155637   1.311   1.847  16.643  0.4404 -0.9073  0.3631
11382TIP3    H255638   1.185   1.780  16.694  0.9922 -1.8060  0.5635
11383TIP3   OH255639   5.108   1.699  15.732 -0.2671 -0.1883  0.2406
11383TIP3    H155640   5.106   1.673  15.824 -5.1172 -2.4651 -0.3564
11383TIP3    H255641   5.096   1.794  15.733  1.1175 -0.0183  1.9870
11384TIP3   OH255642   1.015   5.905   0.773 -0.0715 -0.1060 -0.2858
11384TIP3    H155643   1.008   5.899   0.678 -3.9028 -0.5466 -0.0494
11384TIP3    H255644   0.960   5.980   0.796  0.6618 -0.1261  1.5817
11385TIP3   OH255645   1.442   1.811   3.472  0.3881  0.6260  0.0276
11385TIP3    H155646   1.385   1.813   3.549 -1.8240 -1.7723 -1.4699
11385TIP3    H255647   1.525   1.776   3.505 -0.2976  0.3235  1.4775
11386TIP3   OH255648   3.127   4.421  12.823 -0.4259 -0.1660  0.0316
11386TIP3    H155649   3.071   4.486  12.864 -0.4825 -0.1927 -0.0042
11386TIP3    H255650   3.176   4.383  12.896 -0.9413 -0.6171  0.1471
11387TIP3   OH255651   6.812   3.281  11.719  0.1445 -0.1811 -0.5933
11387TIP3    H155652   6.896   3.325  11.735 -0.7919  1.4216  0.0371
11387TIP3    H255653   6.752   3.352  11.699 -1.2847 -1.2480 -0.1339
11388TIP3   OH255654   2.497   0.864   0.182  0.2152  0.1318 -0.1954
11388TIP3    H155655   2.590   0.887   0.173  0.3163  0.8439  2.1802
11388TIP3    H255656   2.497   0.771   0.205  0.3687  0.1840  0.0206
11389TIP3   OH255657   5.029   1.330   0.237  0.2983  0.4051 -0.6161
11389TIP3    H155658   4.954   1.311   0.181  1.7384 -3.2305 -1.4604
11389TIP3    H255659   5.008   1.287   0.320  2.1362 -2.2092 -1.4334
11390TIP3   OH255660   6.469   4.584  13.490 -0.3843 -0.3800 -0.3215
11390TIP3    H155661   6.515   4.622  13.415  1.7118  1.6989  1.9381
11390TIP3    H255662   6.430   4.659  13.535 -1.6524 -1.6075  0.6594
11391TIP3   OH255663   2.518   6.184   1.337  0.1158 -0.0686  0.0979
11391TIP3    H155664   2.487   6.231   1.414 -1.2305 -1.1130  0.2236
11391TIP3    H255665   2.557   6.104   1.373  1.3667  0.4094 -0.1805
11392TIP3   OH255666   3.099   5.788   4.246 -0.0650  0.2778  0.0426
11392TIP3    H155667   3.116   5.784   4.151 -0.2826 -1.8805  0.0741
11392TIP3    H255668   3.029   5.853   4.255  1.2385  1.8803 -1.0845
11393TIP3   OH255669   0.934   0.579   0.857  0.2053  0.3044  0.1083
11393TIP3    H155670   1.013   0.582   0.803 -0.0745  0.6544 -0.2875
11393TIP3    H255671   0.964   0.551   0.943  0.6767 -0.0999 -0.1931
11394TIP3   OH255672   1.312   0.252   3.626  0.4973  0.6052  0.7032
11394TIP3    H155673   1.294   0.186   3.559  0.2978  2.1892 -0.8286
11394TIP3    H255674   1.398   0.227   3.661  1.7254  1.1201 -1.8304
11395TIP3   OH255675   0.317   0.340   5.045  0.0455 -0.5872 -0.3052
11395TIP3    H155676   0.373   0.339   5.123  0.5819 -1.3849 -0.6971
11395TIP3    H255677   0.229   0.323   5.079  0.1921 -0.3623  0.1928
11396TIP3   OH255678   4.135   6.062   4.984  0.3100  0.0253 -0.2823
11396TIP3    H155679   4.091   6.094   5.063  1.9229  0.5814  0.4205
11396TIP3    H255680   4.183   6.138   4.951  0.8660 -0.6057 -0.9393
11397TIP3   OH255681   3.944   4.551  14.275  0.2037 -0.1512  0.2659
11397TIP3    H155682   3.899   4.529  14.357 -1.4888 -0.8636 -0.8278
11397TIP3    H255683   3.875   4.584  14.217  0.9719 -1.7551 -1.6352
11398TIP3   OH255684   5.867   2.148   0.113  0.1400 -0.1735 -0.1323
11398TIP3    H155685   5.836   2.082   0.052  0.3500 -0.9085  0.5542
11398TIP3    H255686   5.911   2.099   0.182  1.4052  0.7449 -0.2550
11399TIP3   OH255687   4.144   2.390  12.529  0.3494  0.1605 -0.9991
11399TIP3    H155688   4.082   2.360  12.595  2.8563  2.1633  2.4283
11399TIP3    H255689   4.116   2.479  12.508  1.7536  0.9120  0.2373
11400TIP3   OH255690   5.926   2.407   4.837  0.3785  0.2277 -0.0651
11400TIP3    H155691   5.873   2.480   4.868  0.9900  1.6543 -2.2567
11400TIP3    H255692   6.008   2.414   4.887  0.5430  1.2359 -0.4538
11401TIP3   OH255693   5.558   0.024   6.108 -0.3364 -0.1375 -0.4689
11401TIP3    H155694   5.526   0.109   6.079  0.6725  0.0572 -1.0236
11401TIP3    H255695   5.615  -0.007   6.037 -1.6342 -1.8247 -0.8200
11402TIP3   OH255696   4.014   1.221   0.829 -0.1282  0.1987  0.6411
11402TIP3    H155697   4.087   1.179   0.782 -0.6910  0.7696 -0.7793
11402TIP3    H255698   4.055   1.289   0.881  0.6490 -1.2285  1.9491
11403TIP3   OH255699   6.142   5.281  13.170  0.0110  0.1325 -0.0061
11403TIP3    H155700   6.166   5.252  13.258  0.8827 -1.5353 -0.7588
11403TIP3    H255701   6.126   5.375  13.179 -0.0320 -0.0385  1.9457
11404TIP3   OH255702   2.690   2.396   6.133  0.1905 -0.2026  0.6984
11404TIP3    H155703   2.687   2.432   6.221  0.2541 -1.5421  1.2595
11404TIP3    H255704   2.693   2.301   6.145  0.4350 -0.4005 -0.7360
11405TIP3   OH255705   1.799   0.121   3.716 -0.3194 -0.3139  0.4641
11405TIP3    H155706   1.721   0.071   3.738 -0.7543  0.1193 -0.0768
11405TIP3    H255707   1.798   0.196   3.775 -0.3859 -0.2378  0.3669
11406TIP3   OH255708   2.449   2.012  12.757  0.8454  0.3829  0.2377
11406TIP3    H155709   2.531   2.031  12.711  0.6529 -0.3531 -0.4248
11406TIP3    H255710   2.401   2.095  12.754  1.3052  0.6505  0.0949
11407TIP3   OH255711   4.729   4.835   2.339 -0.0934 -0.2197 -0.1574
11407TIP3    H155712   4.824   4.822   2.333  0.0361  1.0028 -1.0313
11407TIP3    H255713   4.716   4.924   2.308 -1.3616  0.2226  1.5828
11408TIP3   OH255714   3.338   3.999   2.219 -0.0311  0.1546  0.2239
11408TIP3    H155715   3.409   3.943   2.190  2.5468  3.4445 -0.0912
11408TIP3    H255716   3.303   3.956   2.297  2.4953 -1.3424  0.5646
11409TIP3   OH255717   0.510   6.717   2.054  0.0278  0.1453  0.7880
11409TIP3    H155718   0.518   6.775   2.130  0.8599  1.0205  0.0513
11409TIP3    H255719   0.507   6.777   1.979  1.6021 -0.7719 -0.0420
11410TIP3   OH255720   6.227   2.694  16.151 -0.2237 -0.0079 -0.3165
11410TIP3    H155721   6.155   2.756  16.150 -0.9145 -0.7292  1.9517
11410TIP3    H255722   6.303   2.744  16.119 -1.1146  1.5188 -0.0585
11411TIP3   OH255723   1.350   4.658   2.185  0.3685  0.6100 -0.1321
11411TIP3    H155724   1.316   4.597   2.250 -0.4281 -1.8726 -2.7417
11411TIP3    H255725   1.296   4.736   2.194  0.0640  0.1947  1.9325
11412TIP3   OH255726   2.479   3.301  13.063  0.6323 -0.5571 -0.2757
11412TIP3    H155727   2.426   3.292  12.984 -0.6955 -1.6073  0.7042
11412TIP3    H255728   2.452   3.227  13.118  1.1705  0.4353  1.3488
11413TIP3   OH255729   6.032   5.884   1.423  0.1722  0.0710 -0.2639
11413TIP3    H155730   6.079   5.808   1.457  0.3392  0.0299 -0.5890
11413TIP3    H255731   6.077   5.959   1.460 -0.3799 -0.0041  0.5621
11414TIP3   OH255732   3.739   0.350  13.009 -0.2053 -0.0768 -0.3677
11414TIP3    H155733   3.750   0.300  12.928  1.3339  1.3909 -1.0923
11414TIP3    H255734   3.799   0.424  13.000  0.9124 -0.5614  2.6688
11415TIP3   OH255735   1.970   1.066   2.516  0.0165 -0.1359 -0.6604
11415TIP3    H155736   1.974   1.051   2.421 -1.7765  0.7471 -0.8911
11415TIP3    H255737   1.897   1.127   2.528  0.3935 -0.0278  1.2704
11416TIP3   OH255738   5.191   3.633   2.986 -0.1311 -0.0515  0.4259
11416TIP3    H155739   5.224   3.715   2.949  0.7680 -0.9920 -0.8989
11416TIP3    H255740   5.266   3.598   3.035 -0.1730 -0.5839  0.1183
11417TIP3   OH255741   0.456   2.641  16.061  0.1848 -0.6440  0.1694
11417TIP3    H155742   0.510   2.656  15.983 -1.1947 -0.9045 -0.8456
11417TIP3    H255743   0.449   2.545  16.067 -0.0994 -0.6120  0.3443
11418TIP3   OH255744   5.617   2.974   6.428  0.3779  0.2657 -0.6323
11418TIP3    H155745   5.705   2.955   6.398  0.5693 -0.5840  0.4264
11418TIP3    H255746   5.628   3.005   6.518 -0.3362  0.9335 -0.7669
11419TIP3   OH255747   0.942   2.144   5.433  0.2631  0.5467 -0.0165
11419TIP3    H155748   0.866   2.109   5.480 -0.1958  0.6880 -0.6405
11419TIP3    H255749   1.001   2.070   5.423  0.5424  0.6051  1.1313
11420TIP3   OH255750   2.501   1.202   0.028  0.0892 -0.0520 -0.1282
11420TIP3    H155751   2.593   1.176   0.034  0.4376  1.5533  1.9681
11420TIP3    H255752   2.453   1.135   0.076  0.5841  1.0432  1.9549
11421TIP3   OH255753   1.271   1.044   5.737  0.2783  0.7797  0.1003
11421TIP3    H155754   1.284   1.138   5.750  1.4900  1.1859 -3.5047
11421TIP3    H255755   1.192   1.038   5.683  1.7349 -0.0546 -2.0325
11422TIP3   OH255756   2.312   6.253   4.626 -0.3073  0.4897  0.1278
11422TIP3    H155757   2.358   6.253   4.541 -0.5542 -0.5975 -0.0150
11422TIP3    H255758   2.227   6.214   4.606 -0.5570  0.7108  0.7796
11423TIP3   OH255759   5.323   3.905  16.055  1.1108  0.5070  0.5506
11423TIP3    H155760   5.271   3.830  16.029  0.8177  0.7564  0.4165
11423TIP3    H255761   5.412   3.870  16.065  0.5555 -0.3849  2.9024
11424TIP3   OH255762   5.765   1.743  10.736 -0.1168  0.5489 -0.0566
11424TIP3    H155763   5.713   1.820  10.758 -1.1436  0.4013 -1.8092
11424TIP3    H255764   5.843   1.778  10.692 -0.2241  0.6339 -0.1817
11425TIP3   OH255765   4.190   4.630  16.947 -0.1855  0.5148  0.4160
11425TIP3    H155766   4.177   4.566  17.017 -0.3370 -0.3386 -0.3773
11425TIP3    H255767   4.270   4.677  16.971 -0.5804  0.6419  1.4666
11426TIP3   OH255768   3.881   0.375   0.309  0.4256 -0.3710 -0.8561
11426TIP3    H155769   3.880   0.423   0.392 -0.0822  1.3614 -1.8307
11426TIP3    H255770   3.843   0.289   0.330 -0.5835  0.3853  0.5009
11427TIP3   OH255771   4.969   2.063   4.528 -0.1975  0.0538 -1.3672
11427TIP3    H155772   5.028   1.988   4.517 -0.6241 -0.5355  0.1354
11427TIP3    H255773   5.020   2.139   4.499  0.7543 -0.6430 -1.5252
11428TIP3   OH255774   4.746   2.138  13.632 -0.2968 -0.2706  0.1217
11428TIP3    H155775   4.685   2.115  13.562 -0.4476  0.2436  0.0823
11428TIP3    H255776   4.741   2.233  13.638  0.6870 -0.2033 -0.0519
11429TIP3   OH255777   2.336   1.249  13.686 -0.6131 -0.1854  0.5894
11429TIP3    H155778   2.412   1.228  13.740  0.8043  0.3729 -1.1706
11429TIP3    H255779   2.372   1.276  13.602 -2.8060 -1.7381 -0.9152
11430TIP3   OH255780   3.711   1.495  11.497  1.2867  0.0031 -0.2822
11430TIP3    H155781   3.780   1.440  11.460  0.6236 -0.5576 -0.7051
11430TIP3    H255782   3.673   1.540  11.421  0.8989 -0.0253 -0.1041
11431TIP3   OH255783   5.132   0.027  12.900 -0.2554 -0.4876 -0.5648
11431TIP3    H155784   5.134  -0.058  12.856  2.6580  0.0396 -1.5185
11431TIP3    H255785   5.112   0.090  12.831 -1.5085 -0.2534 -0.0196
11432TIP3   OH255786   3.563   5.711   6.112 -0.0946 -0.4872 -0.0848
11432TIP3    H155787   3.512   5.635   6.140 -0.9650 -0.5118 -1.7179
11432TIP3    H255788   3.650   5.696   6.150 -1.1648 -0.6366  2.3715
11433TIP3   OH255789   0.293   4.247   3.287  0.6357 -0.1472 -0.1109
11433TIP3    H155790   0.373   4.228   3.336  0.8560  0.5047 -0.2147
11433TIP3    H255791   0.276   4.339   3.305 -0.2693 -0.3614  0.1678
11434TIP3   OH255792   3.564   6.279   3.672 -0.4027 -0.1369  0.7087
11434TIP3    H155793   3.566   6.291   3.767 -0.2671 -0.0493  0.6941
11434TIP3    H255794   3.647   6.238   3.651  0.3987  1.6120  0.3812
11435TIP3   OH255795   0.271   4.740  12.206  0.0078 -0.1828 -0.1808
11435TIP3    H155796   0.283   4.834  12.222  0.5665 -0.0408 -1.3724
11435TIP3    H255797   0.250   4.703  12.292  1.4485  0.7763  0.5916
11436TIP3   OH255798   4.525   0.294   4.493 -0.7017 -0.3670 -0.1717
11436TIP3    H155799   4.502   0.368   4.436 -0.8226 -0.2925 -0.0280
11436TIP3    H255800   4.531   0.219   4.434  0.1868 -0.0955 -0.4335
11437TIP3   OH255801   1.021   3.737   0.082 -0.3279  0.4773  0.6600
11437TIP3    H155802   1.013   3.813   0.023 -0.4601 -1.1623 -1.4959
11437TIP3    H255803   0.974   3.764   0.161  0.3562  2.9648  0.2778
11438TIP3   OH255804   2.188   4.355   1.550  0.7869 -0.1878 -0.0226
11438TIP3    H155805   2.219   4.444   1.536  0.4790 -0.2422 -1.0707
11438TIP3    H255806   2.173   4.321   1.462  2.8048 -1.9561  0.2640
11439TIP3   OH255807   2.583   0.512   2.183 -0.2304  0.3512 -0.4018
11439TIP3    H155808   2.555   0.564   2.108  0.0751  1.5768  0.3004
11439TIP3    H255809   2.609   0.428   2.147  0.4669  1.1310 -1.7569
11440TIP3   OH255810   3.312   5.234   1.008 -0.5796 -0.0505  0.2642
11440TIP3    H155811   3.355   5.151   1.028 -0.5916  0.2965  1.8496
11440TIP3    H255812   3.278   5.223   0.919  2.4953 -0.4259 -0.9183
11441TIP3   OH255813   1.868   0.333   5.086 -0.1748  0.1905 -0.4550
11441TIP3    H155814   1.908   0.248   5.068 -1.6371 -0.3802 -1.1474
11441TIP3    H255815   1.821   0.320   5.169  1.4784  1.0159  0.6452
11442TIP3   OH255816   1.164   2.298   4.912  0.0184 -0.4426 -0.6899
11442TIP3    H155817   1.175   2.216   4.863 -0.3182 -0.8664 -0.0602
11442TIP3    H255818   1.210   2.283   4.994 -2.8637 -1.2442  0.8426
11443TIP3   OH255819   6.680   5.574   4.761 -0.6899  0.2211  0.1105
11443TIP3    H155820   6.593   5.548   4.793 -0.4645 -1.3463 -0.5298
11443TIP3    H255821   6.678   5.670   4.761 -1.5193  0.2400  2.5842
11444TIP3   OH255822   4.089   3.612  13.604 -0.1183  0.1487 -0.4399
11444TIP3    H155823   4.164   3.670  13.608 -0.6848  0.9617 -1.4739
11444TIP3    H255824   4.111   3.548  13.537  0.2892 -0.5438  0.3395
11445TIP3   OH255825   2.424   2.296  15.063 -0.0418  0.1822 -0.2522
11445TIP3    H155826   2.436   2.381  15.019 -0.5189  0.5167  0.2637
11445TIP3    H255827   2.332   2.294  15.086  0.1875 -0.0449  0.6379
11446TIP3   OH255828   1.754   5.991  11.615  0.1518  0.5846  0.3842
11446TIP3    H155829   1.823   6.045  11.576  1.1153  0.0370  1.3061
11446TIP3    H255830   1.679   6.001  11.556  1.6806 -0.4773 -1.8193
11447TIP3   OH255831   2.904   0.921  15.044 -0.6607  0.6965 -0.2046
11447TIP3    H155832   2.849   0.913  15.122 -0.9579  1.1919 -0.3614
11447TIP3    H255833   2.850   0.887  14.973  0.2197 -1.3321  0.0603
11448TIP3   OH255834   0.702   6.745  14.425  0.0237 -0.1036 -0.1975
11448TIP3    H155835   0.748   6.798  14.491 -1.1060  0.7219 -0.0507
11448TIP3    H255836   0.745   6.660  14.429  0.7040  0.2667  0.8271
11449TIP3   OH255837   1.308   1.004  16.927  0.0577  0.1456  0.0765
11449TIP3    H155838   1.345   0.979  16.842 -0.6427 -0.9308  0.0730
11449TIP3    H255839   1.289   1.098  16.918  2.2975  0.6137 -0.0821
11450TIP3   OH255840   0.121   4.998  12.083 -0.2370  0.0065 -0.1242
11450TIP3    H155841   0.195   4.972  12.028 -0.8266  1.9272 -1.8872
11450TIP3    H255842   0.160   5.018  12.168  0.8707 -1.6868 -0.1913
11451TIP3   OH255843   6.513   4.654   0.811 -0.1581 -0.0373  0.3502
11451TIP3    H155844   6.589   4.689   0.765  0.5328 -0.0844  1.4498
11451TIP3    H255845   6.503   4.565   0.776 -0.8509  0.6178 -1.1538
11452TIP3   OH255846   1.968   5.821   0.946  0.1079 -0.4688 -0.0365
11452TIP3    H155847   1.937   5.902   0.905  0.9311 -0.8188 -1.3795
11452TIP3    H255848   2.026   5.783   0.881  0.6483 -1.5486  1.0799
11453TIP3   OH255849   4.094   2.959  13.235  0.1810  0.1673 -0.6531
11453TIP3    H155850   4.044   2.999  13.163 -0.2129  0.3456 -0.2820
11453TIP3    H255851   4.162   2.908  13.191  1.6091  2.4000 -1.1538
11454TIP3   OH255852   2.725   2.608   3.412 -0.2874  0.2544 -0.3596
11454TIP3    H155853   2.763   2.676   3.357  0.3276  0.5565  0.4378
11454TIP3    H255854   2.758   2.626   3.500  1.4268 -2.1413 -0.4350
11455TIP3   OH255855   5.714   3.455  14.982  0.4562 -0.0272 -0.1202
11455TIP3    H155856   5.712   3.473  15.076  0.1322 -0.4438 -0.0457
11455TIP3    H255857   5.799   3.412  14.968  0.3871 -0.2139  0.0293
11456TIP3   OH255858   6.590   2.578  14.848  0.1369 -0.5416 -0.1217
11456TIP3    H155859   6.630   2.651  14.800  0.3445 -1.2340 -1.0045
11456TIP3    H255860   6.538   2.531  14.782  1.4076 -2.2178  0.0398
11457TIP3   OH255861   1.912   2.214   2.193  0.1799  0.0251 -0.1270
11457TIP3    H155862   1.902   2.158   2.270 -0.3140  1.6231  1.0040
11457TIP3    H255863   1.823   2.245   2.175  0.5379  0.9708 -0.3050
11458TIP3   OH255864   3.263   3.372  15.183 -0.2899  0.7193  0.2330
11458TIP3    H155865   3.344   3.421  15.195 -0.4747  1.5705 -1.7203
11458TIP3    H255866   3.194   3.437  15.196 -0.5942  0.4749 -0.1336
11459TIP3   OH255867   3.655   2.592   5.023 -0.0872  0.4157 -0.2407
11459TIP3    H155868   3.722   2.617   4.959  0.0234 -1.3717 -0.8398
11459TIP3    H255869   3.573   2.626   4.987  0.1219  0.3093 -0.8182
11460TIP3   OH255870   0.085   1.407   5.482 -0.0484 -0.1379 -0.0067
11460TIP3    H155871   0.151   1.390   5.550  0.0901 -3.0478 -0.8401
11460TIP3    H255872   0.002   1.411   5.530  0.5434  2.5946  0.9181
11461TIP3   OH255873   1.243   3.275   3.960  0.6005 -0.4326 -0.0299
11461TIP3    H155874   1.321   3.330   3.966  0.3452 -0.0574 -0.1731
11461TIP3    H255875   1.201   3.302   3.878 -1.3254  1.5108  1.5300
11462TIP3   OH255876   4.078   6.517   4.295  0.2885  0.2636  0.5763
11462TIP3    H155877   4.085   6.557   4.209  1.1371  0.3178  0.6657
11462TIP3    H255878   4.048   6.428   4.278  0.9510  0.1112  0.1817
11463TIP3   OH255879   4.665   6.581   5.586  0.2688 -0.4419 -0.2411
11463TIP3    H155880   4.730   6.511   5.584  0.5019 -0.2311 -0.0895
11463TIP3    H255881   4.610   6.566   5.509  0.9537 -0.1893 -0.7830
11464TIP3   OH255882   3.171   2.878  13.834  0.4686 -0.1881  0.3535
11464TIP3    H155883   3.115   2.833  13.897  1.0003 -1.2962  0.0451
11464TIP3    H255884   3.130   2.964  13.823 -1.2768 -1.0295  0.0173
11465TIP3   OH255885   1.468   1.039  14.186 -0.4222 -0.0756  0.1628
11465TIP3    H155886   1.521   0.993  14.121  1.9947  2.0138  0.5397
11465TIP3    H255887   1.498   1.004  14.270  1.1080  1.7339  0.4268
11466TIP3   OH255888   5.868   6.672   4.025 -0.2111  0.4562  0.4291
11466TIP3    H155889   5.836   6.641   4.110  1.7391 -1.8846  0.3627
11466TIP3    H255890   5.963   6.667   4.033 -0.0133  0.5298 -1.7886
11467TIP3   OH255891   5.014   4.175   2.915  0.2707 -0.6361 -0.0244
11467TIP3    H155892   5.104   4.204   2.899  0.4126 -0.3967  1.1286
11467TIP3    H255893   5.020   4.079   2.919  0.3003 -0.6760 -0.9322
11468TIP3   OH255894   5.099   1.758   0.992 -0.3104 -0.2121  0.3127
11468TIP3    H155895   5.140   1.839   0.961 -1.3417  1.3557  2.8894
11468TIP3    H255896   5.007   1.782   1.005 -0.3937 -1.4959  2.1616
11469TIP3   OH255897   1.829   0.739  16.680 -0.2507  0.0502  0.1265
11469TIP3    H155898   1.880   0.686  16.741 -1.0218 -0.8130  0.0466
11469TIP3    H255899   1.771   0.791  16.735 -0.9414 -0.7229  0.1472
11470TIP3   OH255900   0.909   1.025   2.808  0.0338  0.6450 -0.4998
11470TIP3    H155901   0.943   0.964   2.874 -2.6334 -0.0361  0.2981
11470TIP3    H255902   0.967   1.101   2.814  2.4563 -1.1261 -0.3986
11471TIP3   OH255903   3.076   5.542   0.823 -0.2908 -0.2522 -0.2742
11471TIP3    H155904   3.123   5.585   0.751 -2.5489 -0.1545 -1.7682
11471TIP3    H255905   3.102   5.450   0.816 -1.9520 -0.6214 -2.5357
11472TIP3   OH255906   1.442   2.394   3.781  0.2067 -0.0141  0.1402
11472TIP3    H155907   1.425   2.303   3.755  2.2934 -0.4082  0.0227
11472TIP3    H255908   1.426   2.445   3.702 -4.1701  0.1868  1.0299
11473TIP3   OH255909   4.475   0.742  11.207 -1.0304  0.2053  0.4659
11473TIP3    H155910   4.460   0.747  11.112  0.8571 -0.9673  0.0602
11473TIP3    H255911   4.569   0.727  11.215 -0.9934  1.3523  2.5866
11474TIP3   OH255912   3.620   0.941  16.101  0.1441  0.1759 -0.3330
11474TIP3    H155913   3.646   0.864  16.152  1.3220 -0.4273 -1.8119
11474TIP3    H255914   3.537   0.915  16.060 -0.5071  0.4539  0.7573
11475TIP3   OH255915   5.035   4.912  16.176 -0.4892  0.1143  0.6910
11475TIP3    H155916   5.103   4.877  16.234 -0.2060  0.6076  0.6614
11475TIP3    H255917   4.956   4.914  16.230 -0.9477 -2.2734  0.1693
11476TIP3   OH255918   4.006   5.202   0.892 -0.3397  0.3159 -0.2471
11476TIP3    H155919   4.018   5.219   0.798  0.0002  0.1417 -0.2350
11476TIP3    H255920   3.959   5.279   0.924  0.2639  0.7539 -0.4060
11477TIP3   OH255921   1.256   1.568   0.396 -0.0576  0.0963 -0.0573
11477TIP3    H155922   1.238   1.650   0.441  0.6181  0.4618 -0.4500
11477TIP3    H255923   1.295   1.512   0.463 -1.3701 -0.2255  0.4438
11478TIP3   OH255924   4.886   6.734   1.156  0.3907  0.0624  0.1318
11478TIP3    H155925   4.936   6.664   1.199 -0.0364 -0.5548 -0.3693
11478TIP3    H255926   4.808   6.744   1.210  0.4567  0.1662  0.2099
11479TIP3   OH255927   2.116   6.233   3.878 -0.5612  0.1923 -0.2643
11479TIP3    H155928   2.024   6.246   3.904 -0.6807 -0.9024 -0.1132
11479TIP3    H255929   2.163   6.223   3.960 -0.7851 -2.2621 -0.4125
11480TIP3   OH255930   3.070   4.839   3.217  0.9002  0.2527 -0.0443
11480TIP3    H155931   3.112   4.854   3.302  1.0485 -2.0034  0.3318
11480TIP3    H255932   3.051   4.745   3.217 -0.7968  0.5697 -1.7445
11481TIP3   OH255933   2.497   6.771   6.731  0.5449 -0.1839  0.2986
11481TIP3    H155934   2.429   6.773   6.663  1.2941 -1.3840 -0.4932
11481TIP3    H255935   2.519   6.678   6.740  1.9311  0.1857  0.7248
11482TIP3   OH255936   5.060   5.389  12.607 -0.2198  0.0038 -0.0040
11482TIP3    H155937   5.121   5.328  12.566  1.4513  1.2574  0.5909
11482TIP3    H255938   5.105   5.421  12.685 -2.0748  0.1089  1.0748
11483TIP3   OH255939   3.499   2.167   1.027 -0.1236 -0.5442  0.3585
11483TIP3    H155940   3.529   2.106   1.094 -1.7468 -1.8834 -0.0849
11483TIP3    H255941   3.524   2.125   0.944 -2.0489 -1.0792  0.0280
11484TIP3   OH255942   2.919   0.110  11.505  0.3779 -0.1995 -0.7275
11484TIP3    H155943   2.873   0.035  11.542 -0.3331  0.8001  0.4289
11484TIP3    H255944   2.851   0.176  11.491  0.9617  0.1636 -1.9427
11485TIP3   OH255945   6.775   4.487  12.366 -0.0944 -0.3165 -0.3628
11485TIP3    H155946   6.794   4.532  12.449 -0.4711 -0.5034 -0.1764
11485TIP3    H255947   6.765   4.395  12.391  0.5849 -0.4963 -0.7323
11486TIP3   OH255948   0.769   0.470   1.865 -0.4048  0.3020  0.3651
11486TIP3    H155949   0.829   0.407   1.904 -0.5014  0.0607  0.1290
11486TIP3    H255950   0.811   0.496   1.783 -0.9054 -0.3406 -0.1119
11487TIP3   OH255951   1.422   5.126   2.746 -0.1146  0.4062 -0.0515
11487TIP3    H155952   1.440   5.200   2.804 -0.9648 -0.0691  0.8325
11487TIP3    H255953   1.453   5.049   2.794 -2.3565 -0.1844  0.5495
11488TIP3   OH255954   1.193   2.511  10.858 -0.7832  0.0385 -0.1375
11488TIP3    H155955   1.283   2.540  10.850 -0.6838 -0.5904 -1.4124
11488TIP3    H255956   1.165   2.543  10.944  0.9852 -0.6840  0.7432
11489TIP3   OH255957   0.585   0.252   4.392  0.1157  0.7546  0.8008
11489TIP3    H155958   0.599   0.214   4.479  0.0303  0.3394  0.6361
11489TIP3    H255959   0.494   0.232   4.372 -0.2100  1.8811  1.1098
11490TIP3   OH255960   0.797   0.353  14.176  0.0474  0.4477  0.4521
11490TIP3    H155961   0.790   0.348  14.272  1.4022 -0.3002  0.5188
11490TIP3    H255962   0.834   0.439  14.159 -0.5150  0.7172  0.5761
11491TIP3   OH255963   5.183   4.930   2.390 -0.3993 -0.0360  0.5531
11491TIP3    H155964   5.123   4.856   2.383 -1.3582  0.5226  2.5509
11491TIP3    H255965   5.146   4.996   2.330 -1.0680 -0.1737  0.8064
11492TIP3   OH255966   5.136   2.227   5.025 -0.3000  0.1418 -0.3909
11492TIP3    H155967   5.112   2.264   5.110 -1.2630 -2.3483  0.4505
11492TIP3    H255968   5.206   2.285   4.993  0.6893  0.6362  2.4823
11493TIP3   OH255969   3.070   2.521   4.126  0.5205  0.0444  0.5228
11493TIP3    H155970   3.166   2.526   4.132  0.6546  1.2501 -1.9383
11493TIP3    H255971   3.041   2.612   4.136 -0.3206 -0.2563  0.7907
11494TIP3   OH255972   3.226   3.245  12.118 -0.0441  0.4239 -0.1798
11494TIP3    H155973   3.297   3.302  12.090  1.0023 -0.1938  1.1092
11494TIP3    H255974   3.157   3.304  12.149  1.0585  1.0096  1.2082
11495TIP3   OH255975   6.750   5.766  14.929 -0.1389  0.1512  0.2358
11495TIP3    H155976   6.828   5.821  14.930  0.8401 -1.2172  0.5194
11495TIP3    H255977   6.770   5.697  14.866 -1.5716  0.4150 -0.5288
11496TIP3   OH255978   1.544   0.628   3.547 -0.4434  0.6037  0.0963
11496TIP3    H155979   1.566   0.642   3.639 -1.1838  0.0815  0.3646
11496TIP3    H255980   1.595   0.693   3.499  1.0655 -0.0752  0.7530
11497TIP3   OH255981   2.368   1.501  15.778  0.2431 -0.2415 -0.0514
11497TIP3    H155982   2.412   1.432  15.728 -0.1864  0.1850 -1.0264
11497TIP3    H255983   2.328   1.557  15.712 -1.1333 -0.2039  0.7957
11498TIP3   OH255984   2.761   4.370   4.856  0.7546  0.1960  0.0403
11498TIP3    H155985   2.733   4.390   4.767 -0.5285 -2.6471 -0.2703
11498TIP3    H255986   2.856   4.382   4.855  0.5784  1.6558 -1.2816
11499TIP3   OH255987   5.532   3.293   5.696 -0.3144  0.6357 -0.3287
11499TIP3    H155988   5.530   3.371   5.752  0.5800  2.0430 -2.2084
11499TIP3    H255989   5.442   3.283   5.666 -1.0059 -0.6736  2.0377
11500TIP3   OH255990   0.913   2.532  13.931 -0.3596 -0.3019  0.2379
11500TIP3    H155991   1.005   2.520  13.956 -0.2745 -0.5925 -0.2004
11500TIP3    H255992   0.910   2.620  13.892  0.4620 -1.5986 -2.9240
11501TIP3   OH255993   1.124   4.470   6.061  0.1180  0.6815  0.2120
11501TIP3    H155994   1.067   4.537   6.022  0.2100  1.1197  0.8185
11501TIP3    H255995   1.082   4.449   6.144  0.6538  0.7526  0.5015
11502TIP3   OH255996   6.352   2.032   5.934 -0.5992  0.2475 -0.7688
11502TIP3    H155997   6.397   2.066   6.012  0.0969  0.3588 -1.2139
11502TIP3    H255998   6.307   1.953   5.965 -0.0484  0.0992 -0.3313
11503TIP3   OH255999   4.044   1.366   6.706  0.8943  0.2899 -0.3466
11503TIP3    H156000   3.986   1.375   6.782  0.7238  1.8568 -0.6615
11503TIP3    H256001   4.005   1.422   6.639 -0.2675 -2.8445 -2.3956
11504TIP3   OH256002   5.410   1.362   2.941  0.6649  0.0534  0.1843
11504TIP3    H156003   5.381   1.287   2.890  0.4174 -2.1775  3.4658
11504TIP3    H256004   5.500   1.342   2.966  0.7065  0.9855  0.8424
11505TIP3   OH256005   2.834   0.592  11.580  0.4899  0.1427 -0.5138
11505TIP3    H156006   2.923   0.592  11.615  1.4952  1.9089 -2.9382
11505TIP3    H256007   2.845   0.567  11.488 -1.5281  0.4822 -0.8649
11506TIP3   OH256008   0.934   5.888   1.986  0.8451  0.3181 -0.3149
11506TIP3    H156009   0.899   5.976   1.972  0.5196  0.3375  0.5874
11506TIP3    H256010   1.015   5.902   2.035  1.0102  0.1354 -0.5326
11507TIP3   OH256011   3.403   6.458  12.412 -0.6970 -0.3505  0.4855
11507TIP3    H156012   3.325   6.508  12.435 -0.7213 -0.0975 -0.1579
11507TIP3    H256013   3.476   6.514  12.437 -0.7226 -0.1254  0.0474
11508TIP3   OH256014   3.376   0.082   3.211  0.2962  0.1031  0.3653
11508TIP3    H156015   3.448   0.100   3.149 -0.5584 -0.7991 -0.8949
11508TIP3    H256016   3.421   0.065   3.294  1.4671  1.1596 -0.0176
11509TIP3   OH256017   6.542   2.191  16.580 -0.3875  0.6741  0.1110
11509TIP3    H156018   6.617   2.147  16.539  0.6873 -0.3481  2.9973
11509TIP3    H256019   6.496   2.233  16.508  1.7757 -0.4703 -2.0136
11510TIP3   OH256020   1.345   6.715   3.710 -0.1652  0.0193  0.7739
11510TIP3    H156021   1.423   6.744   3.663 -1.2368  1.4953 -0.0988
11510TIP3    H256022   1.316   6.637   3.663  1.0193 -0.8104  1.3752
11511TIP3   OH256023   3.602   1.602   4.256 -0.5226  0.4828 -0.6222
11511TIP3    H156024   3.674   1.628   4.313 -2.1398  2.2793  0.6687
11511TIP3    H256025   3.602   1.506   4.258  1.5675  0.4737 -0.3427
11512TIP3   OH256026   0.941   6.015   5.887 -0.5969  0.0048  0.0285
11512TIP3    H156027   1.008   5.953   5.914 -0.4218  0.3244  0.3295
11512TIP3    H256028   0.927   6.071   5.964 -0.9314  0.1819 -0.1579
11513TIP3   OH256029   5.755   3.413  13.883  0.2615 -0.6199 -0.1066
11513TIP3    H156030   5.669   3.453  13.869  0.1689 -1.7242 -2.9126
11513TIP3    H256031   5.740   3.349  13.953 -1.3734 -1.3477 -1.1031
11514TIP3   OH256032   5.060   1.930  13.374  0.4968 -0.0613  0.5418
11514TIP3    H156033   5.089   1.840  13.383 -0.8559 -0.4422  1.2446
11514TIP3    H256034   5.052   1.962  13.464  0.0215  0.4339  0.3271
11515TIP3   OH256035   2.381   3.129   0.249  0.4818 -0.0420  0.2301
11515TIP3    H156036   2.459   3.158   0.200  0.3356 -0.4559 -0.2550
11515TIP3    H256037   2.330   3.079   0.185  0.6797 -1.2812  1.0139
11516TIP3   OH256038   1.148   6.788  14.902  0.4668  0.0087  0.2980
11516TIP3    H156039   1.096   6.733  14.962 -0.5291  0.3902 -0.2129
11516TIP3    H256040   1.227   6.737  14.886 -1.0155 -1.8864 -1.2012
11517TIP3   OH256041   2.208   5.226   6.015  0.3077 -0.4314 -0.3895
11517TIP3    H156042   2.254   5.252   6.095  1.2941  1.4639 -1.5339
11517TIP3    H256043   2.261   5.155   5.979 -0.6373 -1.9124  1.0968
11518TIP3   OH256044   1.695   2.732  13.025  0.2409  0.3105 -0.6017
11518TIP3    H156045   1.775   2.723  12.973 -0.3653 -1.4645 -1.2488
11518TIP3    H256046   1.627   2.692  12.972 -1.0601  1.5898  0.0522
11519TIP3   OH256047   2.301   0.864  16.623 -0.1098  0.1102 -0.3449
11519TIP3    H156048   2.260   0.865  16.536  1.1384 -1.1443 -0.9589
11519TIP3    H256049   2.377   0.807  16.613  0.3655  0.4130  1.4365
11520TIP3   OH256050   0.463   3.594  14.996  0.0145  0.1677 -0.4768
11520TIP3    H156051   0.435   3.529  14.932  0.8344  0.6229 -1.3116
11520TIP3    H256052   0.409   3.577  15.073 -0.5397 -0.7902 -1.0692
11521TIP3   OH256053   4.210   2.799   1.597 -0.2565  0.0958 -0.3057
11521TIP3    H156054   4.269   2.827   1.667  1.5430 -1.7866 -1.0446
11521TIP3    H256055   4.136   2.860   1.602  0.5184  0.8457  2.3086
11522TIP3   OH256056   2.593   2.525  13.797 -0.1439 -0.3191 -0.3044
11522TIP3    H156057   2.649   2.554  13.870  0.1708 -0.2728 -0.5620
11522TIP3    H256058   2.650   2.467  13.746 -0.6665 -1.1255  0.0273
11523TIP3   OH256059   2.346   1.210   0.737  0.3969  0.4826  0.8068
11523TIP3    H156060   2.434   1.246   0.727  0.8900 -1.1486 -0.8926
11523TIP3    H256061   2.310   1.208   0.649 -0.2925 -1.4772  1.1060
11524TIP3   OH256062   2.686   1.047   0.526 -0.0747  0.7621 -0.1475
11524TIP3    H156063   2.752   1.088   0.470 -0.7287  0.5359 -1.0981
11524TIP3    H256064   2.734   0.978   0.572  0.0958 -0.2493 -1.7903
11525TIP3   OH256065   3.155   1.245   1.471  0.1719 -0.3476 -0.0157
11525TIP3    H156066   3.194   1.210   1.552 -0.3475  0.7779  0.7286
11525TIP3    H256067   3.207   1.206   1.401  1.9484  0.2493  0.9325
11526TIP3   OH256068   4.027   1.162  13.764 -0.2793  0.4403  0.0328
11526TIP3    H156069   3.994   1.140  13.851  1.2172 -0.5718  0.3705
11526TIP3    H256070   4.071   1.246  13.775  1.1773 -0.3720  0.6067
11527TIP3   OH256071   2.991   6.667   4.269 -0.1710 -0.6124 -0.3774
11527TIP3    H156072   3.029   6.741   4.221  1.0097 -0.7872  0.2679
11527TIP3    H256073   2.925   6.631   4.209  0.1938  0.1248 -1.2381
11528TIP3   OH256074   2.232   3.668   1.324  0.0442 -0.1647 -0.6107
11528TIP3    H156075   2.307   3.615   1.299  1.0974  0.2221  1.5564
11528TIP3    H256076   2.199   3.704   1.242  1.9709 -0.6778 -1.6411
11529TIP3   OH256077   1.160   6.034   1.807  0.2744  0.4522  0.0679
11529TIP3    H156078   1.172   5.963   1.869  0.5992  1.6379  1.3770
11529TIP3    H256079   1.237   6.030   1.750 -0.4512 -1.1776 -0.8331
11530TIP3   OH256080   6.748   2.714  15.717 -0.3292  0.4731  0.3403
11530TIP3    H156081   6.812   2.782  15.697  0.4588 -0.2324  0.4030
11530TIP3    H256082   6.734   2.669  15.634  0.7518 -0.6149  0.7295
11531TIP3   OH256083   1.196   5.828   3.158  0.1785  0.2648 -0.4012
11531TIP3    H156084   1.208   5.861   3.068  0.3789  0.5764 -0.2613
11531TIP3    H256085   1.201   5.733   3.150 -0.8238  0.2386 -0.8786
11532TIP3   OH256086   6.219   0.098  13.908  0.2953  0.7131  0.3050
11532TIP3    H156087   6.290   0.099  13.973  1.6457  0.0465 -1.1425
11532TIP3    H256088   6.175   0.014  13.923  2.3094 -0.7106 -1.4080
11533TIP3   OH256089   6.136   3.330   2.598 -0.0258 -0.2341 -0.6333
11533TIP3    H156090   6.129   3.235   2.599  0.7232 -0.2973  1.8080
11533TIP3    H256091   6.226   3.347   2.569  0.2823 -0.3166  0.2627
11534TIP3   OH256092   4.056   0.815  13.063  0.3301 -0.7432 -0.0765
11534TIP3    H156093   4.122   0.885  13.068 -0.0446 -0.3441 -0.7292
11534TIP3    H256094   4.041   0.792  13.155  1.0953 -0.5744  0.1013
11535TIP3   OH256095   5.915   3.484   5.388  0.1183  0.4993  0.1461
11535TIP3    H156096   5.893   3.554   5.449 -1.5410  0.4100 -0.3246
11535TIP3    H256097   5.890   3.519   5.302  1.7924  0.3605 -0.4057
11536TIP3   OH256098   4.927   5.338  11.678 -0.2785  0.0318 -0.7115
11536TIP3    H156099   4.970   5.400  11.619 -3.9651  2.6197 -0.8713
11536TIP3    H256100   4.919   5.386  11.761  0.4785 -1.7834  0.4382
11537TIP3   OH256101   4.647   0.059  13.387  0.0799 -0.2385 -0.3440
11537TIP3    H156102   4.688   0.111  13.319  0.2863 -0.1814 -0.1752
11537TIP3    H256103   4.554   0.056  13.363  0.1119 -0.0120 -0.4897
11538TIP3   OH256104   0.022   4.256  11.554  0.2866 -0.0544  0.0031
11538TIP3    H156105   0.110   4.251  11.592  0.4793 -0.7071 -0.5338
11538TIP3    H256106   0.030   4.321  11.484  0.0441  0.7975  0.7576
11539TIP3   OH256107   3.971   2.208   4.402 -0.1319 -0.6637  0.2773
11539TIP3    H156108   3.929   2.196   4.317  0.2778  0.6724 -0.1111
11539TIP3    H256109   3.933   2.139   4.456 -1.0720 -0.9558 -0.7314
11540TIP3   OH256110   2.897   0.629   6.195 -0.0822 -0.0430 -0.2616
11540TIP3    H156111   2.924   0.713   6.233  0.3783  0.3148 -1.3694
11540TIP3    H256112   2.973   0.572   6.205  0.3127  0.2856 -1.3376
11541TIP3   OH256113   1.672   1.194  14.364  0.1611 -0.4624 -0.2253
11541TIP3    H156114   1.615   1.257  14.319  1.8671  1.2852  0.0109
11541TIP3    H256115   1.746   1.182  14.305  0.4297 -1.3224  0.2767
11542TIP3   OH256116   2.128   0.044   0.969  0.3885 -0.0728  0.1990
11542TIP3    H156117   2.049  -0.008   0.954  0.3094 -0.1652  0.9543
11542TIP3    H256118   2.149   0.081   0.883 -0.6093  0.1434  0.0476
11543TIP3   OH256119   1.176   5.452  11.365  1.1376  0.3071  0.5630
11543TIP3    H156120   1.165   5.410  11.450  1.0611 -1.7445 -0.4241
11543TIP3    H256121   1.221   5.386  11.312 -0.8311  0.6732 -1.6529
11544TIP3   OH256122   5.620   4.758  11.939 -0.8127  0.3442  0.3214
11544TIP3    H156123   5.597   4.850  11.953 -0.6073  0.1739  1.8610
11544TIP3    H256124   5.619   4.747  11.844  1.7525  2.6255 -0.0394
11545TIP3   OH256125   0.635   4.413  11.617  0.6750 -0.5983  0.1385
11545TIP3    H156126   0.618   4.506  11.631  2.2019 -0.5020  1.4684
11545TIP3    H256127   0.567   4.385  11.555 -0.0571  1.2905  0.0659
11546TIP3   OH256128   2.559   5.282  16.540 -0.5659  0.3915  0.0536
11546TIP3    H156129   2.640   5.331  16.530 -1.3524  1.5029 -0.8830
11546TIP3    H256130   2.572   5.203  16.488 -0.4327  0.9979 -0.8346
11547TIP3   OH256131   4.694   4.206  11.567 -0.2552 -0.1767  0.4287
11547TIP3    H156132   4.673   4.235  11.655  1.7551  1.7971  0.3068
11547TIP3    H256133   4.703   4.111  11.574  3.1151  0.2415  3.0912
11548TIP3   OH256134   6.199   3.163   4.708 -0.2118 -0.0708  0.0625
11548TIP3    H156135   6.196   3.103   4.783  0.3881 -1.8359 -1.3056
11548TIP3    H256136   6.291   3.165   4.683 -0.3790  0.7054 -0.4930
11549TIP3   OH256137   1.185   4.593  11.449 -0.3337 -0.2368 -0.2581
11549TIP3    H156138   1.151   4.573  11.536 -0.3007  2.3710  0.4226
11549TIP3    H256139   1.139   4.674  11.424  1.8383  0.6963 -1.3674
11550TIP3   OH256140   0.289   5.940   1.625 -0.0526  0.0598  0.1841
11550TIP3    H156141   0.325   5.923   1.538  0.1045  1.2246  0.0126
11550TIP3    H256142   0.295   5.856   1.671  1.8995 -0.0290 -0.1846
11551TIP3   OH256143   1.671   4.861   0.845  0.1067 -0.1281  0.2022
11551TIP3    H156144   1.765   4.873   0.858  0.2419  0.8321 -1.4992
11551TIP3    H256145   1.637   4.949   0.827 -1.2825 -0.3271  1.7112
11552TIP3   OH256146   4.377   1.401   4.993  0.6417 -0.1504  0.0441
11552TIP3    H156147   4.371   1.419   4.899 -0.3720  1.2951  0.3648
11552TIP3    H256148   4.304   1.341   5.010  0.8551 -0.4515 -0.1028
11553TIP3   OH256149   6.160   2.561   5.221 -0.0080 -0.0229  0.4729
11553TIP3    H156150   6.196   2.552   5.309 -0.7548  1.4056  0.9335
11553TIP3    H256151   6.151   2.471   5.190  0.8256 -0.5170  1.6132
11554TIP3   OH256152   3.609   4.392  16.833  0.2644 -0.6755 -0.1097
11554TIP3    H156153   3.700   4.412  16.810  0.6034 -1.6555  0.3093
11554TIP3    H256154   3.584   4.459  16.896  0.8308 -0.6303  0.0688
11555TIP3   OH256155   2.681   5.919  15.545 -0.1225 -0.0361 -0.2027
11555TIP3    H156156   2.628   5.863  15.603 -0.0009  0.5578  0.4861
11555TIP3    H256157   2.625   5.994  15.526  1.0869  1.4592  1.9533
11556TIP3   OH256158   2.906   1.238   2.678 -0.0475 -0.7969 -0.1435
11556TIP3    H156159   2.910   1.148   2.646  1.2386  0.0585 -2.5385
11556TIP3    H256160   2.971   1.241   2.749 -1.7669 -2.3194  1.5198
11557TIP3   OH256161   2.265   2.113  15.500 -0.2763 -0.5432  0.3041
11557TIP3    H156162   2.304   2.110  15.587 -0.4716  0.3154  0.4270
11557TIP3    H256163   2.317   2.177  15.452 -1.0079 -0.0004  0.2188
11558TIP3   OH256164   5.817   4.477   3.153 -0.3162 -0.0021  0.2447
11558TIP3    H156165   5.861   4.550   3.109 -0.7752  0.9538  1.3434
11558TIP3    H256166   5.836   4.401   3.098 -1.4509  1.2773 -1.9810
11559TIP3   OH256167   1.505   0.574  15.611 -0.3571 -0.2385 -0.0687
11559TIP3    H156168   1.533   0.587  15.701 -1.5538 -0.1600  0.3026
11559TIP3    H256169   1.577   0.527  15.569  1.3823  2.1747  0.1881
11560TIP3   OH256170   5.952   5.687  12.324 -0.3789 -0.7483 -0.6970
11560TIP3    H156171   6.007   5.733  12.261  0.2675 -1.7256 -0.8456
11560TIP3    H256172   5.936   5.602  12.285 -1.1405 -0.8502 -0.1811
11561TIP3   OH256173   2.565   5.698   1.727  0.5184  0.0360  0.0387
11561TIP3    H156174   2.656   5.682   1.752  0.2750 -0.0242  0.8949
11561TIP3    H256175   2.564   5.791   1.701  0.6297  0.2731  0.8810
11562TIP3   OH256176   2.458   0.874  12.599 -0.7907 -0.2196  0.0021
11562TIP3    H156177   2.388   0.843  12.657  0.0781  0.4979  1.4669
11562TIP3    H256178   2.478   0.962  12.631  0.8665 -0.4652 -0.3233
11563TIP3   OH256179   5.955   3.028   4.003 -0.1535 -0.6322 -0.0226
11563TIP3    H156180   6.009   2.997   3.929 -0.7113 -0.9413 -0.3026
11563TIP3    H256181   6.019   3.051   4.070  0.3132 -1.5128 -0.1500
11564TIP3   OH256182   1.858   3.934  12.645  0.1004  0.2428 -0.0666
11564TIP3    H156183   1.823   3.957  12.730  0.4296  2.0082 -0.3951
11564TIP3    H256184   1.953   3.943  12.655  0.0470  2.0467 -1.0679
11565TIP3   OH256185   1.915   3.481   2.145  0.0821 -0.1028 -0.3245
11565TIP3    H156186   1.864   3.431   2.209  2.3165 -0.0298  1.5645
11565TIP3    H256187   2.005   3.452   2.158  0.9146  1.8081 -1.6730
11566TIP3   OH256188   0.568   4.298   3.365 -0.2075 -0.0905 -0.4205
11566TIP3    H156189   0.632   4.307   3.295  0.8476  1.1711  0.6725
11566TIP3    H256190   0.549   4.388   3.393 -1.6996 -0.5001 -0.0516
11567TIP3   OH256191   4.615   2.679  13.919 -0.2675  0.0803 -0.6238
11567TIP3    H156192   4.548   2.646  13.979 -1.5883 -0.7005 -2.4506
11567TIP3    H256193   4.606   2.774  13.924 -0.8486  0.0036 -0.0930
11568TIP3   OH256194   5.403   1.421  16.288 -0.2190 -0.1253  0.1197
11568TIP3    H156195   5.381   1.514  16.290 -0.3241 -0.1527  0.2273
11568TIP3    H256196   5.385   1.390  16.376 -0.5514 -0.3317 -0.0150
11569TIP3   OH256197   2.061   2.758  14.797  0.1927  0.2834  0.7203
11569TIP3    H156198   2.068   2.757  14.701  0.0962  1.6785  0.6884
11569TIP3    H256199   1.979   2.712  14.815  0.5842 -0.6480  0.1791
11570TIP3   OH256200   0.007   2.144  13.144 -0.0756  0.3919 -0.0437
11570TIP3    H156201   0.068   2.198  13.094 -1.0731 -0.0636 -1.8091
11570TIP3    H256202  -0.076   2.191  13.139 -0.7223 -0.8249 -0.7805
11571TIP3   OH256203   5.878   5.172   6.239 -0.3855  0.0825 -0.7895
11571TIP3    H156204   5.930   5.207   6.311  2.8321  0.7950 -3.3125
11571TIP3    H256205   5.803   5.231   6.232 -1.3223 -0.6213  2.5901
11572TIP3   OH256206   2.404   1.248   3.468 -0.2060  0.7097  0.9153
11572TIP3    H156207   2.436   1.220   3.383  0.4163 -1.6398  1.8912
11572TIP3    H256208   2.424   1.176   3.527 -4.0087  0.6838  2.3251
11573TIP3   OH256209   2.295   5.929  16.427 -0.5358 -0.1209  0.4191
11573TIP3    H156210   2.222   5.893  16.478 -1.4731  0.3565 -0.5613
11573TIP3    H256211   2.312   5.864  16.359  0.6331 -0.7015  1.2601
11574TIP3   OH256212   2.842   0.488   1.973 -0.5252  0.1219 -0.6113
11574TIP3    H156213   2.910   0.548   2.005 -0.7659 -0.9475  2.0429
11574TIP3    H256214   2.835   0.422   2.042 -1.5058 -1.9780 -2.6973
11575TIP3   OH256215   0.288   5.675   5.937 -0.3388  0.3243 -0.0157
11575TIP3    H156216   0.262   5.663   6.028 -0.4940 -1.2830 -0.2467
11575TIP3    H256217   0.369   5.624   5.928 -1.9619 -2.1027 -1.5171
11576TIP3   OH256218   2.578   2.093  16.997 -0.3918  0.0024  0.0452
11576TIP3    H156219   2.646   2.153  17.029 -1.0626  0.2646  0.9839
11576TIP3    H256220   2.521   2.149  16.944 -0.3788 -0.0470 -0.0217
11577TIP3   OH256221   0.322   6.789  13.118 -0.2664 -0.3081  0.3280
11577TIP3    H156222   0.379   6.726  13.074 -0.3967  0.7993 -1.4544
11577TIP3    H256223   0.247   6.799  13.059 -0.3040  1.4054  0.6518
11578TIP3   OH256224   2.652   3.276  13.306 -0.2205  0.4623  0.2061
11578TIP3    H156225   2.703   3.339  13.256 -0.1530  0.6120  0.4603
11578TIP3    H256226   2.571   3.323  13.328 -0.9897 -0.1681 -1.2134
11579TIP3   OH256227   2.600   0.288   2.618  0.6601  0.0102 -0.4580
11579TIP3    H156228   2.636   0.377   2.619 -0.0753  0.3183 -1.1215
11579TIP3    H256229   2.600   0.263   2.526 -0.1272 -0.2719 -0.3843
11580TIP3   OH256230   4.070   3.266   6.323 -0.1704  0.3400  0.3387
11580TIP3    H156231   4.120   3.329   6.374 -1.0445  1.7231 -0.4921
11580TIP3    H256232   3.998   3.241   6.380 -1.2795  2.0620 -0.2928
11581TIP3   OH256233   5.106   5.222   1.823  0.1281  0.2264  0.3736
11581TIP3    H156234   5.194   5.201   1.853 -0.7989 -1.7432  1.8142
11581TIP3    H256235   5.114   5.229   1.728  1.5035 -1.7640  0.3042
11582TIP3   OH256236   0.142   3.492  15.432 -0.1554  0.1859 -0.0474
11582TIP3    H156237   0.222   3.469  15.478  0.3569  2.6278  0.3884
11582TIP3    H256238   0.080   3.423  15.455  1.9673 -2.0563 -0.8663
11583TIP3   OH256239   0.625   5.257  13.528  0.5286 -0.3077 -0.1919
11583TIP3    H156240   0.621   5.266  13.623  2.1614  0.2661 -0.1731
11583TIP3    H256241   0.718   5.251  13.507  0.2343  0.3195 -1.8239
11584TIP3   OH256242   1.671   2.406  13.215 -0.5506 -0.5036 -0.4281
11584TIP3    H156243   1.658   2.329  13.160 -1.6429  0.0463 -0.9532
11584TIP3    H256244   1.711   2.471  13.158 -1.3148 -0.0674 -0.4758
11585TIP3   OH256245   0.515   1.949   4.001 -0.1338 -0.8084 -0.6980
11585TIP3    H156246   0.552   1.952   3.913 -0.5381  0.5692 -0.8397
11585TIP3    H256247   0.591   1.961   4.059  0.0937 -1.4221 -0.8739
11586TIP3   OH256248   4.356   0.094  15.984 -0.2506 -0.3409 -0.1953
11586TIP3    H156249   4.262   0.109  15.990  0.1828  2.1778  0.9053
11586TIP3    H256250   4.389   0.164  15.928  0.8364 -1.8398 -1.4651
11587TIP3   OH256251   2.009   5.888   1.779  0.3104  0.4414 -0.5921
11587TIP3    H156252   1.969   5.812   1.738  0.3184 -0.1894  0.5429
11587TIP3    H256253   1.939   5.953   1.783 -1.1144 -1.2042  2.8302
11588TIP3   OH256254   0.576   1.915   2.351  0.0945 -0.4185  0.6868
11588TIP3    H156255   0.624   1.959   2.280 -1.4807 -2.0105 -1.4115
11588TIP3    H256256   0.642   1.860   2.393  0.8731 -0.0332  0.0042
11589TIP3   OH256257   1.858   3.942   0.771  0.2325 -0.2345  0.0039
11589TIP3    H156258   1.840   4.006   0.702 -0.0143  0.1212  0.3940
11589TIP3    H256259   1.786   3.880   0.766  0.8893 -0.9336 -0.8949
11590TIP3   OH256260   4.563   4.695   6.145  1.3553 -0.0375 -0.4309
11590TIP3    H156261   4.510   4.766   6.181  1.6931  0.6626 -1.2695
11590TIP3    H256262   4.610   4.660   6.220  2.8696  2.1009 -0.3177
11591TIP3   OH256263   0.591   0.918  15.502  0.2201 -1.0845 -0.0076
11591TIP3    H156264   0.623   0.871  15.425 -1.3100  1.1942 -2.0807
11591TIP3    H256265   0.507   0.955  15.475 -1.9026 -2.7788  3.7335
11592TIP3   OH256266   6.238   2.999  14.339 -0.2775 -0.2383 -0.4506
11592TIP3    H156267   6.324   3.013  14.379 -0.3700 -0.8809 -0.0062
11592TIP3    H256268   6.188   3.077  14.361 -0.2008 -0.4171  0.3513
11593TIP3   OH256269   2.080   4.311  14.475 -0.0491 -0.1453  0.0688
11593TIP3    H156270   2.133   4.355  14.409  0.7778 -1.7593 -0.3640
11593TIP3    H256271   2.120   4.225  14.485 -1.7213 -0.8673  0.7924
11594TIP3   OH256272   6.619   2.100   2.277 -0.0903 -0.1513  0.2062
11594TIP3    H156273   6.689   2.164   2.290 -0.4456  0.1163  0.8628
11594TIP3    H256274   6.635   2.034   2.345  0.0097 -0.5221 -0.1776
11595TIP3   OH256275   1.841   4.368  15.033  0.1733  0.2094  0.0805
11595TIP3    H156276   1.881   4.419  15.103 -0.2221 -0.6074  0.9014
11595TIP3    H256277   1.770   4.319  15.075  1.3987 -2.0713 -0.4173
11596TIP3   OH256278   3.042   3.269  13.814 -0.2216  0.6098  0.3086
11596TIP3    H156279   2.969   3.312  13.770 -1.2207 -2.0112 -0.6926
11596TIP3    H256280   3.015   3.264  13.906 -0.5317  1.1716  0.2504
11597TIP3   OH256281   5.695   4.504   3.433  0.8917  0.0522  0.2771
11597TIP3    H156282   5.752   4.526   3.359 -0.2079 -0.5172 -0.7740
11597TIP3    H256283   5.678   4.410   3.422  0.0396  0.1453  0.7748
11598TIP3   OH256284   4.446   5.357  11.226  0.5937 -0.7111  0.3291
11598TIP3    H156285   4.358   5.321  11.229  0.1564  0.1147 -2.0617
11598TIP3    H256286   4.470   5.357  11.133  1.8500  2.0901  0.5874
11599TIP3   OH256287   4.189   4.527  16.095 -0.0977 -0.4044  0.0204
11599TIP3    H156288   4.116   4.577  16.059 -1.4947 -0.6347  2.4371
11599TIP3    H256289   4.149   4.459  16.149  1.8699 -0.5814  1.3518
11600TIP3   OH256290   3.621   0.138  14.149 -0.0868 -0.2739 -0.1949
11600TIP3    H156291   3.691   0.093  14.102  2.2623  0.0544  2.7905
11600TIP3    H256292   3.634   0.230  14.129  0.8384 -0.1452  0.9243
11601TIP3   OH256293   4.116   0.948   4.591 -0.0215 -0.2389 -0.8187
11601TIP3    H156294   4.211   0.953   4.582 -0.2723  1.5927 -2.8090
11601TIP3    H256295   4.087   0.904   4.510 -0.9965  0.9006 -1.1001
11602TIP3   OH256296   0.034   1.266   5.956  0.2039 -0.1209 -0.1221
11602TIP3    H156297   0.096   1.193   5.952  0.3085 -0.0254 -0.2535
11602TIP3    H256298   0.089   1.343   5.971  0.0329 -0.1598  0.7453
11603TIP3   OH256299   4.798   2.182   4.711  0.2688 -0.6513 -0.0254
11603TIP3    H156300   4.843   2.111   4.667  1.3762  0.1636 -0.2441
11603TIP3    H256301   4.800   2.158   4.804  1.2847 -0.5584 -0.0185
11604TIP3   OH256302   2.705   5.560  13.746 -0.2349  0.3445  0.0720
11604TIP3    H156303   2.662   5.642  13.768 -1.3210 -0.2283  0.1168
11604TIP3    H256304   2.790   5.586  13.710  0.2619  1.4014  1.9435
11605TIP3   OH256305   6.263   0.832  13.756 -0.6800  0.3240 -0.1363
11605TIP3    H156306   6.266   0.773  13.831 -0.0930  0.6491  0.0978
11605TIP3    H256307   6.205   0.788  13.694 -1.2986  0.1379  0.5674
11606TIP3   OH256308   3.135   0.900  12.435 -0.2103  0.1066 -0.9488
11606TIP3    H156309   3.174   0.812  12.436  1.0442  0.6734  0.1706
11606TIP3    H256310   3.203   0.957  12.467 -1.6096  1.2810 -0.0220
11607TIP3   OH256311   0.199   0.849   6.057  0.2266  0.4437  0.1773
11607TIP3    H156312   0.127   0.788   6.075  1.1086 -0.2772  1.3838
11607TIP3    H256313   0.218   0.889   6.142 -1.1387  3.3199 -0.8422
11608TIP3   OH256314   2.139   3.296   2.441 -0.0072 -0.1885  0.1307
11608TIP3    H156315   2.052   3.312   2.477  1.1009  0.3213  2.7102
11608TIP3    H256316   2.133   3.210   2.400 -1.8185  0.0042 -0.0535
11609TIP3   OH256317   2.687   1.746   3.380  0.3649  0.2720  0.1509
11609TIP3    H156318   2.740   1.789   3.314  2.5148 -0.9120  1.0343
11609TIP3    H256319   2.738   1.753   3.461 -0.1009 -2.1671  0.7232
11610TIP3   OH256320   5.352   0.903  13.418  0.4377 -0.2324  0.2665
11610TIP3    H156321   5.410   0.829  13.398 -0.5202 -0.7675 -0.5901
11610TIP3    H256322   5.342   0.901  13.513  1.6225 -0.2799  0.4054
11611TIP3   OH256323   5.125   4.657   3.360  0.2137 -0.0969  0.2446
11611TIP3    H156324   5.189   4.670   3.430  1.9546  0.3651 -1.3806
11611TIP3    H256325   5.087   4.743   3.345  0.9052  0.1039 -0.3684
11612TIP3   OH256326   6.797   2.353  11.966  0.0237 -0.0808  0.3311
11612TIP3    H156327   6.847   2.376  11.888 -1.7826  0.0702 -0.8058
11612TIP3    H256328   6.725   2.417  11.968 -0.8164 -1.0447  1.2659
11613TIP3   OH256329   4.840   3.483  15.803 -0.4423 -0.0264  0.5797
11613TIP3    H156330   4.779   3.540  15.756 -0.2610  0.8020  1.3425
11613TIP3    H256331   4.919   3.481  15.749 -1.6846 -2.3924 -1.2375
11614TIP3   OH256332   3.413   0.887   0.777  0.1265 -0.0642 -0.3229
11614TIP3    H156333   3.474   0.900   0.849  0.3145 -1.4585 -0.2139
11614TIP3    H256334   3.360   0.966   0.775  1.4829  0.8630  0.0318
11615TIP3   OH256335   0.490   4.021  14.325 -0.3304 -0.8018 -0.5654
11615TIP3    H156336   0.505   3.927  14.317 -0.8566 -0.9899  0.5034
11615TIP3    H256337   0.405   4.035  14.283 -0.2769 -0.8189 -0.6791
11616TIP3   OH256338   2.642   5.777   0.813  0.2415 -0.1145  1.0545
11616TIP3    H156339   2.688   5.835   0.752 -1.7210  0.0708 -0.2815
11616TIP3    H256340   2.704   5.705   0.828  0.5846 -0.4446 -1.5781
11617TIP3   OH256341   3.773   4.545   0.156  0.6916  0.2109 -0.3101
11617TIP3    H156342   3.801   4.463   0.116 -0.0981  0.0130 -0.4681
11617TIP3    H256343   3.783   4.531   0.250  1.7926  0.3972 -0.3932
11618TIP3   OH256344   1.209   3.628  10.716  0.1058  0.2271 -0.4758
11618TIP3    H156345   1.204   3.677  10.634 -0.9378 -0.2424 -0.6901
11618TIP3    H256346   1.219   3.537  10.689 -0.5550  0.0387 -0.0792
11619TIP3   OH256347   3.961   4.728  15.593 -0.3617 -0.0316 -0.2583
11619TIP3    H156348   4.048   4.727  15.552 -0.2468  2.4648 -0.1127
11619TIP3    H256349   3.962   4.804  15.650 -1.7875 -1.4561  1.7107
11620TIP3   OH256350   2.841   3.350  16.186  0.1845 -0.1885 -0.7979
11620TIP3    H156351   2.888   3.352  16.269 -0.8145 -0.4153 -0.2304
11620TIP3    H256352   2.877   3.275  16.139 -2.0268 -2.4835  1.0674
11621TIP3   OH256353   0.987   0.896  13.597 -0.9055 -0.3285  0.4825
11621TIP3    H156354   0.901   0.917  13.559 -0.8002 -0.0483  0.3970
11621TIP3    H256355   1.049   0.929  13.533 -0.7325 -0.6237  0.4969
11622TIP3   OH256356   3.565   2.307   4.719  0.2208  0.0234 -0.8842
11622TIP3    H156357   3.550   2.399   4.741  0.4857 -0.2519  0.4739
11622TIP3    H256358   3.660   2.296   4.726 -0.0535 -1.0347  1.7925
11623TIP3   OH256359   1.095   4.389   1.837  0.2508 -0.3535 -0.0300
11623TIP3    H156360   1.070   4.399   1.929  0.1015 -1.0436  0.0028
11623TIP3    H256361   1.158   4.460   1.823 -1.7428  1.4456 -0.1409
11624TIP3   OH256362   2.640   3.920  16.958  0.4428  0.1706 -0.2825
11624TIP3    H156363   2.630   3.957  17.046 -0.2444 -2.2609  0.7124
11624TIP3    H256364   2.579   3.846  16.957  0.8207 -0.1341 -2.6500
11625TIP3   OH256365   2.799   4.234   5.501 -0.3023 -0.8967 -0.3537
11625TIP3    H156366   2.766   4.237   5.411  1.9095  1.5902 -1.1186
11625TIP3    H256367   2.763   4.313   5.543  0.4063 -0.9271  0.3244
11626TIP3   OH256368   4.451   5.372  14.585  0.0233  0.0809  0.2409
11626TIP3    H156369   4.465   5.378  14.680 -0.7676 -0.9602  0.4404
11626TIP3    H256370   4.521   5.424  14.547  2.6125 -2.4905  1.3085
11627TIP3   OH256371   4.420   2.664  14.674  0.3068 -0.5422  0.2197
11627TIP3    H156372   4.385   2.584  14.713 -1.2120 -0.3553 -0.6985
11627TIP3    H256373   4.398   2.733  14.737 -0.7436 -0.4729 -0.2091
11628TIP3   OH256374   6.628   4.936   2.040 -0.1827 -0.7395  0.1624
11628TIP3    H156375   6.685   4.903   1.971 -1.2792 -0.8687 -0.6859
11628TIP3    H256376   6.558   4.871   2.046 -1.1395  0.2771  0.0495
11629TIP3   OH256377   5.834   6.346  16.273  0.2061  0.4701  0.6814
11629TIP3    H156378   5.896   6.412  16.302  2.1073 -0.6225 -0.7321
11629TIP3    H256379   5.810   6.373  16.184 -0.6178  0.3768  0.8736
11630TIP3   OH256380   5.328   3.038  15.941  0.2412  0.3513 -0.1613
11630TIP3    H156381   5.370   2.994  15.867  1.0076  0.3972  0.2364
11630TIP3    H256382   5.294   2.968  15.995 -0.2807  0.3161 -0.5385
11631TIP3   OH256383   0.490   0.773  13.876 -0.1042 -0.4595  0.0401
11631TIP3    H156384   0.556   0.839  13.858 -1.3116  0.5417 -0.7996
11631TIP3    H256385   0.524   0.723  13.950  1.3410  0.3701 -0.0685
11632TIP3   OH256386   3.145   5.373  11.536 -0.3377 -0.2459  0.2932
11632TIP3    H156387   3.140   5.312  11.463 -0.3776 -1.6900  1.4962
11632TIP3    H256388   3.072   5.433  11.522 -1.1052 -1.2871 -0.1399
11633TIP3   OH256389   0.887   1.397  16.917  0.3964 -1.1406 -0.6157
11633TIP3    H156390   0.803   1.359  16.891  0.3332 -1.7698  0.4792
11633TIP3    H256391   0.905   1.358  17.003  1.8945 -1.1587 -0.9304
11634TIP3   OH256392   2.224   0.196  11.863 -0.1700  0.4763  0.1177
11634TIP3    H156393   2.222   0.136  11.789  0.3053  0.4552  0.1186
11634TIP3    H256394   2.180   0.149  11.934 -1.8325  1.0318 -0.5322
11635TIP3   OH256395   4.891   5.162  14.808  0.0017  0.4779 -0.5738
11635TIP3    H156396   4.797   5.153  14.822  0.0823 -0.0969 -0.4103
11635TIP3    H256397   4.931   5.120  14.884  0.4561 -4.0649 -3.1650
11636TIP3   OH256398   5.442   6.024  16.443 -0.1748  0.0722  0.5178
11636TIP3    H156399   5.451   6.026  16.347 -2.4450 -2.4543  0.1771
11636TIP3    H256400   5.504   5.957  16.471  1.3693  1.6637  0.9780
11637TIP3   OH256401   0.063   6.641  15.721  0.3037 -0.1574 -0.1003
11637TIP3    H156402   0.006   6.700  15.770 -1.0160 -0.7343 -0.9210
11637TIP3    H256403   0.147   6.687  15.717  0.0062  0.5645  1.3853
11638TIP3   OH256404   4.796   2.607  16.938  0.2547  0.1399 -0.1179
11638TIP3    H156405   4.728   2.662  16.977 -0.6546 -0.0375 -1.4410
11638TIP3    H256406   4.876   2.632  16.984 -0.6602  0.5012  1.2974
11639TIP3   OH256407   3.803   0.829  11.539 -0.1004 -0.3554  0.2258
11639TIP3    H156408   3.717   0.847  11.501  0.6380  1.2522 -0.7578
11639TIP3    H256409   3.797   0.863  11.629 -0.5085 -0.2806  0.1725
11640TIP3   OH256410   2.454   3.726   3.449  0.3333  0.1961  0.5057
11640TIP3    H156411   2.359   3.734   3.452  0.2720 -0.5620  0.5407
11640TIP3    H256412   2.483   3.757   3.535  0.2031  1.5470  0.0747
11641TIP3   OH256413   2.389   1.788  15.881 -0.5855  0.0023 -0.2602
11641TIP3    H156414   2.416   1.796  15.973 -1.3001  0.0078 -0.0529
11641TIP3    H256415   2.453   1.727  15.843 -1.5706 -1.7438  0.7782
11642TIP3   OH256416   4.031   0.112   0.816 -0.1328  0.0244 -0.7352
11642TIP3    H156417   4.105   0.151   0.862  0.6299 -1.0179 -1.0611
11642TIP3    H256418   3.979   0.187   0.787  0.8743  0.7731 -0.6311
11643TIP3   OH256419   4.905   1.668   3.089  0.1198 -0.6901  0.5146
11643TIP3    H156420   4.817   1.696   3.065  1.1164  0.7802 -1.5161
11643TIP3    H256421   4.900   1.651   3.183 -1.7925  1.4081  0.8242
11644TIP3   OH256422   5.750   4.994  11.517 -0.0603  0.4675  0.6086
11644TIP3    H156423   5.769   4.902  11.500  2.4228  1.4673 -2.7223
11644TIP3    H256424   5.759   5.005  11.611  1.9142 -2.2191  0.7572
11645TIP3   OH256425   6.183   2.547  12.228 -0.1364 -0.1095  0.3403
11645TIP3    H156426   6.184   2.563  12.133 -0.4526 -0.1198  0.3349
11645TIP3    H256427   6.215   2.629  12.266  2.2113 -0.8999  0.1253
11646TIP3   OH256428   5.756   5.178  16.546  0.0528 -0.0355  0.9200
11646TIP3    H156429   5.751   5.245  16.478 -0.7688 -2.7166 -1.8340
11646TIP3    H256430   5.837   5.196  16.593  1.6963  0.7828 -2.1073
11647TIP3   OH256431   5.909   6.553   2.287  0.3273 -0.2520 -0.2399
11647TIP3    H156432   5.934   6.504   2.209 -1.2492  0.7552 -1.4022
11647TIP3    H256433   5.823   6.520   2.310 -0.5265  1.5714 -0.7306
11648TIP3   OH256434   0.595   0.055  12.954  0.2503  0.1834 -0.0276
11648TIP3    H156435   0.616   0.079  12.863  0.4601  0.8150  0.1811
11648TIP3    H256436   0.511   0.099  12.970 -0.0761 -0.4086 -0.1032
11649TIP3   OH256437   0.341   3.151  16.474  0.0779  0.2690 -0.0609
11649TIP3    H156438   0.315   3.072  16.522  0.1078 -0.7412 -1.6721
11649TIP3    H256439   0.368   3.212  16.542 -1.5154 -0.5183  1.3182
11650TIP3   OH256440   2.372   4.556  11.146 -0.4015 -0.7538  0.0055
11650TIP3    H156441   2.419   4.576  11.065 -0.6657  0.8460  0.2294
11650TIP3    H256442   2.302   4.496  11.120 -0.3251 -0.4439 -0.9067
11651TIP3   OH256443   4.489   5.209   3.119  0.1286 -0.5415 -0.4860
11651TIP3    H156444   4.423   5.151   3.158 -0.1291  0.6498  0.9121
11651TIP3    H256445   4.500   5.279   3.184  2.3087 -0.3870 -0.9883
11652TIP3   OH256446   2.757   5.901  10.626  0.0787 -0.1040 -0.2575
11652TIP3    H156447   2.826   5.854  10.672 -1.2775 -1.1461  0.7767
11652TIP3    H256448   2.682   5.841  10.627 -1.8043  2.1308  1.3658
11653TIP3   OH256449   6.563   4.378   6.278  0.3571 -0.0569 -0.6055
11653TIP3    H156450   6.525   4.450   6.329  0.7680  2.1735 -3.3419
11653TIP3    H256451   6.543   4.300   6.329  1.9812  2.1695  3.7105
11654TIP3   OH256452   6.103   2.137  11.286 -0.1005  0.2694  0.8317
11654TIP3    H156453   6.108   2.092  11.371 -0.8129 -0.7287  0.3533
11654TIP3    H256454   6.193   2.161  11.266  0.0108  0.9676  2.1199
11655TIP3   OH256455   4.712   4.457  10.965 -0.1288 -0.0625 -0.1182
11655TIP3    H156456   4.664   4.455  10.883 -0.6522 -2.8683  0.1934
11655TIP3    H256457   4.796   4.416  10.945  0.0481 -0.0426  0.5515
11656TIP3   OH256458   0.287   0.634   2.312 -0.4197  0.3105  0.3226
11656TIP3    H156459   0.266   0.585   2.232  1.6606 -0.6402  0.3232
11656TIP3    H256460   0.293   0.725   2.284 -0.6974  0.1025 -0.4165
11657TIP3   OH256461   1.042   6.067  17.099 -0.6080 -0.1210  0.0230
11657TIP3    H156462   1.034   5.983  17.054  0.2828  0.0069 -0.3864
11657TIP3    H256463   1.119   6.108  17.060  0.4711 -0.2252  1.9920
11658TIP3   OH256464   6.367   2.515   2.958  0.5360  0.8799 -0.6361
11658TIP3    H156465   6.338   2.600   2.925  0.2722  0.4348 -1.5666
11658TIP3    H256466   6.305   2.452   2.921 -0.3033  0.4488  1.4375
11659TIP3   OH256467   4.627   1.176   4.679  0.7285 -0.2273 -0.3020
11659TIP3    H156468   4.679   1.184   4.759  0.6443  0.5601 -0.3292
11659TIP3    H256469   4.690   1.185   4.608  0.6498  0.0850 -0.3318
11660TIP3   OH256470   6.612   5.955  13.231  0.0655  0.5655 -0.1490
11660TIP3    H156471   6.624   6.023  13.165 -1.5459  0.5602 -0.4733
11660TIP3    H256472   6.564   5.886  13.185 -0.4565  0.2628  0.8412
11661TIP3   OH256473   0.946   6.652   5.884  0.1358  0.1220  0.4002
11661TIP3    H156474   0.994   6.637   5.964  0.7143 -0.6380 -0.0909
11661TIP3    H256475   0.904   6.569   5.864 -0.9481  0.6226  0.5304
11662TIP3   OH256476   5.458   2.804  12.604  0.5123  0.5355  0.2592
11662TIP3    H156477   5.454   2.718  12.562 -0.7985  0.8435 -0.2766
11662TIP3    H256478   5.520   2.793  12.676  1.1736 -0.5652 -0.4744
11663TIP3   OH256479   0.042   6.701   2.169  0.4988 -0.0225 -0.4260
11663TIP3    H156480  -0.026   6.638   2.189  0.3629  0.7699  1.7828
11663TIP3    H256481   0.117   6.648   2.140  0.3412 -1.1969  1.2470
11664TIP3   OH256482   6.568   1.145  13.056 -0.5203 -0.0210 -0.1034
11664TIP3    H156483   6.504   1.088  13.099 -0.0562 -0.5728 -0.1442
11664TIP3    H256484   6.517   1.223  13.032 -1.8400 -1.6147 -2.6612
11665TIP3   OH256485   6.530   2.304   3.041 -0.4977  0.4217 -0.2740
11665TIP3    H156486   6.484   2.376   2.999 -0.5432  1.8247  2.0402
11665TIP3    H256487   6.598   2.347   3.094 -0.1595 -1.2619  0.7034
11666TIP3   OH256488   2.432   5.470   3.989  0.0865 -0.7958  0.5683
11666TIP3    H156489   2.451   5.414   4.065  0.3913 -0.2117  0.9260
11666TIP3    H256490   2.516   5.479   3.944 -0.0376 -0.9217  0.3110
11667TIP3   OH256491   1.617   5.884  14.363 -0.0709 -0.5379  0.1180
11667TIP3    H156492   1.544   5.824  14.374  0.7260 -1.3574  1.0650
11667TIP3    H256493   1.644   5.906  14.452  2.1938 -1.9629 -0.1701
11668TIP3   OH256494   6.107   2.808  11.631 -0.2160  0.4732  0.2243
11668TIP3    H156495   6.068   2.731  11.589  0.2612 -0.3354  1.2681
11668TIP3    H256496   6.172   2.840  11.568 -0.9945  0.5210 -0.5665
11669TIP3   OH256497   0.906   4.904   2.011  0.2739  0.4387 -0.1252
11669TIP3    H156498   0.820   4.930   1.976  0.9233 -0.1529 -2.1769
11669TIP3    H256499   0.901   4.809   2.020  0.1061  0.5796  1.4646
11670TIP3   OH256500   1.380   2.246   5.476 -0.5765  0.2098 -0.1975
11670TIP3    H156501   1.413   2.298   5.550 -0.6694 -0.6119  0.4183
11670TIP3    H256502   1.433   2.167   5.476 -2.5308 -1.1217  0.7875
11671TIP3   OH256503   0.992   2.544  11.948  0.4914 -0.0690 -0.4746
11671TIP3    H156504   1.022   2.626  11.987 -0.0738  0.4801 -1.1839
11671TIP3    H256505   1.048   2.531  11.872  0.1836 -0.0207 -0.7132
11672TIP3   OH256506   2.598   0.909  14.477  0.0317  0.4722  0.3234
11672TIP3    H156507   2.540   0.874  14.544  0.9587 -0.4872  0.6465
11672TIP3    H256508   2.613   1.000  14.503 -0.5957  0.4629  0.7278
11673TIP3   OH256509   5.446   2.652  15.641 -0.1619  0.3830  0.2887
11673TIP3    H156510   5.403   2.579  15.685 -0.1789 -0.1163 -0.5430
11673TIP3    H256511   5.377   2.691  15.587 -0.5356  1.9234  1.8300
11674TIP3   OH256512   6.704   4.868  15.936  0.0068 -0.0108 -0.3145
11674TIP3    H156513   6.704   4.892  15.843 -0.1395  0.2567 -0.2464
11674TIP3    H256514   6.631   4.918  15.974 -0.1344 -0.3602 -0.1174
11675TIP3   OH256515   1.761   6.384  11.804 -0.2611  0.0281 -0.0271
11675TIP3    H156516   1.799   6.347  11.724 -0.8642 -2.5879  0.8472
11675TIP3    H256517   1.830   6.377  11.869 -0.5634 -0.0577  0.2875
11676TIP3   OH256518   2.822   0.337  16.244 -0.2183  0.3145  0.2804
11676TIP3    H156519   2.864   0.263  16.287  1.0419  1.2612  0.7270
11676TIP3    H256520   2.732   0.310  16.230  0.0153 -0.9604  1.2272
11677TIP3   OH256521   4.558   2.502   5.232  0.3932  0.6767 -0.4368
11677TIP3    H156522   4.615   2.531   5.304 -1.1613  2.1428  0.2315
11677TIP3    H256523   4.608   2.523   5.153  1.5944  0.1754  0.1627
11678TIP3   OH256524   3.439   1.748  13.677 -0.1516  0.0872  0.8363
11678TIP3    H156525   3.490   1.817  13.718  0.2536  0.1351  0.2534
11678TIP3    H256526   3.360   1.741  13.732  1.3441 -1.3271  2.8684
11679TIP3   OH256527   3.283   0.798  15.536  0.4239  0.6018  0.2005
11679TIP3    H156528   3.236   0.812  15.454  0.6172  1.6893  0.2684
11679TIP3    H256529   3.308   0.706  15.534 -0.9824  0.2245 -0.2169
11680TIP3   OH256530   3.591   0.172   1.001  0.3911  0.0706 -0.3843
11680TIP3    H156531   3.522   0.212   0.948 -0.5005 -0.1886  0.5772
11680TIP3    H256532   3.604   0.086   0.962 -1.0047 -0.5301  0.4499
11681TIP3   OH256533   2.024   6.719   4.150 -0.6133 -0.3700 -0.2847
11681TIP3    H156534   1.988   6.649   4.206  1.1634 -0.3265  0.9506
11681TIP3    H256535   2.067   6.672   4.079 -0.5253 -0.4925 -0.1509
11682TIP3   OH256536   5.224   2.349  16.403 -0.3652 -0.0422  0.4793
11682TIP3    H156537   5.148   2.407  16.397  0.1657  0.5612 -0.5045
11682TIP3    H256538   5.201   2.287  16.472 -2.1977 -0.5208 -0.5116
11683TIP3   OH256539   0.811   2.383   4.683  0.1109 -0.3822  0.2370
11683TIP3    H156540   0.861   2.423   4.613  1.2719  0.5544  1.5695
11683TIP3    H256541   0.725   2.426   4.679  0.4226  0.2086 -0.1416
11684TIP3   OH256542   5.757   1.712  16.931 -0.3669  0.2304 -0.0467
11684TIP3    H156543   5.849   1.726  16.907  0.0522 -2.2923 -0.0935
11684TIP3    H256544   5.707   1.743  16.856  0.5287  0.4468 -0.5588
11685TIP3   OH256545   1.404   2.459  14.676 -0.1889  0.2598  0.7725
11685TIP3    H156546   1.487   2.430  14.637 -0.4720  0.3043  0.1399
11685TIP3    H256547   1.390   2.398  14.749  1.0116  0.9847  1.6338
11686TIP3   OH256548   1.752   4.251   2.968  0.3601 -0.2461  0.2494
11686TIP3    H156549   1.761   4.200   2.887  1.3971  0.8621 -0.3393
11686TIP3    H256550   1.819   4.318   2.962  3.1360 -2.5000  3.8145
11687TIP3   OH256551   0.285   2.379  12.683 -0.5826  0.0369  0.2091
11687TIP3    H156552   0.373   2.386  12.722 -0.7909  2.0395  0.4021
11687TIP3    H256553   0.286   2.444  12.613 -1.2575 -1.3624 -1.1113
11688TIP3   OH256554   5.637   5.954  12.441 -0.2019  0.0286 -0.0998
11688TIP3    H156555   5.697   5.932  12.370  0.1441 -0.3771  0.3153
11688TIP3    H256556   5.576   5.880  12.445  1.8876 -1.6590  2.3103
11689TIP3   OH256557   3.993   6.764   3.219  0.0047 -0.1628 -0.0260
11689TIP3    H156558   4.032   6.799   3.299 -0.1752 -0.1137  0.0422
11689TIP3    H256559   4.043   6.802   3.148  1.0087 -1.2340  0.0990
11690TIP3   OH256560   2.964   0.374  14.941 -0.1224  0.4467  0.5296
11690TIP3    H156561   3.025   0.329  14.883  1.5958  2.0781  1.0274
11690TIP3    H256562   2.922   0.304  14.991  3.7076 -0.5787  2.5174
11691TIP3   OH256563   3.698   0.817   1.319  0.4722  0.0927  0.2641
11691TIP3    H156564   3.787   0.832   1.349  0.0846  2.6068  0.2434
11691TIP3    H256565   3.707   0.795   1.226  1.0349  1.1018  0.0730
11692TIP3   OH256566   0.837   2.976  16.577  0.1943  0.1305  0.1605
11692TIP3    H156567   0.850   3.070  16.588  0.1815  0.3299 -1.4230
11692TIP3    H256568   0.743   2.966  16.564  0.5220  0.2019 -2.3917
11693TIP3   OH256569   3.928   1.740   4.264  0.3359  0.4789 -0.3216
11693TIP3    H156570   3.855   1.779   4.216 -0.5576 -0.0562  0.5977
11693TIP3    H256571   4.002   1.799   4.246 -0.7374  2.0301  0.2030
11694TIP3   OH256572   0.096   4.976  14.659  0.2487  0.4218 -0.2197
11694TIP3    H156573   0.113   5.070  14.663  0.3708  0.4748 -1.6947
11694TIP3    H256574   0.026   4.967  14.593 -0.8851 -0.3786  1.0563
11695TIP3   OH256575   3.326   1.380  11.672 -0.2255  0.0097  0.0562
11695TIP3    H156576   3.371   1.378  11.588 -0.3631 -0.1548 -0.0129
11695TIP3    H256577   3.233   1.368  11.650 -0.6716  3.1299 -0.0733
11696TIP3   OH256578   0.965   0.288   5.583 -0.4954 -0.6901 -0.1323
11696TIP3    H156579   1.007   0.280   5.497  0.7235  0.7901  0.3004
11696TIP3    H256580   0.998   0.213   5.633  1.4972  0.3084  0.1189
11697TIP3   OH256581   6.435   1.018   2.702 -0.2079  0.6104 -0.2651
11697TIP3    H156582   6.399   0.929   2.701  2.1924 -0.4637  1.3119
11697TIP3    H256583   6.497   1.019   2.629 -1.8871  1.7647 -1.6976
11698TIP3   OH256584   2.019   4.019  12.018 -0.2099  0.2973  0.3838
11698TIP3    H156585   2.086   4.082  11.989  0.7456 -1.5829 -1.6703
11698TIP3    H256586   2.069   3.950  12.061 -1.1363  0.3099  1.4871
11699TIP3   OH256587   3.720   3.441   3.568  0.5900 -0.1940  0.0190
11699TIP3    H156588   3.698   3.430   3.476  1.3318 -2.2104  0.0737
11699TIP3    H256589   3.640   3.477   3.608  0.2194  0.5321 -1.3493
11700TIP3   OH256590   6.751   5.038   4.737  0.7745  0.1981 -0.2581
11700TIP3    H156591   6.743   5.133   4.738 -1.1262  0.0547 -0.7512
11700TIP3    H256592   6.786   5.017   4.650  1.0242  0.4274 -0.2130
11701TIP3   OH256593   4.081   4.068  14.877  1.2738 -0.8147 -0.0485
11701TIP3    H156594   4.076   4.005  14.805 -1.8417 -0.5130 -0.1676
11701TIP3    H256595   4.058   4.017  14.955 -1.6695  0.2019 -0.2008
11702TIP3   OH256596   0.168   2.082  15.902  0.4950  0.3014  0.0053
11702TIP3    H156597   0.169   2.084  15.806 -3.2678  0.3485 -0.0930
11702TIP3    H256598   0.104   2.015  15.924  0.3023  1.2444  2.4792
11703TIP3   OH256599   0.461   2.640  14.913  0.3661 -0.2512  0.6159
11703TIP3    H156600   0.454   2.700  14.839  2.5669  2.1339  2.2561
11703TIP3    H256601   0.372   2.636  14.949 -0.2484  0.3302 -0.7812
11704TIP3   OH256602   1.748   4.013   4.379  0.2239  0.1321 -0.7338
11704TIP3    H156603   1.834   4.054   4.386  0.0853  0.2541  0.2800
11704TIP3    H256604   1.709   4.023   4.466 -0.2278 -1.2149 -0.7674
11705TIP3   OH256605   4.238   3.729   0.469  0.2978  0.2416  0.0447
11705TIP3    H156606   4.174   3.684   0.414  0.7244 -0.5395  0.1750
11705TIP3    H256607   4.254   3.812   0.425 -0.1705  0.0752 -0.4403
11706TIP3   OH256608   3.639   2.412   6.881  0.2293 -0.0941  0.0888
11706TIP3    H156609   3.648   2.319   6.859 -0.5771  0.0777 -0.9880
11706TIP3    H256610   3.725   2.437   6.915  0.8585 -0.8986 -0.8857
11707TIP3   OH256611   0.412   1.435  11.120 -0.1642 -0.3639 -0.3758
11707TIP3    H156612   0.474   1.458  11.190  1.3630  1.7813 -2.3772
11707TIP3    H256613   0.357   1.513  11.109 -0.5362 -0.7621 -1.4164
11708TIP3   OH256614   1.423   0.872   6.459  0.2179 -0.7812 -0.4616
11708TIP3    H156615   1.515   0.893   6.478  0.0266  0.2794 -0.6615
11708TIP3    H256616   1.387   0.845   6.543  0.5551 -0.5943 -0.2528
11709TIP3   OH256617   3.339   6.300   2.164  0.0159 -0.2426  0.0314
11709TIP3    H156618   3.299   6.314   2.078 -2.2270 -2.4894  0.6377
11709TIP3    H256619   3.426   6.266   2.145 -0.0825  0.2771 -1.3583
11710TIP3   OH256620   3.392   2.751  15.711 -0.4944  0.0561 -0.3993
11710TIP3    H156621   3.416   2.757  15.804 -0.5726  1.1162 -0.4417
11710TIP3    H256622   3.415   2.661  15.687 -1.0719 -0.4334  0.8092
11711TIP3   OH256623   1.266   6.258  12.712 -1.0927 -0.0221 -0.0929
11711TIP3    H156624   1.359   6.238  12.719 -0.4387  1.7373 -2.7817
11711TIP3    H256625   1.222   6.184  12.752  1.4396 -1.4478  0.1558
11712TIP3   OH256626   0.766   4.609  16.298  0.0752 -0.2973 -0.1929
11712TIP3    H156627   0.720   4.538  16.253  0.1868 -0.3886 -0.1643
11712TIP3    H256628   0.750   4.686  16.244  0.4261 -0.4595 -0.5284
11713TIP3   OH256629   1.888   2.521  13.930  0.3749  0.5515 -0.4611
11713TIP3    H156630   1.926   2.609  13.931  0.5761  0.4643  0.4596
11713TIP3    H256631   1.964   2.462  13.931  0.3083  0.3310 -3.6640
11714TIP3   OH256632   1.636   5.519   0.807  0.2156 -0.1159  0.2674
11714TIP3    H156633   1.710   5.459   0.820 -0.1785 -0.9930 -1.3525
11714TIP3    H256634   1.626   5.523   0.712 -0.5987  1.5225  0.4160
11715TIP3   OH256635   4.457   0.676  13.130  0.8304 -0.2417 -0.3480
11715TIP3    H156636   4.389   0.681  13.062 -0.3558 -0.6378  0.7959
11715TIP3    H256637   4.506   0.757  13.120 -1.8840  1.6655  0.9478
11716TIP3   OH256638   2.025   1.412   3.899 -0.4682  0.4448 -0.0972
11716TIP3    H156639   1.992   1.333   3.856 -1.2699  1.2786 -1.0559
11716TIP3    H256640   2.119   1.411   3.884 -0.5001 -0.2481 -0.2361
11717TIP3   OH256641   6.579   5.212   6.463  0.0850  0.1304  0.4478
11717TIP3    H156642   6.607   5.278   6.526  1.1899  1.7602 -1.6759
11717TIP3    H256643   6.660   5.185   6.419 -0.7213 -0.6760 -0.5732
11718TIP3   OH256644   6.658   3.019  14.731 -0.0422 -0.1840  0.0255
11718TIP3    H156645   6.684   2.959  14.661 -1.8201 -0.6173 -0.2915
11718TIP3    H256646   6.735   3.023  14.789  1.0692 -0.6297 -1.3821
11719TIP3   OH256647   4.074   5.748  16.763 -0.4880  0.0666 -0.2855
11719TIP3    H156648   4.131   5.701  16.702 -0.0813 -0.4729  0.4876
11719TIP3    H256649   3.992   5.698  16.762 -0.5239  0.1313 -0.4833
11720TIP3   OH256650   3.719   6.082  13.793 -0.8887  0.2371 -0.4975
11720TIP3    H156651   3.775   6.158  13.804 -0.5752 -0.0918  0.2060
11720TIP3    H256652   3.634   6.117  13.767 -0.6995  0.8093 -0.3311
11721TIP3   OH256653   4.520   3.060   2.687  0.3184  0.4233 -0.0143
11721TIP3    H156654   4.535   3.101   2.772  2.1881  1.7230 -0.9493
11721TIP3    H256655   4.425   3.067   2.674  0.2680  2.0132  1.0650
11722TIP3   OH256656   5.593   0.699  11.937  0.3852  0.6620 -0.4002
11722TIP3    H156657   5.553   0.612  11.933 -1.1737  1.3690 -0.5258
11722TIP3    H256658   5.685   0.682  11.960 -0.0923 -0.9533  0.3779
11723TIP3   OH256659   4.937   6.124  13.235  0.2204  0.1984 -0.0774
11723TIP3    H156660   4.875   6.135  13.308 -1.4911  0.6361 -1.5750
11723TIP3    H256661   4.907   6.044  13.190  2.0686 -0.8193  0.4542
11724TIP3   OH256662   3.151   2.020  12.731 -0.6718 -0.1804  0.3551
11724TIP3    H156663   3.157   2.085  12.802 -0.7008  1.3619 -1.0290
11724TIP3    H256664   3.070   1.973  12.748 -2.2601  2.2358 -0.3541
11725TIP3   OH256665   2.306   5.082   2.931  0.3185 -0.1395  0.0221
11725TIP3    H156666   2.263   5.070   3.015  0.5782  1.3798  0.3700
11725TIP3    H256667   2.316   4.993   2.897 -0.1510 -0.7295  1.4007
11726TIP3   OH256668   1.758   4.113  15.795 -0.0524  0.1904  0.0445
11726TIP3    H156669   1.843   4.154  15.809 -0.4601  1.4422 -0.9971
11726TIP3    H256670   1.775   4.020  15.804  1.5144  0.4007 -0.5126
11727TIP3   OH256671   0.895   4.206   5.539 -0.1111  0.6354  0.8920
11727TIP3    H156672   0.832   4.168   5.478  1.0841 -1.1220  0.7315
11727TIP3    H256673   0.846   4.276   5.582 -1.7484  0.2205 -0.2315
11728TIP3   OH256674   4.433   2.768  12.255  0.5196  0.2486 -0.5654
11728TIP3    H156675   4.435   2.673  12.244 -2.7641 -0.0003  0.5247
11728TIP3    H256676   4.394   2.801  12.174  1.2943  0.6516 -0.7799
11729TIP3   OH256677   2.702   3.286   6.574  0.0332  0.4146  0.2354
11729TIP3    H156678   2.789   3.259   6.603  0.5049  1.8087  0.1260
11729TIP3    H256679   2.648   3.208   6.587  1.3492 -0.5461  0.0384
11730TIP3   OH256680   3.300   4.360   5.674 -0.3431  0.3442 -0.0404
11730TIP3    H156681   3.218   4.310   5.673 -0.8239  1.1250 -0.0948
11730TIP3    H256682   3.366   4.297   5.704 -1.0147 -0.2051  0.3056
11731TIP3   OH256683   0.459   4.555  14.629  0.0560 -0.4429  0.5374
11731TIP3    H156684   0.449   4.640  14.672  1.1112  0.6627 -1.3261
11731TIP3    H256685   0.529   4.568  14.565  0.5689 -2.8558  0.5429
11732TIP3   OH256686   3.392   5.507  11.566 -0.2180  0.1104 -0.5998
11732TIP3    H156687   3.320   5.448  11.542  0.3862 -0.2663 -1.5015
11732TIP3    H256688   3.350   5.593  11.576 -0.8213 -0.1418 -0.9520
11733TIP3   OH256689   1.649   3.539   5.505  0.3338 -0.1004  0.4062
11733TIP3    H156690   1.642   3.482   5.582  0.8930 -0.2709  0.3326
11733TIP3    H256691   1.730   3.512   5.462  0.5697  0.7043  0.3289
11734TIP3   OH256692   5.688   0.191  12.607 -0.4647  0.0701  0.0424
11734TIP3    H156693   5.712   0.123  12.668 -1.1175 -2.3089 -2.2610
11734TIP3    H256694   5.771   0.232  12.581  0.0178 -0.5011  0.6974
11735TIP3   OH256695   4.370   4.783  12.883 -0.8174  0.4779  0.3666
11735TIP3    H156696   4.378   4.829  12.799  0.7363  0.9522  0.7742
11735TIP3    H256697   4.287   4.814  12.919 -0.6405  1.6129 -0.1781
11736TIP3   OH256698   0.306   5.294  12.201 -0.2491 -0.4070  0.2480
11736TIP3    H156699   0.213   5.309  12.181  0.3137  0.6502 -1.6744
11736TIP3    H256700   0.331   5.368  12.256  0.2829  1.1424 -2.0099
11737TIP3   OH256701   5.322   5.149   3.766  0.2869  0.1589 -0.7157
11737TIP3    H156702   5.334   5.054   3.770  1.1687  0.3085  0.4854
11737TIP3    H256703   5.342   5.179   3.855  0.2975  1.4925 -1.1664
11738TIP3   OH256704   5.429   1.135   3.311 -0.5616 -0.0260  0.5116
11738TIP3    H156705   5.522   1.143   3.290 -0.6403  0.9046  0.4923
11738TIP3    H256706   5.387   1.114   3.227 -0.4425  0.1486  0.4091
11739TIP3   OH256707   6.233   2.491   0.576 -0.0253  0.2689 -0.1326
11739TIP3    H156708   6.323   2.514   0.600  0.2595 -0.4520 -0.4928
11739TIP3    H256709   6.239   2.400   0.546 -0.8561  0.2568 -0.2647
11740TIP3   OH256710   0.218   0.285  12.756  0.0175 -0.2537 -0.2778
11740TIP3    H156711   0.136   0.332  12.763  0.3233 -0.0568  2.8026
11740TIP3    H256712   0.247   0.299  12.666 -2.4553  1.0922 -0.8907
11741TIP3   OH256713   4.976   6.110  14.211 -0.1634  0.5516 -0.0190
11741TIP3    H156714   4.913   6.179  14.193  0.2906  0.8709 -0.4038
11741TIP3    H256715   5.023   6.141  14.289 -0.1788  0.5316 -0.0014
11742TIP3   OH256716   1.056   4.631  17.014 -0.0207 -0.3209  0.0687
11742TIP3    H156717   1.050   4.624  17.110 -0.5649 -0.1676  0.0502
11742TIP3    H256718   0.993   4.566  16.982 -0.0238 -0.1905 -0.1828
11743TIP3   OH256719   2.060   0.319   4.167  0.2546 -0.1224  0.0088
11743TIP3    H156720   2.075   0.351   4.078  0.5242 -0.5465 -0.0959
11743TIP3    H256721   2.128   0.254   4.181  1.3192  1.2079  1.1701
11744TIP3   OH256722   4.508   3.718  12.935  0.1026  0.1308  0.2286
11744TIP3    H156723   4.499   3.623  12.927  1.4197  0.0884 -0.8798
11744TIP3    H256724   4.602   3.733  12.941 -0.0278  1.4508 -0.7665
11745TIP3   OH256725   4.645   0.434   1.675  0.0382  0.1149  0.2028
11745TIP3    H156726   4.715   0.369   1.665  0.2625  0.6686 -2.0087
11745TIP3    H256727   4.604   0.438   1.589 -0.8467  1.9200  0.6941
11746TIP3   OH256728   0.046   2.390   6.938  0.6116  0.0499 -1.0433
11746TIP3    H156729   0.050   2.400   7.033 -0.4212  0.0807 -1.0012
11746TIP3    H256730  -0.009   2.312   6.924  2.8955 -1.5136 -1.5548
11747TIP3   OH256731   3.676   3.182  12.637 -0.1894 -0.4019 -0.1048
11747TIP3    H156732   3.624   3.219  12.708 -1.0740 -0.0686 -0.9232
11747TIP3    H256733   3.765   3.215  12.653 -0.7218  1.0768 -0.1163
11748TIP3   OH256734   2.376   0.333  14.396 -0.6749 -0.5562  0.0768
11748TIP3    H156735   2.288   0.371  14.401 -0.7582 -0.4997 -1.5707
11748TIP3    H256736   2.361   0.239  14.396 -0.7723 -0.5426 -0.7314
11749TIP3   OH256737   3.666   4.849  16.958  0.2483 -0.4086  0.1730
11749TIP3    H156738   3.656   4.782  16.891 -1.7091 -1.9239  1.9360
11749TIP3    H256739   3.754   4.834  16.993  0.2639 -1.2850 -0.2283
11750TIP3   OH256740   0.298   0.193  10.798  0.3304 -0.6828  0.4747
11750TIP3    H156741   0.366   0.245  10.756 -0.2079 -0.7166 -0.4550
11750TIP3    H256742   0.216   0.232  10.767 -0.0856 -2.8925 -1.2451
11751TIP3   OH256743   0.323   2.440   1.687 -0.1388  0.3823 -0.8076
11751TIP3    H156744   0.351   2.356   1.724  1.3091  0.9528 -0.5711
11751TIP3    H256745   0.238   2.457   1.728  1.1298  0.6781  1.7805
11752TIP3   OH256746   4.943   6.516   2.309 -0.7432 -0.2380  0.5713
11752TIP3    H156747   4.873   6.563   2.264 -0.9193 -0.1697  0.9197
11752TIP3    H256748   5.022   6.539   2.259 -1.0533 -0.7954 -0.1789
11753TIP3   OH256749   5.739   4.308  15.053 -0.5259 -0.3159  0.1607
11753TIP3    H156750   5.760   4.338  15.141  0.3258  0.1734 -0.1943
11753TIP3    H256751   5.646   4.325  15.043 -0.1585  1.8378  0.1249
11754TIP3   OH256752   6.739   6.321  13.133  0.0138 -0.0795  0.0051
11754TIP3    H156753   6.757   6.279  13.049  0.1804  0.7704 -0.3873
11754TIP3    H256754   6.799   6.279  13.195 -0.5213 -1.1157 -0.1764
11755TIP3   OH256755   2.033   3.079  12.107  0.3204 -0.0122 -0.2080
11755TIP3    H156756   2.110   3.120  12.067  0.9730 -0.9295  0.0779
11755TIP3    H256757   2.069   3.009  12.162 -0.7919 -1.5642 -1.3918
11756TIP3   OH256758   0.911   1.857   5.360 -0.0894 -0.4613  0.6955
11756TIP3    H156759   0.888   1.817   5.276  0.0602 -0.7864  0.8089
11756TIP3    H256760   0.845   1.925   5.372  0.8882  0.7054 -0.4804
11757TIP3   OH256761   4.278   4.830   0.583  0.2114 -0.1438 -0.2173
11757TIP3    H156762   4.300   4.768   0.513 -0.1781 -1.9114  1.1817
11757TIP3    H256763   4.361   4.849   0.625  0.3910  0.6201 -0.9095
11758TIP3   OH256764   4.546   0.314  14.412  0.0536  0.1618  0.3864
11758TIP3    H156765   4.580   0.296  14.324 -0.4916  0.6397  0.0724
11758TIP3    H256766   4.575   0.403  14.430  0.4000 -0.0373  0.8082
11759TIP3   OH256767   5.589   4.411  10.390  0.1534  0.1979 -0.0280
11759TIP3    H156768   5.515   4.356  10.418  0.5167  0.1026  0.7599
11759TIP3    H256769   5.656   4.348  10.363 -0.3165  0.2929 -1.4547
11760TIP3   OH256770   6.574   5.419   0.980 -0.3850 -0.1132 -0.4972
11760TIP3    H156771   6.555   5.345   1.037  0.7861  0.6658  0.9668
11760TIP3    H256772   6.496   5.429   0.926  0.3784 -3.9303 -2.4688
11761TIP3   OH256773   4.252   5.925   3.735 -0.9179  0.1555 -0.0367
11761TIP3    H156774   4.344   5.910   3.714 -1.3986 -0.7700 -1.6121
11761TIP3    H256775   4.251   5.940   3.830  0.5526 -2.5170  0.4811
11762TIP3   OH256776   2.522   0.574  11.724 -0.0058  0.0300  0.9600
11762TIP3    H156777   2.502   0.541  11.636  0.3533 -0.5544  1.0934
11762TIP3    H256778   2.486   0.508  11.783  0.0941  0.2305  1.2463
11763TIP3   OH256779   3.090   6.637  11.733  0.1926 -0.3203  0.0436
11763TIP3    H156780   3.138   6.678  11.661 -0.3527  1.2481  0.5437
11763TIP3    H256781   3.008   6.608  11.694 -0.6960  1.7609  0.2843
11764TIP3   OH256782   1.235   2.892   1.783  0.1159  0.0079  0.3776
11764TIP3    H156783   1.183   2.961   1.823 -2.7357 -2.0852  0.3984
11764TIP3    H256784   1.269   2.931   1.702  0.3024  2.0550  1.4151
11765TIP3   OH256785   4.844   5.080   3.523 -0.0545 -0.1571 -0.1200
11765TIP3    H156786   4.893   5.057   3.444 -0.4606 -0.7351 -0.2054
11765TIP3    H256787   4.846   5.175   3.526 -2.6837  0.0230 -2.5042
11766TIP3   OH256788   0.489   0.837   0.357 -0.2903  0.7186 -0.7096
11766TIP3    H156789   0.429   0.805   0.424 -2.5143 -0.8796 -3.3545
11766TIP3    H256790   0.563   0.776   0.360 -0.0842  1.0142  0.6468
11767TIP3   OH256791   1.642   0.839  13.602  0.2282 -0.7194 -0.4537
11767TIP3    H156792   1.572   0.829  13.538  0.3384  1.6649 -0.9771
11767TIP3    H256793   1.638   0.930  13.629  1.6937 -1.1008  1.2119
11768TIP3   OH256794   2.145   5.836  16.888  0.7813 -0.3794  0.2645
11768TIP3    H156795   2.112   5.926  16.892 -0.4558 -0.8209  0.1163
11768TIP3    H256796   2.224   5.842  16.835 -0.8052  0.1945 -2.0924
11769TIP3   OH256797   2.203   1.962   1.668  0.3557 -0.2229 -0.0441
11769TIP3    H156798   2.110   1.985   1.679  0.1674 -1.1057  0.3278
11769TIP3    H256799   2.237   2.026   1.605 -0.1848  0.9135  0.7982
11770TIP3   OH256800   5.292   6.601   5.819 -0.1152 -0.8136  0.0989
11770TIP3    H156801   5.329   6.686   5.796  0.3105 -1.5428 -2.0089
11770TIP3    H256802   5.302   6.595   5.915  0.8176  1.0344  0.1246
11771TIP3   OH256803   0.145   6.211  12.699 -0.7511  0.1201 -0.2895
11771TIP3    H156804   0.118   6.120  12.714 -1.1876  0.1401 -0.9640
11771TIP3    H256805   0.135   6.252  12.785 -0.8887 -0.3808 -0.0583
11772TIP3   OH256806   0.359   3.276   2.933  0.1558  0.2007  0.3899
11772TIP3    H156807   0.437   3.307   2.979 -0.0673  0.9031  0.2949
11772TIP3    H256808   0.337   3.193   2.977  1.4561 -0.4394 -0.1525
11773TIP3   OH256809   3.200   2.279   5.028 -0.3920 -0.3254  0.1484
11773TIP3    H156810   3.194   2.254   4.935 -1.4682 -1.2145  0.4510
11773TIP3    H256811   3.160   2.366   5.032 -1.3534 -0.7508 -0.0444
11774TIP3   OH256812   2.327   2.564  14.619 -0.0839 -0.4130 -0.2293
11774TIP3    H156813   2.364   2.644  14.582 -1.9458 -0.2784 -1.9475
11774TIP3    H256814   2.366   2.494  14.567  2.1760 -0.7162  1.8169
11775TIP3   OH256815   2.416   0.041   2.584  0.2406  0.8020  0.0760
11775TIP3    H156816   2.348   0.104   2.559 -0.0435 -0.1946 -1.7509
11775TIP3    H256817   2.479   0.093   2.634 -1.4058  1.9276  1.0281
11776TIP3   OH256818   0.942   3.382  11.190  0.0335  0.3931  0.2922
11776TIP3    H156819   1.002   3.338  11.249  0.5469  1.3302  0.4712
11776TIP3    H256820   0.863   3.327  11.190  1.0435 -1.0720 -0.2942
11777TIP3   OH256821   2.389   6.193  14.565  0.0212 -0.1606 -0.6408
11777TIP3    H156822   2.323   6.127  14.586 -1.1126  1.2736  0.3958
11777TIP3    H256823   2.356   6.273  14.605  1.4822  0.9954 -1.7117
11778TIP3   OH256824   4.444   2.725  15.450  0.6809  0.0316  0.1746
11778TIP3    H156825   4.472   2.635  15.437 -1.9339 -0.6599 -0.7594
11778TIP3    H256826   4.429   2.732  15.544 -2.4241 -1.5338 -0.1513
11779TIP3   OH256827   2.375   6.783  13.072  0.2197 -0.1725 -0.0710
11779TIP3    H156828   2.377   6.754  13.163  1.3004 -0.4622 -0.1829
11779TIP3    H256829   2.460   6.758  13.037  1.2676  3.1979 -0.1279
11780TIP3   OH256830   3.335   1.644   2.111  0.5564  0.0761 -0.0147
11780TIP3    H156831   3.266   1.705   2.139 -1.2827 -1.2833 -1.4366
11780TIP3    H256832   3.305   1.611   2.027  2.1951 -1.7577  0.0845
11781TIP3   OH256833   3.279   5.859  12.884 -0.1110 -0.4977 -0.0748
11781TIP3    H156834   3.335   5.937  12.888  1.0323 -1.3063 -0.0190
11781TIP3    H256835   3.237   5.865  12.798  0.2993 -0.0460 -0.2499
11782TIP3   OH256836   2.316   6.695  17.291 -0.2051 -0.1893 -0.0065
11782TIP3    H156837   2.276   6.702  17.204 -0.8262 -0.0630  0.2840
11782TIP3    H256838   2.246   6.662  17.347  0.1016  0.0283  0.5076
11783TIP3   OH256839   5.857   3.721  15.547 -0.2502 -0.2428 -0.0568
11783TIP3    H156840   5.790   3.667  15.589  0.0932 -0.1546  0.6079
11783TIP3    H256841   5.835   3.811  15.572 -1.9268  0.1215 -2.7096
11784TIP3   OH256842   0.284   5.684  11.869  0.1094  0.3989  0.7050
11784TIP3    H156843   0.330   5.626  11.808 -1.5160  0.4587 -0.6319
11784TIP3    H256844   0.266   5.763  11.819 -1.7949  0.2165  1.0359
11785TIP3   OH256845   1.586   3.033  11.263 -0.0860  0.0733 -0.3562
11785TIP3    H156846   1.666   2.985  11.284 -0.2893 -0.3327 -0.4941
11785TIP3    H256847   1.583   3.104  11.327  0.9256  0.7210 -1.0026
11786TIP3   OH256848   4.773   0.463  16.677  0.4073  0.2302 -0.3796
11786TIP3    H156849   4.710   0.391  16.681  1.3215 -0.5637 -0.1184
11786TIP3    H256850   4.723   0.540  16.703 -0.3791 -0.4357  0.1100
11787TIP3   OH256851   1.994   6.374  11.932  0.6319 -0.1863 -0.0208
11787TIP3    H156852   2.042   6.341  12.008  2.9523 -1.4960 -1.9767
11787TIP3    H256853   2.062   6.390  11.866 -1.0291  3.4658 -0.9710
11788TIP3   OH256854   4.069   1.457   0.149 -0.3029  0.1774 -0.2328
11788TIP3    H156855   4.068   1.550   0.172  0.1323  0.7731 -2.5592
11788TIP3    H256856   4.159   1.429   0.165 -0.4250  0.1373  0.4309
11789TIP3   OH256857   0.345   3.915  15.944 -0.9134 -0.3305  0.3024
11789TIP3    H156858   0.311   3.868  15.868 -3.3399 -1.3689  1.9551
11789TIP3    H256859   0.411   3.858  15.981  0.2698  0.1729 -0.9831
11790TIP3   OH256860   4.210   2.748  13.059 -1.1768  0.4184 -0.2886
11790TIP3    H156861   4.209   2.691  12.982 -0.4166  0.1561 -0.1174
11790TIP3    H256862   4.189   2.690  13.132 -0.7948  0.4378 -0.1624
11791TIP3   OH256863   2.589   6.245  17.261  0.6092  0.5995 -0.0522
11791TIP3    H156864   2.498   6.218  17.268  0.5959  0.4282 -0.8659
11791TIP3    H256865   2.597   6.279  17.172  1.3312  0.6563  0.0309
11792TIP3   OH256866   2.138   1.216   4.852 -0.1796  0.0355 -0.1552
11792TIP3    H156867   2.195   1.154   4.897 -2.4490 -2.1271 -0.1010
11792TIP3    H256868   2.131   1.182   4.762 -2.1376 -0.3442  0.1062
11793TIP3   OH256869   1.188   3.733   1.614  0.2528  0.1980 -0.5700
11793TIP3    H156870   1.226   3.646   1.615 -1.1019 -0.4132 -1.0151
11793TIP3    H256871   1.204   3.767   1.702  2.0913  0.0992 -0.8434
11794TIP3   OH256872   4.805   4.834  11.660 -0.1635  0.2274  0.4081
11794TIP3    H156873   4.751   4.828  11.582  0.0377 -0.6027  0.3295
11794TIP3    H256874   4.824   4.928  11.669 -1.2889  0.4789  0.2246
11795TIP3   OH256875   4.056   0.379  12.971 -0.6221  0.5832 -0.0883
11795TIP3    H156876   4.057   0.371  12.876  0.5352 -1.8435  0.0840
11795TIP3    H256877   4.148   0.379  12.996 -0.9258  0.8747  1.0588
11796TIP3   OH256878   0.126   0.981  12.895 -0.0183  0.0689 -0.0272
11796TIP3    H156879   0.192   0.971  12.826 -0.2280 -1.8198 -0.0003
11796TIP3    H256880   0.176   0.985  12.976  0.2160  2.0159 -0.2558
11797TIP3   OH256881   0.418   6.053   0.063  0.1173  0.1363 -0.3320
11797TIP3    H156882   0.455   6.113   0.128 -0.6800 -0.1108  0.3514
11797TIP3    H256883   0.362   6.109   0.009  0.6949  0.3200 -0.7553
11798TIP3   OH256884   3.850   2.431   6.298  0.2919  0.2287  0.2341
11798TIP3    H156885   3.901   2.479   6.363  0.1368  0.8662 -0.1175
11798TIP3    H256886   3.760   2.437   6.330  0.4197 -0.8955  0.8558
11799TIP3   OH256887   2.769   6.297   3.679 -0.0060 -1.0264  0.0009
11799TIP3    H156888   2.746   6.206   3.659 -0.2284 -1.0923  0.5467
11799TIP3    H256889   2.718   6.349   3.618 -1.8832 -1.1550  1.4132
11800TIP3   OH256890   2.718   5.762   2.289  0.6825  0.2022 -0.1448
11800TIP3    H156891   2.710   5.667   2.289 -2.4459  0.4115  0.6869
11800TIP3    H256892   2.690   5.788   2.201  0.3095  0.4225  0.0372
11801TIP3   OH256893   3.014   2.019  13.516  0.4126 -0.4846 -0.0561
11801TIP3    H156894   3.051   1.959  13.451  0.9740  0.8344 -0.9973
11801TIP3    H256895   2.979   2.091  13.464  0.8160  0.5694  1.0970
11802TIP3   OH256896   3.648   2.554  13.994 -0.0818  0.0190  0.4700
11802TIP3    H156897   3.622   2.483  14.052 -1.1895  0.6270  0.7290
11802TIP3    H256898   3.638   2.517  13.906 -1.6759  0.1937  0.5715
11803TIP3   OH256899   5.924   3.317   1.656  0.3033  0.3049 -0.9831
11803TIP3    H156900   5.950   3.389   1.714  0.5579 -0.6189  0.0633
11803TIP3    H256901   5.998   3.305   1.598 -0.0442  1.3912 -1.6607
11804TIP3   OH256902   0.154   2.625  15.185  0.3021  0.0213  0.1801
11804TIP3    H156903   0.078   2.568  15.177 -0.1866  0.6423  0.3796
11804TIP3    H256904   0.133   2.683  15.258  1.2879 -0.2964  0.7422
11805TIP3   OH256905   6.768   1.512  17.202  0.3560  0.1955 -0.4248
11805TIP3    H156906   6.846   1.497  17.150  0.1536  1.1460 -1.0040
11805TIP3    H256907   6.801   1.543  17.287  0.7207 -2.1756  0.3349
11806TIP3   OH256908   5.081   4.178   5.883 -0.1050 -0.1135 -0.1382
11806TIP3    H156909   5.119   4.259   5.916 -2.5015  0.4317  1.4765
11806TIP3    H256910   5.041   4.202   5.800 -0.7563  0.3690  0.3085
11807TIP3   OH256911   2.227   4.799   0.095  0.2476  0.0880  0.3917
11807TIP3    H156912   2.271   4.880   0.072  1.3869 -0.4609  0.5977
11807TIP3    H256913   2.143   4.803   0.050  0.6238  1.0273 -0.2201
11808TIP3   OH256914   0.539   2.857   4.105 -0.2297 -0.1501 -0.3076
11808TIP3    H156915   0.627   2.880   4.076 -0.7596 -0.1856 -2.0413
11808TIP3    H256916   0.516   2.781   4.051 -1.7932  0.6251 -0.7427
11809TIP3   OH256917   5.071   4.111  12.547  0.2283  0.1191  0.3664
11809TIP3    H156918   5.104   4.052  12.480 -0.5155  0.7069 -0.5367
11809TIP3    H256919   5.059   4.056  12.625 -1.9400 -1.2456 -0.8988
11810TIP3   OH256920   2.055   6.217  12.687  0.2825  0.4343  0.5223
11810TIP3    H156921   2.092   6.303  12.706  0.5589  0.8233 -1.5849
11810TIP3    H256922   2.121   6.155  12.718  1.1115  1.0423  0.0086
11811TIP3   OH256923   1.187   4.514   1.105 -0.7827  0.7271  0.0650
11811TIP3    H156924   1.274   4.475   1.106 -1.2167 -0.2536  0.7658
11811TIP3    H256925   1.186   4.573   1.180 -0.6460  0.9081 -0.0763
11812TIP3   OH256926   1.771   0.012  13.121  0.3915  0.2344 -0.1653
11812TIP3    H156927   1.765  -0.061  13.184 -0.9262 -0.2463 -0.8322
11812TIP3    H256928   1.813  -0.027  13.044  0.2757  0.3347 -0.2807
11813TIP3   OH256929   2.651   6.540   3.826 -0.0467  0.1901 -0.5743
11813TIP3    H156930   2.630   6.633   3.815 -0.4384 -0.2235 -3.5889
11813TIP3    H256931   2.603   6.496   3.756  1.9588 -2.0356 -0.6164
11814TIP3   OH256932   0.347   6.495   5.748 -0.4370 -0.2291 -0.2499
11814TIP3    H156933   0.425   6.529   5.703 -1.2973  1.4592 -0.4841
11814TIP3    H256934   0.292   6.461   5.677  0.3009 -1.9167 -0.0391
11815TIP3   OH256935   0.876   5.430  13.331  0.4390  0.3481  0.2294
11815TIP3    H156936   0.900   5.500  13.392 -1.3193 -0.1420  1.4978
11815TIP3    H256937   0.782   5.437  13.321  0.3646 -1.2615 -0.3712
11816TIP3   OH256938   6.673   4.180   4.989  0.1114 -0.1376 -0.3328
11816TIP3    H156939   6.581   4.203   5.004 -0.3472  0.5359 -3.8769
11816TIP3    H256940   6.722   4.259   5.013 -0.2318 -0.3424  1.1049
11817TIP3   OH256941   6.307   4.336   0.257 -0.1272  0.1094  0.6653
11817TIP3    H156942   6.319   4.324   0.351  1.2480  0.7258  0.5684
11817TIP3    H256943   6.284   4.428   0.246  0.2133  0.1579  0.3458
11818TIP3   OH256944   5.346   2.236  12.163 -0.4273  0.1938 -0.3266
11818TIP3    H156945   5.381   2.316  12.202 -0.0356 -0.1512  0.0375
11818TIP3    H256946   5.284   2.203  12.228 -1.9182  1.1301 -1.2300
11819TIP3   OH256947   6.221   6.219   2.201  0.1161 -0.4497 -0.6644
11819TIP3    H156948   6.281   6.147   2.220  2.2373  1.7911  1.3801
11819TIP3    H256949   6.141   6.198   2.249  1.6791 -0.1270  2.1315
11820TIP3   OH256950   1.781   4.842   1.890 -0.4577  0.5330  0.1722
11820TIP3    H156951   1.795   4.768   1.950 -1.9658  0.0312 -0.0653
11820TIP3    H256952   1.689   4.864   1.902 -0.3807  1.4126 -0.8723
11821TIP3   OH256953   5.717   4.982   1.716 -0.3304 -0.0868  0.1429
11821TIP3    H156954   5.623   5.002   1.725  0.4444  3.9803  0.4308
11821TIP3    H256955   5.725   4.943   1.629 -2.4114 -1.4151  0.5176
11822TIP3   OH256956   6.151   2.951  16.662 -0.0603 -0.4884  0.2728
11822TIP3    H156957   6.192   3.011  16.724  0.7169 -0.5275 -0.2022
11822TIP3    H256958   6.194   2.867  16.678 -0.1717 -0.6002 -0.0073
11823TIP3   OH256959   2.719   1.688  13.164 -0.0653 -0.0939 -0.2518
11823TIP3    H156960   2.703   1.743  13.242  0.4477  0.4962 -0.5564
11823TIP3    H256961   2.698   1.599  13.193 -0.1235  0.1527  0.4888
11824TIP3   OH256962   1.575   3.564  11.377  0.0414 -0.1117  1.1871
11824TIP3    H156963   1.565   3.623  11.453  1.4296 -0.5502  1.7233
11824TIP3    H256964   1.669   3.549  11.371 -0.1139 -0.5024 -0.3224
11825TIP3   OH256965   1.099   4.553  16.269 -0.7385 -0.3717  0.4323
11825TIP3    H156966   1.127   4.480  16.213  0.5050  0.1791  0.3157
11825TIP3    H256967   1.041   4.605  16.214 -0.1932 -0.2971 -0.0773
11826TIP3   OH256968   1.269   3.275  14.555  0.3972 -0.3886  0.1147
11826TIP3    H156969   1.186   3.248  14.595  0.0378 -0.0192 -0.3746
11826TIP3    H256970   1.334   3.214  14.591 -0.0090 -0.4093  0.8366
11827TIP3   OH256971   6.337   0.260   3.138  1.1844 -0.2891  0.2015
11827TIP3    H156972   6.362   0.325   3.204  0.9433  0.4625 -0.4433
11827TIP3    H256973   6.250   0.231   3.166  0.6282  0.8038 -0.3636
11828TIP3   OH256974   4.731   3.909  13.914 -0.7350  0.2544 -0.6737
11828TIP3    H156975   4.789   3.975  13.876  0.7192 -1.2098 -1.0759
11828TIP3    H256976   4.719   3.845  13.843 -2.8699  0.5479 -0.5942
11829TIP3   OH256977   1.566   5.438  16.078 -0.2005 -0.3368  0.1329
11829TIP3    H156978   1.521   5.457  15.996 -0.2644 -1.0084  0.0107
11829TIP3    H256979   1.502   5.389  16.130 -0.1401  0.0341  0.5614
11830TIP3   OH256980   4.068   3.553   1.614  0.3417  0.8624  0.3646
11830TIP3    H156981   3.988   3.600   1.589  0.3207  0.8018  0.3207
11830TIP3    H256982   4.048   3.461   1.597  0.3405  0.8247  0.5701
11831TIP3   OH256983   5.974   0.735  14.439 -0.3773 -0.2250  0.2301
11831TIP3    H156984   6.009   0.692  14.517 -0.3610  0.2296  0.4762
11831TIP3    H256985   5.880   0.737  14.453 -0.4752 -1.2024 -0.3033
11832TIP3   OH256986   0.123   5.532   4.230 -0.4869  0.0065 -0.1482
11832TIP3    H156987   0.044   5.574   4.264  0.0659 -0.0251  1.2461
11832TIP3    H256988   0.191   5.599   4.237 -0.1514 -0.3190 -0.2675
11833TIP3   OH256989   4.014   4.262   2.678 -0.7300 -0.2385 -0.4095
11833TIP3    H156990   4.055   4.178   2.698 -1.9010 -0.8218 -0.4628
11833TIP3    H256991   3.984   4.254   2.588 -0.8196  0.2491 -0.4249
11834TIP3   OH256992   0.632   2.318  16.597 -0.3819 -0.0495  0.3028
11834TIP3    H156993   0.639   2.299  16.691  0.5360 -1.0838  0.0304
11834TIP3    H256994   0.669   2.406  16.588 -2.3796  0.9148  1.2004
11835TIP3   OH256995   6.099   5.163  16.922  0.5656  0.0562 -0.3874
11835TIP3    H156996   6.103   5.245  16.972 -0.9389 -0.5192  0.7260
11835TIP3    H256997   6.006   5.148  16.908  0.9213 -0.4023 -2.4105
11836TIP3   OH256998   5.149   5.319   3.640  0.2937  0.3489 -0.0213
11836TIP3    H156999   5.132   5.283   3.553 -1.7696 -0.4440  0.6776
11836TIP3    H257000   5.187   5.245   3.689 -2.8277 -0.5891  1.0642
11837TIP3   OH257001   5.755   2.160   5.889  0.7632 -0.2418 -0.4994
11837TIP3    H157002   5.693   2.161   5.817  0.9589  0.1674 -0.6631
11837TIP3    H257003   5.705   2.125   5.963 -0.4533  2.6731  0.0979
11838TIP3   OH257004   3.876   3.303   4.505 -0.4107 -0.1509  0.4838
11838TIP3    H157005   3.846   3.394   4.501 -2.0957 -0.7743 -3.0158
11838TIP3    H257006   3.851   3.266   4.421  2.9057 -3.0753  0.6757
11839TIP3   OH257007   1.583   2.950  15.062  0.7140  0.1548 -0.3975
11839TIP3    H157008   1.517   2.996  15.113  0.3870 -0.7476  0.0002
11839TIP3    H257009   1.634   2.901  15.126  1.9695  1.0870 -0.6700
11840TIP3   OH257010   0.924   4.480   0.214 -0.1939  0.2673 -0.5616
11840TIP3    H157011   0.970   4.446   0.291 -1.1021  0.0259 -0.1268
11840TIP3    H257012   0.848   4.423   0.204  0.0307  0.1740 -1.7590
11841TIP3   OH257013   5.719   1.808   1.634 -0.4263 -0.1128  0.0295
11841TIP3    H157014   5.707   1.852   1.550 -1.2909  0.6268  0.5352
11841TIP3    H257015   5.634   1.813   1.676 -0.0910 -0.8109  0.7985
11842TIP3   OH257016   5.472   5.173  13.769 -0.1019 -0.0331 -0.0764
11842TIP3    H157017   5.555   5.146  13.807 -0.3625 -0.7930 -0.0442
11842TIP3    H257018   5.438   5.094  13.727  0.0728  0.7169 -1.6963
11843TIP3   OH257019   4.848   0.455   5.928 -0.0400 -0.0267  0.6239
11843TIP3    H157020   4.901   0.458   5.848  0.0480  0.2825  0.6951
11843TIP3    H257021   4.805   0.540   5.932 -0.9483 -0.4593  0.2974
11844TIP3   OH257022   6.415   0.386  16.187  0.0593 -0.0576  0.1412
11844TIP3    H157023   6.441   0.474  16.215  1.1894 -0.4054  0.2214
11844TIP3    H257024   6.463   0.372  16.105 -1.0585 -0.1263 -0.4975
11845TIP3   OH257025   2.995   3.068   4.205  0.5436  0.4985  0.8883
11845TIP3    H157026   3.027   2.979   4.190  0.6103  0.5896  0.4909
11845TIP3    H257027   2.960   3.066   4.294 -1.6848 -0.5784  0.0356
11846TIP3   OH257028   2.042   4.571  15.942 -0.7399  0.5688  0.0684
11846TIP3    H157029   2.042   4.535  16.030 -2.4595  0.4317  0.0341
11846TIP3    H257030   2.135   4.587  15.922 -0.0311 -2.4776  0.6341
11847TIP3   OH257031   4.617   3.257   4.912  0.6275  0.1190  0.5833
11847TIP3    H157032   4.533   3.220   4.940  0.2907  0.9569  0.7049
11847TIP3    H257033   4.607   3.351   4.924  1.7520  0.1900  1.0253
11848TIP3   OH257034   2.672   2.248  14.379 -0.5659 -0.2961 -0.2013
11848TIP3    H157035   2.701   2.259  14.288 -0.5001 -1.1545 -0.2851
11848TIP3    H257036   2.704   2.161  14.404  2.4953  1.3139  1.7805
11849TIP3   OH257037   0.283   3.802   2.130  0.2067 -0.2783  0.1521
11849TIP3    H157038   0.325   3.831   2.049 -1.7025 -2.2461 -1.6286
11849TIP3    H257039   0.241   3.880   2.165  0.4242  0.4473 -1.1698
11850TIP3   OH257040   4.982   0.479   5.703 -0.3826  0.1178 -0.9761
11850TIP3    H157041   5.062   0.428   5.712 -0.1769  0.9111  2.0708
11850TIP3    H257042   5.012   0.570   5.701 -1.1522  0.3812 -0.7282
11851TIP3   OH257043   0.355   4.392  16.134 -0.6463  0.3580 -0.4726
11851TIP3    H157044   0.314   4.475  16.111  2.4591  1.7297 -1.4340
11851TIP3    H257045   0.398   4.409  16.218  1.7587  0.4715 -1.6579
11852TIP3   OH257046   6.595   2.293   2.662 -0.0179 -0.1940 -0.3362
11852TIP3    H157047   6.634   2.284   2.575 -0.1822 -0.6594 -0.3648
11852TIP3    H257048   6.502   2.306   2.645  0.0208  0.1873 -0.2463
11853TIP3   OH257049   3.637   1.129   4.066 -0.6801  0.4255  0.2174
11853TIP3    H157050   3.599   1.047   4.035  1.3652 -0.1925 -0.6951
11853TIP3    H257051   3.726   1.106   4.092 -0.2413  2.2657  0.3988
11854TIP3   OH257052   0.147   5.249  16.165  0.0961 -0.0082  0.3253
11854TIP3    H157053   0.227   5.213  16.202 -0.4403 -1.0098  0.5219
11854TIP3    H257054   0.116   5.181  16.104  0.6478  1.3466 -1.5226
11855TIP3   OH257055   4.474   2.082  14.427  0.6546  0.1759 -0.3171
11855TIP3    H157056   4.547   2.058  14.370  0.8642  1.2648 -0.5341
11855TIP3    H257057   4.459   2.006  14.482  0.9651 -0.6041 -1.3095
11856TIP3   OH257058   1.397   1.058  10.969 -0.1228 -0.6669  0.4388
11856TIP3    H157059   1.436   0.970  10.970 -0.8605 -1.0101 -0.3440
11856TIP3    H257060   1.402   1.086  10.877 -0.1020  0.0195  0.6449
11857TIP3   OH257061   3.378   4.274   1.075  0.2434 -0.3189 -0.0083
11857TIP3    H157062   3.423   4.343   1.124  0.0472  0.8641 -1.4403
11857TIP3    H257063   3.326   4.228   1.141  3.2653 -1.5187  1.6257
11858TIP3   OH257064   1.122   5.540   4.289 -0.5990 -0.6681  0.1617
11858TIP3    H157065   1.035   5.514   4.318 -0.8638  0.6762  0.6426
11858TIP3    H257066   1.173   5.545   4.370 -0.1720 -1.1100 -0.0805
11859TIP3   OH257067   0.113   5.631   3.931  0.5223  0.3883 -0.2423
11859TIP3    H157068   0.097   5.559   3.992 -0.7153  0.9320  0.0987
11859TIP3    H257069   0.040   5.629   3.870 -0.7814  2.7491  1.1647
11860TIP3   OH257070   2.014   5.194   1.333  0.0200  0.3655 -0.2576
11860TIP3    H157071   2.042   5.139   1.405 -0.7683 -1.3909 -1.2742
11860TIP3    H257072   2.058   5.159   1.256 -0.3880  1.2368 -0.9062
11861TIP3   OH257073   0.035   3.265   6.082 -0.6336 -0.3250  0.6567
11861TIP3    H157074   0.084   3.183   6.074  0.2448  0.1960  0.6389
11861TIP3    H257075  -0.043   3.241   6.131 -1.2036 -1.5152 -0.7825
11862TIP3   OH257076   4.320   4.106   0.563  0.0135 -0.6589 -0.7314
11862TIP3    H157077   4.227   4.124   0.567 -0.0171 -0.7233 -1.1705
11862TIP3    H257078   4.359   4.186   0.527 -0.0075 -1.0833 -1.7067
11863TIP3   OH257079   6.563   4.812  13.747 -0.1810 -0.2666 -0.3773
11863TIP3    H157080   6.656   4.809  13.723 -0.1368  0.3307 -0.2883
11863TIP3    H257081   6.516   4.800  13.665 -0.0291  1.6944 -0.7720
11864TIP3   OH257082   5.840   6.675  17.195 -0.5653  0.6275 -0.4332
11864TIP3    H157083   5.747   6.655  17.180 -0.2085 -0.1395 -1.8055
11864TIP3    H257084   5.843   6.769  17.210 -1.6801  0.4998  0.6626
11865TIP3   OH257085   0.420   0.905  11.191 -0.5357  0.7636  0.3364
11865TIP3    H157086   0.361   0.899  11.116 -0.6027 -0.6737  0.4844
11865TIP3    H257087   0.486   0.837  11.176  0.5077  1.6912  0.6690
11866TIP3   OH257088   0.448   2.700  11.822  0.0719 -0.2764 -0.4944
11866TIP3    H157089   0.409   2.673  11.739 -1.0642  2.5261 -0.9413
11866TIP3    H257090   0.526   2.749  11.797  0.2720 -0.2711  0.1273
11867TIP3   OH257091   0.551   4.025  10.974 -0.4380 -0.0647  0.3022
11867TIP3    H157092   0.544   4.071  11.057  0.4787 -0.7360  0.7599
11867TIP3    H257093   0.571   4.093  10.910  1.1103  0.1526  1.0036
11868TIP3   OH257094   3.102   1.161   0.041 -0.4953 -0.2609 -0.3612
11868TIP3    H157095   3.118   1.103  -0.034 -0.8185  1.2681 -1.6279
11868TIP3    H257096   3.189   1.194   0.065 -0.4687 -0.2411 -0.4833
11869TIP3   OH257097   4.491   1.360  16.128 -0.1679 -0.2444 -0.3748
11869TIP3    H157098   4.485   1.455  16.139  2.0828 -0.3303  2.1461
11869TIP3    H257099   4.528   1.329  16.211  1.9861 -3.0117 -2.2985
11870TIP3   OH257100   1.158   4.996   4.302  0.0129 -0.2577 -0.4632
11870TIP3    H157101   1.208   4.932   4.251 -0.7663 -1.1498 -0.1248
11870TIP3    H257102   1.070   4.991   4.265 -1.1243 -2.5085  2.3901
11871TIP3   OH257103   1.325   0.902   1.845  0.5670 -0.0657  0.1823
11871TIP3    H157104   1.377   0.951   1.908  1.8524 -2.3030  0.9307
11871TIP3    H257105   1.340   0.810   1.868 -3.9829 -0.8357  0.6442
11872TIP3   OH257106   4.501   3.610  16.219  0.1066 -0.1030 -0.0433
11872TIP3    H157107   4.554   3.667  16.163 -0.0777  0.8564  0.7599
11872TIP3    H257108   4.537   3.522  16.204  1.8928  0.5316  0.4640
11873TIP3   OH257109   4.171   4.274   3.218  0.0054  0.0660 -0.0887
11873TIP3    H157110   4.151   4.229   3.300  0.4336 -0.5127 -0.2948
11873TIP3    H257111   4.087   4.280   3.172  0.0237 -0.9851 -0.2821
11874TIP3   OH257112   4.406   0.981   4.625  0.2260  0.1274  0.0731
11874TIP3    H157113   4.455   1.063   4.633 -1.4683  1.1528  0.2647
11874TIP3    H257114   4.418   0.938   4.710 -0.2040  0.9706  0.5784
11875TIP3   OH257115   4.464   0.134   0.509 -0.5064 -0.5110 -0.6064
11875TIP3    H157116   4.458   0.049   0.552 -0.3767  0.8207  2.1725
11875TIP3    H257117   4.555   0.160   0.521 -1.1395  1.1304  0.8559
11876TIP3   OH257118   1.626   4.323   3.218 -0.3518 -0.0103 -0.6800
11876TIP3    H157119   1.684   4.285   3.153  3.4376  0.8256  2.0217
11876TIP3    H257120   1.634   4.265   3.294 -1.1875  1.4572  0.5497
11877TIP3   OH257121   3.036   1.435  13.885  0.3238 -0.3663  0.3284
11877TIP3    H157122   3.119   1.481  13.894 -0.0503  0.1146  1.4673
11877TIP3    H257123   2.976   1.481  13.944 -0.9985 -0.1590 -1.1388
11878TIP3   OH257124   2.809   0.505   2.555  0.0533  0.3141 -0.7177
11878TIP3    H157125   2.864   0.495   2.633 -0.9706 -0.2034 -0.0403
11878TIP3    H257126   2.819   0.597   2.530 -1.1311  1.0141  1.2152
11879TIP3   OH257127   5.046   0.081   2.801 -0.1391 -0.2508  0.1392
11879TIP3    H157128   5.088   0.012   2.853  0.9064  1.2958  1.4298
11879TIP3    H257129   5.072   0.062   2.711  1.7905 -0.4543  0.6993
11880TIP3   OH257130   5.805   2.804   5.156  0.4633  0.1130  0.3500
11880TIP3    H157131   5.882   2.789   5.211  2.3645 -1.8084 -2.6829
11880TIP3    H257132   5.827   2.883   5.105 -0.8296  1.2658  1.5525
11881TIP3   OH257133   1.583   0.144   5.137  0.5763  0.0265  0.5238
11881TIP3    H157134   1.592   0.100   5.221  1.2320 -0.4537  0.2085
11881TIP3    H257135   1.547   0.230   5.159 -0.1693 -0.4496  1.1929
11882TIP3   OH257136   6.678   0.555   4.418  0.2169  0.3396 -0.0532
11882TIP3    H157137   6.701   0.580   4.507 -0.5743 -0.3047  0.3405
11882TIP3    H257138   6.646   0.636   4.378 -0.6663  0.3517  0.6608
11883TIP3   OH257139   4.617   6.309  14.329 -0.8219  0.6749 -0.0589
11883TIP3    H157140   4.677   6.312  14.254 -1.2076  2.0927 -0.3318
11883TIP3    H257141   4.635   6.390  14.377 -0.1495 -0.5149  1.7315
11884TIP3   OH257142   2.714   3.987   0.232 -0.2298  0.2176  0.0165
11884TIP3    H157143   2.706   4.070   0.280  2.3917  0.0244  0.8960
11884TIP3    H257144   2.796   3.996   0.184 -1.7964 -0.4179 -2.8881
11885TIP3   OH257145   6.602   0.413  12.418  0.0783  0.1062  0.3469
11885TIP3    H157146   6.512   0.398  12.388 -0.1442  2.3386 -0.1640
11885TIP3    H257147   6.648   0.447  12.341  0.4066  2.4901  1.5543
11886TIP3   OH257148   5.317   5.394  13.739  0.4237 -0.3311 -0.0592
11886TIP3    H157149   5.367   5.315  13.759 -0.6961 -0.4421  2.5405
11886TIP3    H257150   5.250   5.397  13.807 -0.4547  2.0774 -0.9932
11887TIP3   OH257151   1.580   5.020  16.327 -0.2406 -0.1015 -0.4654
11887TIP3    H157152   1.671   5.028  16.298 -0.0010  0.8906  0.5100
11887TIP3    H257153   1.567   4.926  16.339  0.9573 -0.1970  0.2602
11888TIP3   OH257154   1.211   0.055  14.424  0.9582 -0.0477  0.0885
11888TIP3    H157155   1.229   0.067  14.331  0.2694  2.6462  0.2453
11888TIP3    H257156   1.259  -0.024  14.448 -0.4272 -1.9240 -2.9698
11889TIP3   OH257157   6.031   3.316  15.902 -0.1236 -0.0218 -0.3000
11889TIP3    H157158   6.068   3.327  15.815  0.3271  2.3850  0.1880
11889TIP3    H257159   6.063   3.390  15.953 -0.5072 -1.2914  1.8969
11890TIP3   OH257160   0.045   4.669   4.651 -0.1080  0.7865 -0.3427
11890TIP3    H157161   0.138   4.691   4.662  0.0769  0.1803 -0.6642
11890TIP3    H257162   0.029   4.680   4.558  0.0526 -0.6517 -0.5594
11891TIP3   OH257163   0.706   5.576  11.499 -0.2560  0.4486  0.5125
11891TIP3    H157164   0.784   5.527  11.472 -1.3953 -1.4140  0.5309
11891TIP3    H257165   0.707   5.654  11.444  1.0795 -0.0726 -0.2193
11892TIP3   OH257166   2.879   3.052   0.284  0.4336 -0.0771 -0.2567
11892TIP3    H157167   2.796   3.043   0.331  0.5263 -0.5720 -0.1834
11892TIP3    H257168   2.945   3.028   0.349  0.8012  2.5938  0.4006
11893TIP3   OH257169   4.212   1.381   0.927  0.1653 -0.2695 -0.2923
11893TIP3    H157170   4.219   1.464   0.880 -1.8173  0.6433  0.9733
11893TIP3    H257171   4.286   1.329   0.895  0.7341  1.5262 -1.9849
11894TIP3   OH257172   0.798   4.321   3.961 -0.2634 -0.0001 -0.0721
11894TIP3    H157173   0.828   4.231   3.971 -2.5506 -0.6022  1.8374
11894TIP3    H257174   0.816   4.362   4.045 -0.5658  0.9111 -0.4433
11895TIP3   OH257175   3.274   6.101  12.673 -0.1422  0.3960  0.6041
11895TIP3    H157176   3.293   6.151  12.752 -0.9291 -0.0366  1.0725
11895TIP3    H257177   3.359   6.085  12.633  0.2493  0.6786  1.3297
11896TIP3   OH257178   4.830   2.158  14.884 -0.5000 -0.4854 -0.2462
11896TIP3    H157179   4.777   2.162  14.804 -0.4380 -0.8249 -0.3066
11896TIP3    H257180   4.774   2.193  14.953 -0.1894  0.7997 -0.6286
11897TIP3   OH257181   0.382   0.688  15.886 -0.4062  0.8078 -0.9089
11897TIP3    H157182   0.381   0.628  15.961 -0.3788  1.5279 -0.3263
11897TIP3    H257183   0.403   0.773  15.924 -1.8975  1.4648 -1.5212
11898TIP3   OH257184   5.350   1.485  11.355 -0.2348  0.6158 -0.4641
11898TIP3    H157185   5.407   1.559  11.334 -0.5006  0.7135 -0.8501
11898TIP3    H257186   5.262   1.522  11.352 -0.4552  0.0379 -1.7895
11899TIP3   OH257187   6.766   3.396   3.289  0.3265  0.0697 -0.1703
11899TIP3    H157188   6.820   3.353   3.356 -1.1762 -2.0880 -0.2778
11899TIP3    H257189   6.827   3.413   3.217  1.5466  0.6563  0.9743
11900TIP3   OH257190   4.729   4.819  11.399  0.5908  0.3216  0.1450
11900TIP3    H157191   4.776   4.737  11.382  1.1525  1.0863 -2.1686
11900TIP3    H257192   4.639   4.801  11.372  0.3516 -0.0207  1.1570
11901TIP3   OH257193   6.265   3.868  11.448 -0.2930  0.1559  0.0632
11901TIP3    H157194   6.171   3.870  11.429 -0.2093  0.0995 -0.3785
11901TIP3    H257195   6.271   3.865  11.543 -0.7473 -0.2960  0.0811
11902TIP3   OH257196   2.198   3.919   6.943 -0.3387  0.0013  0.2692
11902TIP3    H157197   2.190   3.844   6.885  0.2270 -0.3665  0.6599
11902TIP3    H257198   2.174   3.886   7.029  1.1446 -0.0568  0.6742
11903TIP3   OH257199   2.923   5.313   2.486  0.4641  0.7165  0.3667
11903TIP3    H157200   2.856   5.379   2.506  0.0230  0.6968 -0.9951
11903TIP3    H257201   2.885   5.230   2.515 -0.1563  0.6927 -0.4831
11904TIP3   OH257202   4.922   4.211  12.868 -0.3437 -0.2895 -0.3424
11904TIP3    H157203   4.994   4.150  12.886  0.5129  0.1215 -2.2118
11904TIP3    H257204   4.961   4.298  12.876 -1.2488 -0.0036  1.0673
11905TIP3   OH257205   6.366   4.289   3.444 -0.5585 -0.6018 -0.4588
11905TIP3    H157206   6.330   4.211   3.486 -1.0548 -0.9944 -1.6194
11905TIP3    H257207   6.446   4.307   3.495 -1.8263 -0.3036  1.4743
11906TIP3   OH257208   1.843   6.281   1.502  1.0996  0.2107  0.0438
11906TIP3    H157209   1.921   6.233   1.528 -0.3386 -1.4682  1.3601
11906TIP3    H257210   1.781   6.215   1.471 -0.9749  1.1232  2.0331
11907TIP3   OH257211   0.098   4.642  10.632  0.6289 -0.5592 -0.1482
11907TIP3    H157212   0.109   4.736  10.620  1.7740 -0.6471  0.2227
11907TIP3    H257213   0.006   4.632  10.657  0.9066  0.6096  1.3961
11908TIP3   OH257214   4.933   1.571   4.161 -0.2992 -0.4509 -0.0313
11908TIP3    H157215   4.985   1.578   4.081 -1.7264  1.8143 -0.8071
11908TIP3    H257216   4.984   1.619   4.226  0.5244 -1.7089  0.2843
11909TIP3   OH257217   2.172   4.373  16.808  0.0455 -0.5777 -0.2669
11909TIP3    H157218   2.219   4.456  16.817  1.2515 -1.4203  1.3782
11909TIP3    H257219   2.119   4.367  16.888  0.5293 -1.7393 -0.0255
11910TIP3   OH257220   3.217   2.957  13.034 -0.4895  0.3562  0.1883
11910TIP3    H157221   3.225   3.049  13.010 -2.4541  0.7014  0.7389
11910TIP3    H257222   3.215   2.956  13.129  1.0722 -0.4138  0.2200
11911TIP3   OH257223   6.405   0.438  12.818 -0.0643  0.0162 -0.1996
11911TIP3    H157224   6.457   0.506  12.774 -1.6145  0.3710 -1.5294
11911TIP3    H257225   6.433   0.442  12.909  3.1296 -0.6213 -1.0762
11912TIP3   OH257226   1.977   4.949  11.517  0.3737 -0.0691 -0.2352
11912TIP3    H157227   2.025   5.012  11.463 -1.5827  0.4771 -1.4198
11912TIP3    H257228   1.965   4.873  11.459 -0.4077 -0.0908 -0.0483
11913TIP3   OH257229   4.012   1.634   0.541 -0.0759  0.4617 -0.3670
11913TIP3    H157230   4.089   1.640   0.597  1.0964 -0.0914 -1.8710
11913TIP3    H257231   4.042   1.665   0.456 -1.7777  1.1255 -0.7403
11914TIP3   OH257232   5.144   3.767   4.412  0.3465 -0.4434 -0.5174
11914TIP3    H157233   5.086   3.772   4.488 -1.0620 -1.0504 -1.5183
11914TIP3    H257234   5.217   3.712   4.440  0.2243 -0.0226  0.6314
11915TIP3   OH257235   5.864   6.284  13.042 -0.5740  0.2881 -0.2901
11915TIP3    H157236   5.880   6.233  13.122  1.6680  3.1550  1.1976
11915TIP3    H257237   5.907   6.234  12.973 -0.8948 -1.2782  0.6091
11916TIP3   OH257238   1.610   1.591  10.759  0.1246  0.1708 -0.0087
11916TIP3    H157239   1.580   1.669  10.712 -0.2270  0.8464  1.3121
11916TIP3    H257240   1.539   1.570  10.819  1.2497  0.2845  1.3776
11917TIP3   OH257241   6.457   1.100   4.877  0.5555 -0.2687  0.0785
11917TIP3    H157242   6.445   1.104   4.782  1.4342  2.4310  0.0468
11917TIP3    H257243   6.400   1.169   4.911  0.8883 -0.6622  1.4535
11918TIP3   OH257244   3.219   0.736   0.558  0.2074 -0.0675 -0.0010
11918TIP3    H157245   3.161   0.678   0.509  0.5894 -1.3559  1.0240
11918TIP3    H257246   3.249   0.683   0.632  0.6358  1.4197  0.9268
11919TIP3   OH257247   1.518   0.652  12.358 -0.0255 -0.7553 -0.4028
11919TIP3    H157248   1.478   0.565  12.359 -1.7027  0.0010  0.0055
11919TIP3    H257249   1.444   0.712  12.348  1.0194  0.6829  0.3493
11920TIP3   OH257250   0.557   4.550   0.137 -0.7482 -0.7217 -0.1307
11920TIP3    H157251   0.635   4.602   0.115 -0.6267 -0.8981 -0.1211
11920TIP3    H257252   0.527   4.515   0.053 -0.4920 -1.1063 -0.0642
11921TIP3   OH257253   6.185   5.373   1.601  0.2292  0.6664 -0.5868
11921TIP3    H157254   6.167   5.453   1.552  0.2432  1.1694  0.2301
11921TIP3    H257255   6.119   5.311   1.569 -0.7500  1.4585 -0.1365
11922TIP3   OH257256   2.428   3.548  14.051  0.0817  0.0485 -0.0783
11922TIP3    H157257   2.474   3.483  13.998  1.6145  0.1861  1.0316
11922TIP3    H257258   2.377   3.600  13.989 -1.1979 -2.2259 -0.9728
11923TIP3   OH257259   6.098   0.312  15.087  0.6261 -0.3297 -0.7034
11923TIP3    H157260   6.100   0.359  15.004 -0.3448 -0.8022 -1.0006
11923TIP3    H257261   6.042   0.236  15.071  1.5473 -1.1815 -0.0097
11924TIP3   OH257262   6.378   2.475  15.000  0.0007 -0.4178  0.3263
11924TIP3    H157263   6.395   2.382  15.012 -0.1748 -0.8651 -2.4708
11924TIP3    H257264   6.465   2.514  14.988 -0.0715 -0.7630 -1.6089
11925TIP3   OH257265   3.559   3.546   1.735 -0.2682 -0.3207  0.5316
11925TIP3    H157266   3.505   3.623   1.717 -0.8240 -0.5475  1.2290
11925TIP3    H257267   3.543   3.526   1.827 -1.4737 -2.3257 -0.0938
11926TIP3   OH257268   4.965   3.109  13.344 -0.2342 -0.6237  0.3197
11926TIP3    H157269   5.058   3.107  13.321  0.2178 -1.5085  2.1090
11926TIP3    H257270   4.921   3.065  13.271  0.2874  3.0171 -2.3102
11927TIP3   OH257271   5.002   5.758   1.415 -0.0491  0.2024  0.4007
11927TIP3    H157272   4.914   5.749   1.450  0.0642 -0.4457  0.5280
11927TIP3    H257273   4.989   5.764   1.320 -0.1746 -0.7024  0.3609
11928TIP3   OH257274   2.661   2.981  12.883  0.0624  0.8922  0.0967
11928TIP3    H157275   2.736   2.971  12.942  0.2643  0.0557 -0.3042
11928TIP3    H257276   2.676   3.065  12.840  1.0793  0.4526 -0.4188
11929TIP3   OH257277   4.615   5.602  13.665  0.3969 -0.0702  0.6835
11929TIP3    H157278   4.638   5.687  13.702 -1.2705 -0.0092  1.6319
11929TIP3    H257279   4.593   5.548  13.741 -0.8155 -0.6615 -0.0766
11930TIP3   OH257280   4.509   0.258  16.719 -0.0065 -0.0124 -0.1823
11930TIP3    H157281   4.474   0.289  16.802 -0.1239 -1.3123  0.2676
11930TIP3    H257282   4.481   0.167  16.713  1.3199 -0.3978 -0.9164
11931TIP3   OH257283   2.630   0.201   2.060 -0.6180  0.1465 -0.2517
11931TIP3    H157284   2.644   0.238   1.972 -2.6818 -0.5504 -0.9048
11931TIP3    H257285   2.546   0.156   2.053 -1.2649  0.8952  2.3655
11932TIP3   OH257286   0.171   4.351  17.205 -0.7683  0.8378  0.3169
11932TIP3    H157287   0.088   4.399  17.209 -2.2741 -1.5077 -1.6090
11932TIP3    H257288   0.199   4.359  17.113  0.3648  0.3154  0.5993
11933TIP3   OH257289   4.473   4.101  12.980  0.0502  0.3210 -0.1555
11933TIP3    H157290   4.452   4.168  12.915 -0.0739 -0.1179 -0.5723
11933TIP3    H257291   4.558   4.067  12.953 -0.9658 -1.3508 -1.3392
11934TIP3   OH257292   5.683   2.134   5.600  0.3652  0.2500  0.2645
11934TIP3    H157293   5.669   2.044   5.630 -0.0065 -0.1810 -1.1444
11934TIP3    H257294   5.623   2.144   5.526 -0.9070  2.2691  1.5298
11935TIP3   OH257295   5.254   0.938  16.013  0.3791  0.5358 -0.6490
11935TIP3    H157296   5.183   1.000  16.032 -0.1033  0.7121 -2.9787
11935TIP3    H257297   5.262   0.886  16.094 -2.7331  0.1769 -0.5124
11936TIP3   OH257298   4.923   2.456   3.898 -0.2928 -0.4863 -0.0552
11936TIP3    H157299   4.841   2.491   3.865 -0.8899 -0.7354  1.1476
11936TIP3    H257300   4.915   2.361   3.887  0.7549 -0.3848 -2.0075
11937TIP3   OH257301   5.873   5.700   2.027  0.2025 -0.3767 -0.0938
11937TIP3    H157302   5.900   5.712   1.936  0.4562  1.4302  0.1940
11937TIP3    H257303   5.782   5.669   2.022 -0.9104  2.8622 -0.9462
11938TIP3   OH257304   2.449   2.685  11.926 -0.1693 -0.5734  0.3040
11938TIP3    H157305   2.529   2.736  11.939 -1.1473  1.2217 -0.4772
11938TIP3    H257306   2.459   2.609  11.983  2.3046 -0.6444 -0.1504
11939TIP3   OH257307   6.712   0.733  16.078  0.5074 -0.0759 -0.2494
11939TIP3    H157308   6.679   0.708  16.164 -0.6236 -0.6303 -0.8342
11939TIP3    H257309   6.634   0.746  16.025  1.1513  1.6791 -0.8234
11940TIP3   OH257310   3.089   3.611   4.035 -0.7108 -0.2902 -0.0600
11940TIP3    H157311   3.178   3.581   4.056 -0.2806  0.7370 -0.3716
11940TIP3    H257312   3.066   3.671   4.105 -0.9746 -0.1958 -0.2251
11941TIP3   OH257313   5.783   5.470   5.344  0.2846  0.5410 -0.6401
11941TIP3    H157314   5.857   5.498   5.397 -0.9304  0.2786  1.2451
11941TIP3    H257315   5.757   5.385   5.380 -1.7270  1.2046 -0.4192
11942TIP3   OH257316   0.326   2.487  13.239 -0.0794  0.1878  0.2754
11942TIP3    H157317   0.381   2.409  13.222  0.4091  0.5526  0.1661
11942TIP3    H257318   0.239   2.461  13.211  0.2506 -0.0434 -0.5589
11943TIP3   OH257319   5.106   3.557  16.623  1.1770 -0.7398  0.0653
11943TIP3    H157320   5.072   3.637  16.581 -0.8934 -1.1439  0.9352
11943TIP3    H257321   5.201   3.571  16.627  0.9215  1.3531 -0.4845
11944TIP3   OH257322   1.619   2.811  12.014 -0.0381 -0.1020  0.2680
11944TIP3    H157323   1.603   2.904  11.997 -0.1851 -0.3008 -0.7285
11944TIP3    H257324   1.542   2.782  12.061 -0.7733 -0.1078 -0.9218
11945TIP3   OH257325   5.620   1.951  12.406  0.3236  0.2569  0.5785
11945TIP3    H157326   5.631   2.013  12.335 -0.0433 -0.9091 -0.5081
11945TIP3    H257327   5.686   1.977  12.471 -0.4230  2.3214  0.5593
11946TIP3   OH257328   6.281   2.064  11.982 -0.2229 -0.0252  0.1755
11946TIP3    H157329   6.279   2.146  12.030 -0.7704  0.4470 -0.6557
11946TIP3    H257330   6.191   2.032  11.983 -0.0848 -0.4282  0.1710
11947TIP3   OH257331   2.813   1.465  14.839  0.0896 -0.6309  0.2606
11947TIP3    H157332   2.821   1.526  14.912 -1.7898 -1.1019  0.8993
11947TIP3    H257333   2.722   1.473  14.810  0.9478 -0.0069 -2.4433
11948TIP3   OH257334   0.031   0.105  15.191 -0.2653  0.4798  0.3079
11948TIP3    H157335  -0.046   0.157  15.213 -0.8544 -0.2657  0.0557
11948TIP3    H257336   0.000   0.014  15.196  0.5503  0.1831  0.0331
11949TIP3   OH257337   1.372   0.692  16.046 -0.1754 -0.3827 -0.4307
11949TIP3    H157338   1.291   0.714  16.092 -0.3127 -2.1801  0.2480
11949TIP3    H257339   1.362   0.600  16.023  1.8599 -0.7596  0.0677
11950TIP3   OH257340   6.300   4.832   6.013  0.1542  0.0532  0.3896
11950TIP3    H157341   6.246   4.904   6.045  0.4138  0.9698 -1.1828
11950TIP3    H257342   6.324   4.783   6.092  0.1028  1.7742  1.5021
11951TIP3   OH257343   1.696   0.646  11.985 -0.2324 -0.2531  0.3213
11951TIP3    H157344   1.649   0.631  11.904  0.4764 -0.9318  0.0287
11951TIP3    H257345   1.701   0.559  12.027  1.9693 -0.4787 -0.3295
11952TIP3   OH257346   3.353   4.091   5.547  0.1523 -0.0001  0.4256
11952TIP3    H157347   3.263   4.081   5.518 -0.3692  2.1789  1.1449
11952TIP3    H257348   3.346   4.102   5.642  1.2635 -0.8190  0.6064
11953TIP3   OH257349   3.775   2.376  14.877 -0.1078  0.0570 -0.4812
11953TIP3    H157350   3.695   2.429  14.870  0.9649  1.6109 -1.4036
11953TIP3    H257351   3.824   2.396  14.797  1.7291  0.0233  0.6090
11954TIP3   OH257352   2.132   0.138   4.830  0.1265 -0.3820 -0.5070
11954TIP3    H157353   2.224   0.142   4.859  0.5559  2.8287 -2.0365
11954TIP3    H257354   2.129   0.063   4.771  0.9373 -2.5545  2.1095
11955TIP3   OH257355   5.109   4.893   0.970  0.0586  0.7930 -0.4231
11955TIP3    H157356   5.099   4.797   0.972  1.2049  0.6522 -1.0847
11955TIP3    H257357   5.020   4.926   0.955 -0.3092 -0.1839 -0.4225
11956TIP3   OH257358   1.435   3.475   2.442  0.6495  0.1479 -0.4949
11956TIP3    H157359   1.504   3.471   2.508  0.4458  4.4931  0.1173
11956TIP3    H257360   1.354   3.468   2.492  0.5051  3.0992 -0.2391
11957TIP3   OH257361   1.892   3.746  11.534  0.2124  0.2902 -0.1085
11957TIP3    H157362   1.891   3.796  11.616 -0.9690 -0.6876  0.4840
11957TIP3    H257363   1.892   3.655  11.562 -1.8865 -0.0616 -1.2254
11958TIP3   OH257364   4.067   2.757  16.147 -0.1545 -0.2721 -0.5089
11958TIP3    H157365   4.010   2.681  16.153 -0.0001 -0.3060  0.5399
11958TIP3    H257366   4.022   2.826  16.196 -0.2425  0.2847 -1.3637
11959TIP3   OH257367   3.600   3.472   5.669  0.0196  1.0354  0.9700
11959TIP3    H157368   3.560   3.439   5.750  1.5808  0.9599  1.7219
11959TIP3    H257369   3.529   3.469   5.605 -0.5281 -1.5147  1.6350
11960TIP3   OH257370   2.299   3.154  17.197  0.2086 -0.3970  0.1415
11960TIP3    H157371   2.301   3.072  17.147  0.8416  0.6992 -1.6901
11960TIP3    H257372   2.383   3.155  17.244  2.3278  1.3080 -3.4446
11961TIP3   OH257373   0.912   2.193   3.434  0.2345 -0.4935  0.1663
11961TIP3    H157374   0.985   2.254   3.432 -0.3352  0.2014  0.4345
11961TIP3    H257375   0.849   2.231   3.495 -0.8539 -0.5017 -0.9225
11962TIP3   OH257376   1.106   3.445   6.830  0.1100  0.0459  0.1817
11962TIP3    H157377   1.165   3.370   6.839 -1.3598 -1.1209  0.3449
11962TIP3    H257378   1.163   3.519   6.809  1.4155 -1.4539 -1.6697
11963TIP3   OH257379   0.042   6.113   0.007  0.3505  0.0767 -0.3301
11963TIP3    H157380  -0.046   6.100  -0.029  0.3341 -1.1683  0.1305
11963TIP3    H257381   0.087   6.168  -0.057  0.4182 -2.3207 -2.4409
11964TIP3   OH257382   4.294   3.299   1.592 -0.4423  0.1284  0.5452
11964TIP3    H157383   4.370   3.342   1.554  0.8661 -0.4951  2.4120
11964TIP3    H257384   4.313   3.295   1.686 -3.3428  1.1570  1.2336
11965TIP3   OH257385   5.053   6.599  16.243 -0.5496  0.1568 -0.0847
11965TIP3    H157386   4.982   6.606  16.307 -1.5147  0.2575 -1.1572
11965TIP3    H257387   5.077   6.690  16.223  0.9303  0.1241  1.4005
11966TIP3   OH257388   5.975   2.408   0.267  0.8664  0.1893  0.5594
11966TIP3    H157389   5.982   2.405   0.172 -2.4372 -0.0570  0.2720
11966TIP3    H257390   6.023   2.331   0.297 -0.7098 -1.5244 -1.1495
11967TIP3   OH257391   3.993   3.962   2.358  0.7189 -0.0031 -0.3548
11967TIP3    H157392   3.961   3.898   2.295 -0.9882  0.0229  0.4892
11967TIP3    H257393   4.023   3.911   2.432  0.4001  0.1181 -0.1441
11968TIP3   OH257394   6.732   1.892   3.197 -0.3813  0.2620  0.2345
11968TIP3    H157395   6.695   1.971   3.157 -1.9772 -0.6961 -0.2234
11968TIP3    H257396   6.657   1.844   3.230  0.7892  0.2011  2.9076
11969TIP3   OH257397   1.679   4.226  13.828  0.0495 -0.1303 -0.5594
11969TIP3    H157398   1.751   4.183  13.874  0.5258  1.0277 -0.2088
11969TIP3    H257399   1.629   4.154  13.789 -0.3124 -1.1270  1.6806
11970TIP3   OH257400   4.975   4.752  13.942 -0.0052  0.1107 -0.4625
11970TIP3    H157401   4.899   4.759  13.885 -0.7357 -0.1034  0.4591
11970TIP3    H257402   4.997   4.659  13.941  0.4395  0.2172 -0.9668
11971TIP3   OH257403   5.068   4.656  11.972 -0.0088 -0.1804 -0.1195
11971TIP3    H157404   5.149   4.641  12.020 -0.4564 -0.3403  0.5980
11971TIP3    H257405   5.011   4.583  11.998 -0.2701 -0.2471 -0.8677
11972TIP3   OH257406   2.653   4.922   6.722  0.2339  0.3012  0.3182
11972TIP3    H157407   2.730   4.902   6.668 -1.1998  0.8045 -1.9913
11972TIP3    H257408   2.650   5.018   6.724  0.0677  0.2827  0.9846
11973TIP3   OH257409   4.252   1.004  13.080 -0.2381 -0.4888  0.0825
11973TIP3    H157410   4.327   0.967  13.126  1.6753  0.4881 -2.0800
11973TIP3    H257411   4.292   1.058  13.011 -2.9497  0.6110 -0.6851
11974TIP3   OH257412   1.485   3.745   0.496 -0.3650 -0.0096  0.0983
11974TIP3    H157413   1.446   3.830   0.474 -0.0576 -0.0434 -0.5775
11974TIP3    H257414   1.437   3.682   0.443  0.0566 -0.1478 -0.1193
11975TIP3   OH257415   4.253   1.689   0.343  0.0663  0.1668 -0.4652
11975TIP3    H157416   4.297   1.700   0.427  1.8511 -0.3996 -1.2930
11975TIP3    H257417   4.288   1.760   0.288  0.9649 -1.0482 -1.5145
11976TIP3   OH257418   4.596   6.765  15.101 -0.0916  0.0794  0.3302
11976TIP3    H157419   4.558   6.839  15.148  1.2024  0.7138  0.4114
11976TIP3    H257420   4.589   6.692  15.162  0.6119  0.6561  1.1327
11977TIP3   OH257421   2.283   6.645  15.998  0.5871 -0.2851 -0.1889
11977TIP3    H157422   2.348   6.715  16.001 -0.7592  1.1483 -2.9550
11977TIP3    H257423   2.333   6.565  16.010  2.8097  0.8321 -1.6609
11978TIP3   OH257424   3.566   1.710   4.950  0.4770  0.4908  0.2370
11978TIP3    H157425   3.480   1.736   4.982  0.8169  0.6715  1.0251
11978TIP3    H257426   3.623   1.784   4.974  1.5299 -1.1084  2.7803
11979TIP3   OH257427   4.831   1.318  16.919  0.1047 -0.4097  0.0465
11979TIP3    H157428   4.873   1.323  16.833  0.0060  1.4148  0.0867
11979TIP3    H257429   4.833   1.408  16.952 -0.8768 -0.8908  1.4673
11980TIP3   OH257430   0.390   3.191   5.352  0.3535  0.2568 -0.2338
11980TIP3    H157431   0.380   3.143   5.433 -0.1510 -1.1668 -1.1219
11980TIP3    H257432   0.483   3.215   5.350 -0.0986  2.3754  1.8689
11981TIP3   OH257433   3.517   4.079   0.530  0.3385 -0.1513  0.2103
11981TIP3    H157434   3.474   4.163   0.514  0.0036 -0.1345  1.1827
11981TIP3    H257435   3.446   4.020   0.555  0.8241 -0.2208  1.4488
11982TIP3   OH257436   1.091   0.721  17.210 -0.2737 -0.2681  0.1864
11982TIP3    H157437   1.108   0.630  17.186 -0.8194  0.5588 -3.7272
11982TIP3    H257438   1.000   0.723  17.239 -0.8772 -0.6883 -1.6027
11983TIP3   OH257439   5.557   3.595  15.612  0.6025  0.7097  0.5050
11983TIP3    H157440   5.485   3.543  15.577  1.4619 -0.2307  0.1182
11983TIP3    H257441   5.525   3.685  15.609 -0.6030  0.2925  0.4521
11984TIP3   OH257442   3.655   0.203  13.216 -0.0657 -0.2506 -0.4026
11984TIP3    H157443   3.703   0.124  13.240 -0.9321 -0.3688  1.0274
11984TIP3    H257444   3.693   0.230  13.133  1.6151 -1.0278  0.0861
11985TIP3   OH257445   0.760   1.764  10.630 -0.0036  0.5290  0.3582
11985TIP3    H157446   0.775   1.685  10.578  2.3881  1.9230 -1.1508
11985TIP3    H257447   0.764   1.734  10.720 -0.0185 -1.2328 -0.2023
11986TIP3   OH257448   3.137   2.458  13.953 -0.1789  0.6101 -0.2363
11986TIP3    H157449   3.186   2.540  13.946  0.0175  0.4473 -0.8349
11986TIP3    H257450   3.169   2.404  13.880  0.7686 -0.5705  1.0287
11987TIP3   OH257451   1.893   1.257   1.259  0.1351 -0.4024 -0.0798
11987TIP3    H157452   1.811   1.300   1.282  1.9379  3.4420 -0.4409
11987TIP3    H257453   1.885   1.241   1.165 -0.1366  0.0952 -0.1448
11988TIP3   OH257454   5.109   1.541   0.741  0.2797  0.4197  0.1760
11988TIP3    H157455   5.196   1.542   0.781 -0.0730  1.1089  0.9203
11988TIP3    H257456   5.061   1.611   0.784 -0.5109  0.3365 -0.5523
11989TIP3   OH257457   2.443   0.360  11.871 -0.2460 -0.0779 -0.4256
11989TIP3    H157458   2.369   0.299  11.875  0.1240 -0.5470 -0.7202
11989TIP3    H257459   2.444   0.403  11.957  1.0149 -2.2740  0.6978
11990TIP3   OH257460   1.107   4.255  11.404  0.3769  0.0749 -0.7640
11990TIP3    H157461   1.103   4.206  11.323  0.0594 -0.0855 -0.6489
11990TIP3    H257462   1.019   4.291  11.416  0.5437  0.4815 -0.7307
11991TIP3   OH257463   3.464   3.236   2.038 -0.3196  0.3868 -0.3100
11991TIP3    H157464   3.452   3.189   1.956 -1.3623  1.2534 -0.6599
11991TIP3    H257465   3.395   3.203   2.096  0.4743 -0.2971  0.2637
11992TIP3   OH257466   4.470   1.993   4.748  0.5937 -0.4980  0.0675
11992TIP3    H157467   4.550   1.946   4.770 -0.0434 -1.3324  0.6115
11992TIP3    H257468   4.488   2.084   4.772  0.8072 -0.9588  1.6771
11993TIP3   OH257469   2.286   2.547   5.959  0.7537  1.1242  0.0872
11993TIP3    H157470   2.372   2.521   5.928  0.1518 -0.2323 -0.4646
11993TIP3    H257471   2.225   2.491   5.911 -0.3225  0.6929  1.9447
11994TIP3   OH257472   3.753   3.674  15.063  0.2621 -0.4640 -0.0598
11994TIP3    H157473   3.809   3.603  15.034 -0.0626 -1.6341  2.0535
11994TIP3    H257474   3.695   3.633  15.128 -1.4929  1.2144 -0.5251
11995TIP3   OH257475   1.586   0.607  17.076  0.1712  0.0062  0.3167
11995TIP3    H157476   1.590   0.514  17.094  1.4910  0.0710  0.4322
11995TIP3    H257477   1.518   0.641  17.135 -0.0489 -0.8140  0.5297
11996TIP3   OH257478   6.133   2.438  15.080 -0.8698  0.5117 -0.7361
11996TIP3    H157479   6.096   2.495  15.147 -1.1490 -0.7871  0.2348
11996TIP3    H257480   6.223   2.470  15.069 -0.1220 -0.5342  1.7880
11997TIP3   OH257481   1.156   2.391  14.060 -0.7292 -0.1459  0.3530
11997TIP3    H157482   1.186   2.320  14.004  0.9459  0.7010  0.1531
11997TIP3    H257483   1.234   2.421  14.106 -1.3630  1.6705  0.3027
11998TIP3   OH257484   3.824   5.805  15.528 -0.1240  0.7250 -0.2054
11998TIP3    H157485   3.851   5.829  15.616 -1.8229  0.6209  0.3675
11998TIP3    H257486   3.765   5.876  15.501 -0.7801  0.0146 -0.6638
11999TIP3   OH257487   4.743   3.403  11.622  0.1275 -0.0040 -0.7999
11999TIP3    H157488   4.677   3.334  11.625  1.1986 -1.0895 -1.5381
11999TIP3    H257489   4.826   3.356  11.610  0.8655  1.4275 -1.4244
12000TIP3   OH257490   1.112   5.353  15.216 -0.7413 -0.3841 -0.5780
12000TIP3    H157491   1.063   5.272  15.234  1.0921 -1.1049  1.3853
12000TIP3    H257492   1.172   5.330  15.145  0.4329 -1.0419  0.6090
12001TIP3   OH257493   1.636   3.804   0.244 -0.0240  0.1878 -0.8061
12001TIP3    H157494   1.664   3.880   0.193 -1.2791  1.7046  0.7085
12001TIP3    H257495   1.541   3.801   0.233  0.1942 -2.2020 -2.2221
12002TIP3   OH257496   2.818   6.162  15.863  0.1560  0.3563  0.1103
12002TIP3    H157497   2.790   6.169  15.954 -2.1638 -0.0949 -0.5367
12002TIP3    H257498   2.750   6.207  15.813  2.1903  1.9541 -1.2977
12003TIP3   OH257499   2.136   3.791  12.437 -0.1955 -0.0441  0.2634
12003TIP3    H157500   2.046   3.763  12.453 -0.3682  0.7286  0.6592
12003TIP3    H257501   2.187   3.709  12.436 -0.8079 -0.4327  0.6094
12004TIP3   OH257502   2.800   0.679  15.367  0.0644 -0.0764 -0.1053
12004TIP3    H157503   2.785   0.755  15.310  1.0716 -0.4518 -0.8885
12004TIP3    H257504   2.778   0.604  15.312 -2.3511 -0.3188  1.1324
12005TIP3   OH257505   0.093   1.006  12.003 -0.2244  0.1012 -0.0113
12005TIP3    H157506   0.132   0.974  12.085 -0.1280  1.2200  0.3919
12005TIP3    H257507   0.167   1.038  11.952 -0.5395  1.5789  0.4583
12006TIP3   OH257508   2.548   6.748   5.126  0.0530  0.1381 -0.4330
12006TIP3    H157509   2.552   6.717   5.217 -0.2153  0.2821 -0.3721
12006TIP3    H257510   2.602   6.827   5.126 -0.8881  0.7910 -0.1314
12007TIP3   OH257511   5.213   0.529  14.823  0.3565  0.2484 -0.7816
12007TIP3    H157512   5.298   0.563  14.795  1.3069 -1.0061  0.5118
12007TIP3    H257513   5.175   0.600  14.875  2.4825 -0.7106  2.1991
12008TIP3   OH257514   4.655   0.291  14.149 -0.6046 -0.2668 -0.3223
12008TIP3    H157515   4.739   0.296  14.195 -0.9603  1.2987  0.1926
12008TIP3    H257516   4.665   0.216  14.090  0.6908 -0.8764  0.6353
12009TIP3   OH257517   6.562   4.076   3.142  0.0944 -0.3807  0.4045
12009TIP3    H157518   6.494   4.010   3.158  0.4709 -0.8868 -0.0516
12009TIP3    H257519   6.639   4.042   3.188  0.5848 -0.7879 -0.6905
12010TIP3   OH257520   2.389   0.561   2.704  0.3381 -0.9133  0.1224
12010TIP3    H157521   2.448   0.589   2.634 -0.2070 -1.3696 -0.5229
12010TIP3    H257522   2.426   0.600   2.783  0.8850 -0.2837 -0.4346
12011TIP3   OH257523   0.070   2.514   1.759  0.1031 -0.1397  0.1116
12011TIP3    H157524   0.064   2.508   1.855  2.0031  0.5819  0.2865
12011TIP3    H257525   0.036   2.601   1.739 -0.2144 -0.2576  0.1309
12012TIP3   OH257526   3.619   6.636  12.446  0.4088 -0.0592 -0.2113
12012TIP3    H157527   3.663   6.618  12.363  0.0241 -0.9747 -0.2187
12012TIP3    H257528   3.687   6.623  12.512  0.1036 -1.7505 -0.2027
12013TIP3   OH257529   5.885   3.170   4.934 -0.1908  0.1138  0.4662
12013TIP3    H157530   5.849   3.254   4.907  0.3678  0.4839  0.8549
12013TIP3    H257531   5.907   3.125   4.852 -2.7818 -0.6840  0.1812
12014TIP3   OH257532   6.785   4.237  15.012 -0.6641  0.0401 -0.2666
12014TIP3    H157533   6.778   4.147  14.981 -0.5409 -0.5626  1.4060
12014TIP3    H257534   6.764   4.232  15.105 -2.5001  2.0277 -0.5405
12015TIP3   OH257535   3.963   4.879  10.942 -0.1925 -0.0350  0.3433
12015TIP3    H157536   3.918   4.897  10.859  1.2649 -0.8616 -0.6580
12015TIP3    H257537   3.962   4.962  10.989 -0.6286  0.5645 -0.7087
12016TIP3   OH257538   3.361   2.983  14.341 -0.1873 -0.0541 -0.1684
12016TIP3    H157539   3.303   2.920  14.297 -2.2675  0.5802  1.6158
12016TIP3    H257540   3.419   2.928  14.394 -0.4528 -0.5718 -0.4024
12017TIP3   OH257541   2.160   3.329  16.278 -0.0454  0.0475  0.0051
12017TIP3    H157542   2.133   3.409  16.323  0.0709 -0.4843  1.0396
12017TIP3    H257543   2.143   3.346  16.185 -1.5192  0.6823  0.3771
12018TIP3   OH257544   3.364   2.798  12.146 -0.2503  0.2195  0.1934
12018TIP3    H157545   3.426   2.854  12.193  0.4007 -0.4178  0.1115
12018TIP3    H257546   3.330   2.853  12.076 -1.3798  1.2384  1.5287
12019TIP3   OH257547   1.539   3.313  11.657  0.2812 -0.0621 -0.3814
12019TIP3    H157548   1.501   3.398  11.677  0.4875  0.2134 -1.1052
12019TIP3    H257549   1.620   3.309  11.708  0.4943  0.3675 -0.6833
12020TIP3   OH257550   1.217   4.032   2.243  0.1324  0.1163  0.6341
12020TIP3    H157551   1.179   4.066   2.162 -0.1979 -1.7866 -0.0493
12020TIP3    H257552   1.297   4.083   2.255  0.0917  0.5570 -0.7928
12021TIP3   OH257553   4.673   1.141   2.869  0.0956  0.1171  0.4866
12021TIP3    H157554   4.713   1.154   2.783 -1.4172  0.2827 -0.2052
12021TIP3    H257555   4.716   1.206   2.925  1.9587 -0.7847  0.1754
12022TIP3   OH257556   4.209   3.570   6.208  0.1064  0.6214 -0.0782
12022TIP3    H157557   4.243   3.654   6.178  0.9758  0.7818  1.2964
12022TIP3    H257558   4.283   3.510   6.201  0.6175  0.8821  2.5702
12023TIP3   OH257559   2.661   4.466   0.277  0.6074  0.3773  1.1210
12023TIP3    H157560   2.753   4.485   0.262  0.3496  1.1935  0.5588
12023TIP3    H257561   2.622   4.462   0.190 -0.0949  1.0858  1.3932
12024TIP3   OH257562   4.959   6.018   0.082 -0.0751  0.2217  0.1912
12024TIP3    H157563   5.019   5.974   0.023  0.4803 -0.3570  1.1724
12024TIP3    H257564   4.952   6.107   0.047  0.7895  0.0921 -0.3349
12025TIP3   OH257565   5.833   4.165   2.434  0.6155  0.8264 -0.2537
12025TIP3    H157566   5.764   4.174   2.368  0.2910  1.6128  0.1863
12025TIP3    H257567   5.843   4.070   2.445  1.2250  0.6708 -1.9976
12026TIP3   OH257568   4.012   5.639   1.157  0.4632 -0.2445  0.1556
12026TIP3    H157569   4.014   5.544   1.155 -1.0706 -0.2771 -1.0265
12026TIP3    H257570   3.921   5.661   1.180  0.0307  0.9172 -2.4197
12027TIP3   OH257571   6.771   0.748  14.416  0.3691  0.1516 -0.1593
12027TIP3    H157572   6.750   0.670  14.365  0.7361  0.9735 -1.6122
12027TIP3    H257573   6.787   0.816  14.350  0.5408  1.3260  1.0651
12028TIP3   OH257574   6.788   0.861   2.181  0.2220 -0.4759  0.1427
12028TIP3    H157575   6.880   0.868   2.156 -0.0235 -1.2822 -1.0044
12028TIP3    H257576   6.740   0.865   2.098 -0.9531  2.4949  0.8913
12029TIP3   OH257577   0.157   0.072   0.713 -0.4587  0.4717 -0.1104
12029TIP3    H157578   0.171   0.002   0.778 -2.0344  2.5030  2.5266
12029TIP3    H257579   0.243   0.110   0.699  0.1410 -0.9439 -0.3642
12030TIP3   OH257580   4.245   5.776   1.287 -0.0005 -0.4385  0.3792
12030TIP3    H157581   4.182   5.741   1.224  0.6022 -0.3311 -0.2876
12030TIP3    H257582   4.264   5.703   1.345  1.8091 -1.4913 -1.4436
12031TIP3   OH257583   1.054   1.254   2.819  0.0338  0.4216 -0.0773
12031TIP3    H157584   1.112   1.225   2.891 -0.0855  0.3101 -0.0262
12031TIP3    H257585   1.055   1.349   2.826  0.5568  0.4386 -0.3468
12032TIP3   OH257586   4.306   4.018   2.275 -0.2219  0.1313 -0.5055
12032TIP3    H157587   4.210   4.018   2.281 -0.3509 -2.8711 -1.7008
12032TIP3    H257588   4.332   4.107   2.302 -3.3099  0.9657 -0.0935
12033TIP3   OH257589   1.058   4.482   5.102 -0.3958  0.0048  0.0638
12033TIP3    H157590   1.028   4.520   5.020 -3.5251  0.6141  1.4307
12033TIP3    H257591   0.981   4.440   5.140  1.2273 -1.1943  2.1985
12034TIP3   OH257592   6.524   3.095  15.488  0.2605 -0.2191 -0.6094
12034TIP3    H157593   6.559   3.144  15.414  1.3093 -0.0655 -0.0201
12034TIP3    H257594   6.480   3.161  15.542  1.7849  0.1203  0.2503
12035TIP3   OH257595   5.954   6.049   0.327 -0.0396 -0.0767 -0.1405
12035TIP3    H157596   5.943   6.032   0.420 -1.1100 -3.4367 -0.7971
12035TIP3    H257597   6.047   6.070   0.317  0.4060 -1.1632  1.4759
12036TIP3   OH257598   4.884   4.149  15.871  1.0417 -0.1709  0.0561
12036TIP3    H157599   4.968   4.122  15.907  0.1307 -0.7145  1.8271
12036TIP3    H257600   4.879   4.243  15.888  0.6611 -0.4061  1.2808
12037TIP3   OH257601   5.226   4.301  15.815 -0.3234  0.3101 -0.0067
12037TIP3    H157602   5.182   4.244  15.879  0.1326  0.4653  0.4419
12037TIP3    H257603   5.283   4.356  15.867  2.4994 -1.7514 -0.8012
12038TIP3   OH257604   3.462   4.148  16.500 -0.4872  0.9700 -0.1821
12038TIP3    H157605   3.488   4.238  16.480  1.1815  0.6998  0.6818
12038TIP3    H257606   3.486   4.098  16.422  0.0647  0.9975 -0.0284
12039TIP3   OH257607   2.375   2.719   4.568  0.0802 -0.1685 -0.6398
12039TIP3    H157608   2.457   2.753   4.531 -0.0104  1.4435  0.5761
12039TIP3    H257609   2.317   2.711   4.493  0.7644  0.4576 -1.2521
12040TIP3   OH257610   3.261   2.912   3.615  0.3633  0.1987 -0.6000
12040TIP3    H157611   3.324   2.980   3.591 -0.7315  1.7180  0.6997
12040TIP3    H257612   3.223   2.944   3.698 -2.0323 -0.7251 -1.3227
12041TIP3   OH257613   6.206   2.347  12.633 -0.7657  0.2822 -0.0484
12041TIP3    H157614   6.185   2.400  12.556 -0.8546 -0.0688 -0.2667
12041TIP3    H257615   6.176   2.259  12.611  1.4689 -0.3699 -0.5864
12042TIP3   OH257616   4.891   0.636   2.515 -0.6038  0.2165  0.2861
12042TIP3    H157617   4.892   0.654   2.609 -1.8207  0.9609  0.1617
12042TIP3    H257618   4.861   0.545   2.509  0.0240 -0.0156  0.6410
12043TIP3   OH257619   6.521   2.438   2.265  0.1959 -0.1154  0.2014
12043TIP3    H157620   6.450   2.493   2.233  0.8791 -0.2261 -1.5247
12043TIP3    H257621   6.535   2.468   2.355 -2.8744 -0.9612  1.0445
12044TIP3   OH257622   6.051   5.373  14.495 -0.3331 -0.0018  0.0607
12044TIP3    H157623   5.998   5.438  14.540  0.3436  0.2638  0.4862
12044TIP3    H257624   6.038   5.292  14.544 -2.2591 -0.5364 -1.2759
12045TIP3   OH257625   2.142   1.831   0.125 -0.1342 -1.0637  0.3199
12045TIP3    H157626   2.159   1.859   0.215  1.8013  1.0807 -0.6424
12045TIP3    H257627   2.077   1.893   0.092 -1.9662 -2.7553  0.6699
12046TIP3   OH257628   6.505   4.718  15.459 -0.9927  0.6640  0.1256
12046TIP3    H157629   6.559   4.658  15.510 -0.2141  1.3026  0.0680
12046TIP3    H257630   6.440   4.663  15.417 -1.5682  0.1125  1.7120
12047TIP3   OH257631   4.656   6.820   4.684 -0.5377 -0.6429 -0.2179
12047TIP3    H157632   4.601   6.823   4.606  1.2452 -0.7272 -1.5241
12047TIP3    H257633   4.680   6.911   4.701  0.3927 -0.7689 -0.7725
12048TIP3   OH257634   6.062   3.905  12.469 -0.0429  0.0498 -0.0185
12048TIP3    H157635   6.019   3.834  12.420  0.0417 -0.1063  0.1328
12048TIP3    H257636   6.134   3.862  12.515 -0.1364  0.1917  0.2629
12049TIP3   OH257637   5.518   0.742  12.988 -0.4099  0.4243  1.0520
12049TIP3    H157638   5.560   0.825  13.012  0.9275  0.0326  0.0998
12049TIP3    H257639   5.574   0.675  13.028  1.2088 -0.1992 -2.0899
12050TIP3   OH257640   6.659   3.595   3.523  0.0243 -0.1633 -0.6706
12050TIP3    H157641   6.694   3.568   3.607 -0.9564 -0.6840 -0.4192
12050TIP3    H257642   6.728   3.649   3.484 -0.3495  1.9221  1.4130
12051TIP3   OH257643   1.033   4.286   2.403 -0.1566  0.7694  0.3515
12051TIP3    H157644   0.937   4.295   2.399 -0.1178  0.5102 -2.0300
12051TIP3    H257645   1.050   4.200   2.366  1.1034  1.4522 -0.6900
12052TIP3   OH257646   4.502   3.058  14.316 -0.1530  0.1749 -0.0504
12052TIP3    H157647   4.503   2.988  14.381 -0.1558  2.3192  2.3426
12052TIP3    H257648   4.427   3.037  14.259 -0.7714 -1.1897  1.2428
12053TIP3   OH257649   2.331   0.042  16.291  0.2839  0.3640 -0.3046
12053TIP3    H157650   2.316  -0.051  16.308  0.9585 -0.4214 -3.6832
12053TIP3    H257651   2.246   0.082  16.307 -0.0351 -0.8141  1.1350
12054TIP3   OH257652   5.664   4.835   4.396 -0.0230  0.2099 -0.0390
12054TIP3    H157653   5.713   4.811   4.474  0.1979 -0.3109 -0.3314
12054TIP3    H257654   5.589   4.884   4.428  1.1874  1.8341  0.3533
12055TIP3   OH257655   5.178   2.890  16.465  0.1385  0.1033 -1.1081
12055TIP3    H157656   5.259   2.886  16.516 -0.9198  1.1666  0.7266
12055TIP3    H257657   5.150   2.798  16.457 -0.6762  0.0185  1.9545
12056TIP3   OH257658   5.470   6.427  14.021 -0.1804 -0.3556  0.3913
12056TIP3    H157659   5.387   6.400  14.060 -0.9790  0.9503 -0.3388
12056TIP3    H257660   5.447   6.452  13.931  1.2542 -1.3277 -0.2766
12057TIP3   OH257661   0.840   2.787  15.460 -0.5081 -0.4219  0.6194
12057TIP3    H157662   0.850   2.872  15.418 -3.1629 -0.3398  0.0707
12057TIP3    H257663   0.848   2.724  15.388  1.1668 -0.6704  0.9831
12058TIP3   OH257664   0.859   0.888  12.498  0.2836 -0.3262  0.2354
12058TIP3    H157665   0.890   0.953  12.436 -1.4644 -0.3152 -0.6720
12058TIP3    H257666   0.926   0.820  12.497  1.1610  0.5373 -0.2780
12059TIP3   OH257667   2.251   0.419   4.348  0.7788  0.2707  0.4366
12059TIP3    H157668   2.284   0.427   4.259  0.8284  2.0854  0.5961
12059TIP3    H257669   2.156   0.429   4.340  0.8729  1.4131  0.6892
12060TIP3   OH257670   1.088   3.260  12.765  0.2112  0.1955 -0.0832
12060TIP3    H157671   1.069   3.242  12.673 -0.9294  0.6256  0.0656
12060TIP3    H257672   1.074   3.176  12.809 -1.4369  0.5251  0.0359
12061TIP3   OH257673   5.505   1.882  11.034  0.7028  0.1360  0.0631
12061TIP3    H157674   5.543   1.911  10.951  1.2525  0.4682  0.4271
12061TIP3    H257675   5.541   1.795  11.048 -0.2741 -0.3860 -0.6024
12062TIP3   OH257676   5.109   4.922  13.635 -0.4613 -0.6758  0.4305
12062TIP3    H157677   5.198   4.907  13.667  0.0744  0.2995 -0.5482
12062TIP3    H257678   5.119   4.991  13.570 -1.4141 -2.8975 -2.1849
12063TIP3   OH257679   6.018   3.874   3.051 -0.0777 -0.3236  0.2982
12063TIP3    H157680   6.011   3.881   2.956  0.5561  1.4336  0.3733
12063TIP3    H257681   5.956   3.938   3.085 -0.5859 -1.2187  1.0860
12064TIP3   OH257682   3.280   3.160  14.562 -0.0848 -0.1115 -0.4243
12064TIP3    H157683   3.228   3.143  14.483  0.7632  1.2669 -1.2990
12064TIP3    H257684   3.283   3.256  14.569  1.9246 -0.1726 -0.1050
12065TIP3   OH257685   2.670   0.589  14.700  0.1848  0.6269 -0.3010
12065TIP3    H157686   2.641   0.553  14.616 -0.0452 -0.7911  0.3758
12065TIP3    H257687   2.637   0.527  14.765  0.9303  1.3677  0.7836
12066TIP3   OH257688   2.990   5.682  11.848  0.1912 -0.5850 -0.2417
12066TIP3    H157689   3.048   5.759  11.845  0.6092 -0.9222 -1.2343
12066TIP3    H257690   3.050   5.608  11.853 -0.2056 -0.8690  0.2813
12067TIP3   OH257691   5.031   5.200   4.488 -0.3148  0.4457 -0.1585
12067TIP3    H157692   4.948   5.161   4.462 -0.4127  2.3014 -2.7947
12067TIP3    H257693   5.010   5.290   4.511  0.9872  0.9967 -1.0510
12068TIP3   OH257694   2.671   3.510   6.727 -0.1286 -0.1435  0.6302
12068TIP3    H157695   2.587   3.476   6.758 -0.1297  0.1189  0.9121
12068TIP3    H257696   2.695   3.452   6.655 -0.2168 -0.6453  1.0018
12069TIP3   OH257697   5.495   1.566  14.269  0.1408 -0.1954  0.0577
12069TIP3    H157698   5.578   1.575  14.223  0.7792 -0.3366  1.1794
12069TIP3    H257699   5.518   1.570  14.362 -1.0606 -0.5884  0.3779
12070TIP3   OH257700   0.591   2.905  12.792 -0.1914  0.1946  0.0309
12070TIP3    H157701   0.514   2.873  12.745 -0.8124 -0.6844  1.6137
12070TIP3    H257702   0.663   2.853  12.756 -1.1708 -3.0083  2.4616
12071TIP3   OH257703   2.272   4.130  13.424  0.1079  0.1897  0.2545
12071TIP3    H157704   2.193   4.160  13.380 -0.0022  1.1686  1.1121
12071TIP3    H257705   2.255   4.038  13.444 -1.1450  0.6073  1.1460
12072TIP3   OH257706   1.129   0.262   2.099  0.9109  0.1939  0.5393
12072TIP3    H157707   1.183   0.235   2.173  1.4169 -0.0612  0.0760
12072TIP3    H257708   1.068   0.326   2.136  0.4724 -0.7046  1.4053
12073TIP3   OH257709   2.872   6.031  17.061 -0.2000  0.3097  0.1450
12073TIP3    H157710   2.799   5.976  17.088  0.5887 -1.2539 -0.7995
12073TIP3    H257711   2.921   6.048  17.142 -1.4982  1.2517  0.7529
12074TIP3   OH257712   3.495   3.057  15.861  0.1844  0.4604 -0.0279
12074TIP3    H157713   3.566   3.043  15.799  0.1047  0.5851 -0.1469
12074TIP3    H257714   3.522   3.133  15.912  0.4064  0.1533  0.3160
12075TIP3   OH257715   4.095   2.179  11.397 -0.0769 -0.7028  0.1838
12075TIP3    H157716   4.167   2.170  11.334  0.2664 -1.2803  0.6502
12075TIP3    H257717   4.109   2.265  11.437  0.7253 -1.0659  0.7131
12076TIP3   OH257718   2.857   4.117   5.853  0.1994 -0.0148 -0.1550
12076TIP3    H157719   2.836   4.210   5.862  3.4842  0.7147  0.4398
12076TIP3    H257720   2.883   4.089   5.941 -0.0860 -1.3319 -0.4747
12077TIP3   OH257721   1.777   4.262  12.029 -0.2146 -0.2487 -0.2181
12077TIP3    H157722   1.805   4.171  12.024 -2.1239 -0.9052  0.4919
12077TIP3    H257723   1.814   4.295  12.111  0.6603 -0.3063 -0.5846
12078TIP3   OH257724   2.463   2.288  12.579 -0.2719  0.5892  0.8172
12078TIP3    H157725   2.375   2.251  12.567  0.6524 -1.4977  0.2171
12078TIP3    H257726   2.522   2.216  12.557  1.5967  1.7604  1.9121
12079TIP3   OH257727   0.574   3.048  14.824  0.3586 -0.3307 -0.3403
12079TIP3    H157728   0.644   3.113  14.837 -0.1049  0.5278 -2.0173
12079TIP3    H257729   0.496   3.091  14.861  0.5106 -0.9089  0.6792
12080TIP3   OH257730   1.680   1.414  16.258 -0.0527  0.6625 -0.5484
12080TIP3    H157731   1.644   1.369  16.334 -0.7301  0.9252 -0.7107
12080TIP3    H257732   1.756   1.361  16.233  0.2173  0.6158  0.3452
12081TIP3   OH257733   3.753   2.083  16.409  0.3191 -0.3947 -0.7458
12081TIP3    H157734   3.783   2.058  16.496 -0.0382 -1.4671 -0.9161
12081TIP3    H257735   3.757   2.178  16.408 -1.0993 -0.2910  0.9686
12082TIP3   OH257736   3.948   4.695   3.160  0.1672 -0.2642 -0.0655
12082TIP3    H157737   3.947   4.755   3.085 -0.7711  1.1714  1.0527
12082TIP3    H257738   4.028   4.719   3.208 -1.0317  1.2441  1.2458
12083TIP3   OH257739   2.147   3.300   4.545 -0.1775  0.2451 -0.2393
12083TIP3    H157740   2.074   3.266   4.598 -0.1261  2.8888  1.6546
12083TIP3    H257741   2.224   3.287   4.601  0.3493  0.2212 -0.9744
12084TIP3   OH257742   3.081   0.477   6.328 -0.0549  0.3474  0.3266
12084TIP3    H157743   3.034   0.419   6.389 -0.3703  0.5690  0.2947
12084TIP3    H257744   3.168   0.487   6.367 -0.8238  1.9285  1.6777
12085TIP3   OH257745   6.349   1.731   2.359  0.0683  0.2132 -0.2674
12085TIP3    H157746   6.350   1.795   2.288  1.7721  1.1774  0.5836
12085TIP3    H257747   6.261   1.736   2.396 -0.1593  1.2584 -0.9427
12086TIP3   OH257748   4.913   5.870  10.923  0.1531 -0.1640 -0.1744
12086TIP3    H157749   4.832   5.854  10.972  0.6690 -1.2524  0.3526
12086TIP3    H257750   4.900   5.822  10.841  1.0151 -1.9705  0.7038
12087TIP3   OH257751   6.811   0.363   2.948 -0.5152  0.0260  0.0079
12087TIP3    H157752   6.892   0.330   2.988  0.6960  2.1791 -0.5946
12087TIP3    H257753   6.749   0.291   2.957  1.6470 -1.8970 -0.0685
12088TIP3   OH257754   0.404   2.531  13.523  0.6954  0.6276  0.4674
12088TIP3    H157755   0.438   2.486  13.446  2.1174  0.6077  1.0756
12088TIP3    H257756   0.348   2.600  13.489  0.7184  0.1453 -0.5570
12089TIP3   OH257757   5.316   5.152   0.918 -0.3793 -0.3146  0.3558
12089TIP3    H157758   5.256   5.180   0.988 -0.0285 -0.6694  0.7986
12089TIP3    H257759   5.353   5.070   0.950 -0.0335 -0.3508 -0.1430
12090TIP3   OH257760   0.128   2.152   0.566 -0.4462  0.2029  0.4962
12090TIP3    H157761   0.077   2.167   0.486 -2.3292 -1.8751  1.2531
12090TIP3    H257762   0.116   2.232   0.617  0.0717  1.2041 -0.9296
12091TIP3   OH257763   0.450   3.299  16.694  0.6123 -0.2243  0.0150
12091TIP3    H157764   0.444   3.271  16.785 -1.3718  1.2758  0.3667
12091TIP3    H257765   0.541   3.280  16.669  0.8583 -1.7086  1.9259
12092TIP3   OH257766   1.768   2.789   0.401 -0.1528 -0.8272  0.2434
12092TIP3    H157767   1.781   2.823   0.490  0.2436 -1.2612  0.3501
12092TIP3    H257768   1.856   2.775   0.367 -0.2951 -3.3240  0.8121
12093TIP3   OH257769   0.815   6.434  12.788 -0.0793 -0.2178 -0.1494
12093TIP3    H157770   0.837   6.507  12.731  0.3086 -0.7771 -0.7237
12093TIP3    H257771   0.724   6.450  12.814  0.0059  0.4661 -0.2671
12094TIP3   OH257772   1.370   4.742  15.985 -0.2919  0.0497 -0.4340
12094TIP3    H157773   1.428   4.775  15.916  1.8399 -3.0165 -0.2169
12094TIP3    H257774   1.332   4.662  15.948 -1.1448 -0.2297  1.0046
12095TIP3   OH257775   4.163   2.623  13.309 -0.2144 -0.0351 -0.0928
12095TIP3    H157776   4.099   2.677  13.357  0.2401 -0.1609  0.6540
12095TIP3    H257777   4.248   2.651  13.342  0.0196 -1.3684  0.4766
12096TIP3   OH257778   3.023   2.498   3.804 -0.3783  0.4619  0.0578
12096TIP3    H157779   3.064   2.568   3.753  0.8794 -0.5086 -0.2692
12096TIP3    H257780   3.086   2.479   3.874  0.4823 -2.1467 -1.3908
12097TIP3   OH257781   1.084   3.869  12.547 -0.0209  0.4268 -0.4327
12097TIP3    H157782   1.027   3.877  12.624  0.4448 -0.0202 -0.0366
12097TIP3    H257783   1.172   3.858  12.584  0.2207  0.3403 -1.0350
12098TIP3   OH257784   0.507   5.671   2.393 -0.3968 -0.1767  0.2380
12098TIP3    H157785   0.584   5.624   2.359  0.2721  1.7595 -0.9971
12098TIP3    H257786   0.475   5.616   2.464  1.0434 -1.9332 -0.4350
12099TIP3   OH257787   0.843   1.343   4.870  0.1115 -0.0394 -0.1374
12099TIP3    H157788   0.761   1.366   4.913 -0.0003  1.1390 -0.9561
12099TIP3    H257789   0.820   1.274   4.809 -0.4644  0.9730 -1.0756
12100TIP3   OH257790   6.435   4.406  10.967  0.4070 -0.3320  0.1300
12100TIP3    H157791   6.518   4.409  10.919  1.1425  0.7124  1.4398
12100TIP3    H257792   6.419   4.312  10.980  0.4657 -0.6013 -1.6781
12101TIP3   OH257793   1.334   1.427  16.406  0.2306 -0.1234 -0.1799
12101TIP3    H157794   1.274   1.353  16.418 -1.0501  0.6426 -1.6740
12101TIP3    H257795   1.329   1.475  16.489  0.0540 -0.9820  0.3103
12102TIP3   OH257796   5.559   3.995   3.854  0.0419  0.2110  0.1656
12102TIP3    H157797   5.605   3.918   3.887 -1.6949 -1.5396 -1.3883
12102TIP3    H257798   5.620   4.036   3.794  0.5661 -0.5555  0.1790
12103TIP3   OH257799   6.738   3.964   3.347  0.3480  0.1530 -0.2594
12103TIP3    H157800   6.797   3.897   3.313  0.9498  0.6491 -0.1999
12103TIP3    H257801   6.716   3.934   3.435  2.9118  1.4639  0.8730
12104TIP3   OH257802   3.554   5.321  16.817 -0.3623 -0.0349  0.3243
12104TIP3    H157803   3.617   5.250  16.832  0.4359  1.0411  2.2725
12104TIP3    H257804   3.469   5.282  16.834 -0.3988 -1.8398 -3.5388
12105TIP3   OH257805   1.628   6.807  13.534 -0.3197 -0.3679 -0.4394
12105TIP3    H157806   1.683   6.768  13.466  0.5301 -0.7600  0.4789
12105TIP3    H257807   1.582   6.879  13.489  0.2199 -0.6391 -1.4341
12106TIP3   OH257808   5.354   3.074  12.606  0.3857 -0.4947  0.1821
12106TIP3    H157809   5.328   3.068  12.698  1.5455  0.4493  0.5912
12106TIP3    H257810   5.359   2.983  12.576 -0.3460 -0.7901  0.9524
12107TIP3   OH257811   3.342   2.039  13.424 -0.3790  0.5597  0.7435
12107TIP3    H157812   3.303   2.096  13.358  0.2569 -1.2285 -1.2098
12107TIP3    H257813   3.268   1.988  13.458 -0.2943 -0.4724 -0.5829
12108TIP3   OH257814   5.834   3.491  13.582  0.2322 -0.2712  0.0302
12108TIP3    H157815   5.739   3.481  13.589  0.0629  1.1947  0.0265
12108TIP3    H257816   5.846   3.554  13.511  1.1503  0.7240  1.0464
12109TIP3   OH257817   3.833   4.580  15.115  0.6039  0.8183  0.1375
12109TIP3    H157818   3.817   4.672  15.135  0.0246  0.5783  0.8218
12109TIP3    H257819   3.924   4.566  15.139  0.7324  1.2534 -0.0999
12110TIP3   OH257820   5.461   4.672   3.327  0.1953  0.4129 -0.2860
12110TIP3    H157821   5.530   4.610   3.350  0.6038  0.5098 -1.2316
12110TIP3    H257822   5.467   4.680   3.231 -0.8416  0.7496 -0.3240
12111TIP3   OH257823   0.110   1.611   1.251  0.7308  0.3024 -0.1117
12111TIP3    H157824   0.094   1.549   1.180 -2.0060 -3.1346  3.3088
12111TIP3    H257825   0.193   1.582   1.290  1.4892  1.2941 -0.9629
12112TIP3   OH257826   3.626   0.985   5.238  0.0749  1.1663  0.3427
12112TIP3    H157827   3.704   0.933   5.256 -1.1141  0.1751  2.8573
12112TIP3    H257828   3.592   0.951   5.156  1.0662  0.1329  0.3544
12113TIP3   OH257829   5.200   4.013  15.626 -0.6647  0.4062 -0.0162
12113TIP3    H157830   5.107   3.995  15.641 -0.7872  0.9398 -0.1483
12113TIP3    H257831   5.218   4.092  15.676  0.2468 -0.9109  1.8093
12114TIP3   OH257832   6.144   2.448   1.441  0.4856  0.2552  0.2694
12114TIP3    H157833   6.222   2.394   1.430 -0.3528 -1.0318  0.5752
12114TIP3    H257834   6.073   2.396   1.404 -0.5145  0.6761  1.5370
12115TIP3   OH257835   2.999   6.096   0.841 -0.5535  0.6755 -0.0206
12115TIP3    H157836   3.094   6.104   0.832 -0.7215  3.4751  0.3261
12115TIP3    H257837   2.965   6.119   0.754 -0.9748  1.2388  0.2930
12116TIP3   OH257838   5.794   5.417   5.740  0.1910  0.1463  0.3842
12116TIP3    H157839   5.730   5.349   5.760 -0.4891  0.9148  0.8720
12116TIP3    H257840   5.846   5.426   5.820  0.4311  0.0425  0.2416
12117TIP3   OH257841   5.896   1.811  17.288 -0.3165 -0.3957  0.3598
12117TIP3    H157842   5.991   1.799  17.291 -0.2772 -0.2993 -0.5812
12117TIP3    H257843   5.879   1.850  17.203 -1.1505  0.0778  0.7363
12118TIP3   OH257844   4.725   6.715   0.585 -0.6904  0.7112  0.4558
12118TIP3    H157845   4.757   6.797   0.623 -1.5486  1.2926 -0.0286
12118TIP3    H257846   4.631   6.715   0.606 -0.3371 -1.0965  2.1200
12119TIP3   OH257847   6.129   2.488   3.791  0.6607  0.3436  0.3759
12119TIP3    H157848   6.136   2.521   3.702  1.7187 -2.0873 -0.4691
12119TIP3    H257849   6.066   2.547   3.833  1.6854  2.7695 -1.3413
12120TIP3   OH257850   2.112   3.799  13.172 -0.7174  0.2788  0.6859
12120TIP3    H157851   2.152   3.786  13.258 -1.4863  1.0631  1.1732
12120TIP3    H257852   2.162   3.742  13.113  0.3141  0.3219  1.5061
12121TIP3   OH257853   6.738   4.719  14.706  0.1004  0.6276  0.0691
12121TIP3    H157854   6.668   4.761  14.655  0.4257  0.8352 -0.2115
12121TIP3    H257855   6.719   4.744  14.796 -0.5875  0.1020  0.0717
12122TIP3   OH257856   2.652   4.851   2.237 -0.2773 -0.1929 -0.4990
12122TIP3    H157857   2.681   4.887   2.154 -2.0828 -0.7246 -1.3817
12122TIP3    H257858   2.620   4.763   2.216 -1.6255  0.0205  0.5795
12123TIP3   OH257859   2.090   3.427  13.682 -0.2631  0.7684 -0.1790
12123TIP3    H157860   2.058   3.494  13.621  1.2082  1.2816 -0.4306
12123TIP3    H257861   2.064   3.459  13.768 -0.6974  1.0209 -0.4014
12124TIP3   OH257862   5.050   0.744   5.689 -0.0032  0.5385  0.0623
12124TIP3    H157863   5.123   0.790   5.648 -0.0485  1.2626  0.7706
12124TIP3    H257864   4.972   0.791   5.657 -0.0090  1.4590  1.3999
12125TIP3   OH257865   4.446   4.951   4.233 -0.1651  0.0448 -0.0479
12125TIP3    H157866   4.489   5.001   4.164 -0.1281 -1.9195 -1.4747
12125TIP3    H257867   4.517   4.908   4.280 -0.4417 -2.1196 -1.5592
12126TIP3   OH257868   6.314   6.574   2.053 -0.3563 -0.0840 -0.0951
12126TIP3    H157869   6.279   6.485   2.047  0.1173 -0.2799  0.0294
12126TIP3    H257870   6.403   6.567   2.017 -0.0255  0.1746  0.6581
12127TIP3   OH257871   1.184   4.903   6.115 -0.0762  0.0800 -0.6326
12127TIP3    H157872   1.249   4.841   6.082  0.7994  0.4828  0.3255
12127TIP3    H257873   1.235   4.977   6.148 -1.1650  2.1628 -3.3716
12128TIP3   OH257874   5.277   1.793  15.963 -0.1601  0.2387  0.4097
12128TIP3    H157875   5.321   1.844  16.031 -0.5545 -1.9071  2.3659
12128TIP3    H257876   5.348   1.762  15.907  0.3814  0.4344  0.9781
12129TIP3   OH257877   2.697   2.054   1.641  0.1090 -0.2394 -0.1801
12129TIP3    H157878   2.633   2.057   1.569 -0.3067 -0.8407  0.1511
12129TIP3    H257879   2.688   2.138   1.685 -0.3954 -0.2839 -0.1923
12130TIP3   OH257880   5.974   0.988   5.861  0.0496  0.9082  0.3392
12130TIP3    H157881   6.059   1.024   5.836  1.6280 -2.6257  0.2870
12130TIP3    H257882   5.919   0.999   5.783  1.8693 -0.8296 -1.2392
12131TIP3   OH257883   4.745   1.359  15.073 -0.3172 -0.3837 -0.3693
12131TIP3    H157884   4.829   1.405  15.077 -0.8439  0.5507  0.2746
12131TIP3    H257885   4.686   1.413  15.127 -2.0200  0.4435 -2.9882
12132TIP3   OH257886   0.490   3.361   4.664 -0.1544  0.6864 -1.1442
12132TIP3    H157887   0.441   3.336   4.585  1.1745  0.9164 -2.0622
12132TIP3    H257888   0.541   3.437   4.638  1.2732 -0.0005 -0.4398
12133TIP3   OH257889   6.549   6.003   0.726  0.4801  0.0161  0.2002
12133TIP3    H157890   6.611   6.074   0.710 -0.1494  0.9114  1.6228
12133TIP3    H257891   6.500   6.031   0.803 -0.1839 -1.7007  0.4263
12134TIP3   OH257892   1.470   0.597   4.681 -0.0496  0.3320  0.2530
12134TIP3    H157893   1.521   0.546   4.744  1.8598  2.8822  0.8598
12134TIP3    H257894   1.490   0.558   4.596 -1.1935 -1.9633  0.9921
12135TIP3   OH257895   1.667   3.643  15.743  0.0299 -0.9528 -0.3564
12135TIP3    H157896   1.742   3.647  15.802 -0.5090 -0.0401  0.2668
12135TIP3    H257897   1.705   3.627  15.657  1.2020  2.4957 -0.5597
12136TIP3   OH257898   5.999   5.986  14.116 -0.4141  0.5351  0.0606
12136TIP3    H157899   5.957   6.004  14.032  1.3025 -1.0682 -1.1812
12136TIP3    H257900   6.047   5.905  14.102  0.1845  0.4237  2.5116
12137TIP3   OH257901   4.322   5.680  17.237 -0.7199  0.5303 -0.2693
12137TIP3    H157902   4.320   5.734  17.158  0.2858  0.5375 -0.2916
12137TIP3    H257903   4.259   5.722  17.296 -1.1455  0.7791 -0.8955
12138TIP3   OH257904   0.666   5.395  11.963 -0.3722  0.5158 -0.3484
12138TIP3    H157905   0.663   5.429  11.874  1.1242  1.2128 -0.1356
12138TIP3    H257906   0.744   5.433  12.002  0.0078 -1.2323  0.6901
12139TIP3   OH257907   4.336   1.159   0.537  0.4426 -0.2956 -0.6528
12139TIP3    H157908   4.332   1.086   0.474  0.4421 -1.4339  0.6476
12139TIP3    H257909   4.381   1.229   0.490  3.1356 -2.1400 -0.9256
12140TIP3   OH257910   6.107   6.403   2.982  0.2569 -0.3189  0.0853
12140TIP3    H157911   6.104   6.413   3.077  1.3892  0.1572  0.0768
12140TIP3    H257912   6.200   6.402   2.961  0.0065  0.1282 -1.0803
12141TIP3   OH257913   4.945   3.592  13.855  0.1545 -0.6621 -0.0859
12141TIP3    H157914   4.877   3.630  13.799  1.5165  0.3808 -1.0729
12141TIP3    H257915   4.918   3.501  13.867 -2.0168  0.0148  0.4926
12142TIP3   OH257916   5.259   6.200  11.164  0.0344  0.2597 -0.2008
12142TIP3    H157917   5.324   6.262  11.197  0.4713 -0.1396 -0.3158
12142TIP3    H257918   5.239   6.231  11.076 -0.8306  1.0911  0.2771
12143TIP3   OH257919   6.580   1.599   5.049 -0.6032  0.3565 -0.5058
12143TIP3    H157920   6.656   1.544   5.029 -0.7765 -0.2875  0.5578
12143TIP3    H257921   6.573   1.597   5.144 -0.9826  1.7469 -0.4871
12144TIP3   OH257922   0.597   2.149  11.432 -0.7614  0.0461  0.3216
12144TIP3    H157923   0.519   2.205  11.432 -0.9275 -0.1878  0.3978
12144TIP3    H257924   0.639   2.167  11.516 -1.0903 -0.3312  0.5684
12145TIP3   OH257925   1.852   4.691   2.736 -0.0035 -0.3409  0.2516
12145TIP3    H157926   1.823   4.639   2.661 -0.9277 -1.2359  1.2101
12145TIP3    H257927   1.848   4.782   2.705 -2.7510 -0.5235 -0.0251
12146TIP3   OH257928   6.527   2.089   4.531  0.3830  0.5998 -0.7570
12146TIP3    H157929   6.582   2.029   4.481  2.1158  0.2060  1.5791
12146TIP3    H257930   6.587   2.157   4.562 -0.7397  1.0367  0.5135
12147TIP3   OH257931   2.746   0.324  11.522 -0.1950  0.4588  0.6427
12147TIP3    H157932   2.685   0.358  11.457  0.3171  0.4810  0.1618
12147TIP3    H257933   2.760   0.397  11.582  0.4582  0.9283 -0.0617
12148TIP3   OH257934   4.116   2.914   5.473  0.1385  0.0982  0.3875
12148TIP3    H157935   4.120   3.000   5.514 -0.3428  0.0688  0.4972
12148TIP3    H257936   4.027   2.908   5.438 -0.1242 -0.7143  1.1691
12149TIP3   OH257937   0.004   1.830  16.340  0.5002 -0.1039 -0.3595
12149TIP3    H157938  -0.001   1.880  16.421  0.9595  0.0704 -0.4374
12149TIP3    H257939   0.015   1.895  16.271  1.4199 -0.3213 -0.4271
12150TIP3   OH257940   5.321   0.208   4.661  0.6285 -0.0096  0.1283
12150TIP3    H157941   5.300   0.114   4.659  4.4661 -0.9691  0.7085
12150TIP3    H257942   5.281   0.239   4.742 -1.2791 -0.9557 -0.4068
12151TIP3   OH257943   6.400   5.766   1.125 -1.1958  0.4444 -0.3054
12151TIP3    H157944   6.329   5.709   1.154 -0.6881  0.0995  0.2437
12151TIP3    H257945   6.412   5.744   1.033 -1.8442  0.5554 -0.4239
12152TIP3   OH257946   6.498   4.274  10.597  0.2690 -0.2692 -0.2667
12152TIP3    H157947   6.443   4.253  10.673  0.1591 -0.2326 -0.3344
12152TIP3    H257948   6.435   4.298  10.529  0.4455  2.6552  0.5252
12153TIP3   OH257949   5.530   4.911  17.258 -0.2755 -0.5597  0.3617
12153TIP3    H157950   5.556   4.939  17.345 -0.0751 -2.4007  0.9222
12153TIP3    H257951   5.595   4.845  17.233 -0.7640 -0.6041 -0.8462
12154TIP3   OH257952   5.954   0.480  12.136 -0.2745  0.3530  0.3628
12154TIP3    H157953   5.961   0.512  12.226  0.9095 -0.9549  0.7440
12154TIP3    H257954   5.861   0.458  12.126 -0.5578  1.2304  1.0048
12155TIP3   OH257955   2.248   4.388   5.777 -0.3452  0.3702 -0.1394
12155TIP3    H157956   2.299   4.462   5.810 -0.7877  0.6406 -0.0475
12155TIP3    H257957   2.178   4.377   5.841  0.0176 -0.4612  0.1142
12156TIP3   OH257958   1.468   3.716  16.812  0.5389 -0.6924 -0.3242
12156TIP3    H157959   1.475   3.642  16.751  0.5435 -1.1063  0.1743
12156TIP3    H257960   1.544   3.707  16.869 -0.0062 -0.8886  0.3782
12157TIP3   OH257961   1.362   1.428  11.502 -0.5916 -0.0373  0.7694
12157TIP3    H157962   1.393   1.374  11.575  0.4821  1.6975  1.6312
12157TIP3    H257963   1.273   1.453  11.527 -0.7271 -0.5756  0.8347
12158TIP3   OH257964   1.412   2.974   4.932 -0.2089 -0.0930 -0.4836
12158TIP3    H157965   1.327   2.941   4.904 -0.9575  0.5922  0.9882
12158TIP3    H257966   1.405   3.069   4.927 -0.4786  0.0727  2.3026
12159TIP3   OH257967   4.156   5.112  16.429  0.3547  0.4099 -0.0254
12159TIP3    H157968   4.105   5.159  16.362  0.7153  0.3169 -0.3655
12159TIP3    H257969   4.118   5.025  16.431 -2.1197  1.4615  2.5100
12160TIP3   OH257970   0.104   5.250  14.663 -0.1254  0.0209  0.0518
12160TIP3    H157971   0.189   5.266  14.623  0.0931  1.5345  1.0662
12160TIP3    H257972   0.109   5.293  14.748 -1.6920 -0.3960  0.3763
12161TIP3   OH257973   0.367   0.068   5.353  0.2648  0.2477 -0.0958
12161TIP3    H157974   0.347   0.024   5.435 -3.2113  2.4140  0.2819
12161TIP3    H257975   0.312   0.024   5.288 -0.1053  1.2933 -0.4958
12162TIP3   OH257976   2.119   3.061   0.744 -0.1806 -0.4892  0.3204
12162TIP3    H157977   2.109   2.974   0.707 -0.3314  0.8163 -2.8113
12162TIP3    H257978   2.029   3.094   0.751  0.0118  0.2215 -0.5195
12163TIP3   OH257979   0.647   4.064  11.776  0.0183  0.4840  0.1290
12163TIP3    H157980   0.730   4.063  11.822 -0.3741 -0.1560  0.8220
12163TIP3    H257981   0.664   4.117  11.698  1.1719  0.0327  0.0646
12164TIP3   OH257982   5.933   4.904  10.632  0.1581  0.2709  0.3206
12164TIP3    H157983   5.954   4.906  10.726  0.1536 -1.2096  0.3628
12164TIP3    H257984   5.881   4.983  10.618 -1.2220 -0.3022  1.9134
12165TIP3   OH257985   4.633   2.971  10.490  0.1910 -0.3886 -0.5187
12165TIP3    H157986   4.547   3.009  10.507  0.0048 -0.3904 -1.4240
12165TIP3    H257987   4.617   2.876  10.484  0.6998 -0.6661  2.0272
12166TIP3   OH257988   6.598   5.935   3.596  0.6160 -0.2030 -0.3191
12166TIP3    H157989   6.587   5.855   3.544  1.8365 -0.8627  0.4316
12166TIP3    H257990   6.601   5.905   3.687 -0.7798  0.8824  0.1103
12167TIP3   OH257991   6.186   1.965   0.144  0.6952 -0.6498 -0.4910
12167TIP3    H157992   6.281   1.976   0.149  0.5504  0.7894 -0.5379
12167TIP3    H257993   6.154   1.989   0.230  0.2843 -0.0023 -0.8168
12168TIP3   OH257994   4.276   6.383   0.003 -0.0659 -0.0111  0.9346
12168TIP3    H157995   4.266   6.436  -0.076  0.4348  0.1956  1.0078
12168TIP3    H257996   4.344   6.319  -0.020 -1.0440 -0.9728  0.6632
12169TIP3   OH257997   3.708   5.390  11.388 -0.2608  0.5585  0.2353
12169TIP3    H157998   3.676   5.351  11.469  0.5061  0.9875  0.7546
12169TIP3    H257999   3.716   5.317  11.327  1.1117 -0.1013  1.1810
12170TIP3   OH258000   6.148   3.868   5.875  0.4354 -0.3028 -0.1469
12170TIP3    H158001   6.134   3.898   5.785 -0.1829 -0.5387 -0.1335
12170TIP3    H258002   6.130   3.945   5.929  0.7741 -0.1698 -0.2247
12171TIP3   OH258003   6.251   3.868   3.773  0.1623  0.8274 -0.0230
12171TIP3    H158004   6.305   3.822   3.709 -0.3585 -1.0732  0.8583
12171TIP3    H258005   6.164   3.829   3.764  0.6937 -1.4928  3.7071
12172TIP3   OH258006   0.523   1.317  14.390  0.4127  0.0843 -0.1289
12172TIP3    H158007   0.494   1.304  14.481  1.5293  0.4085  0.2871
12172TIP3    H258008   0.536   1.229  14.356  3.0057 -0.0093  1.0353
12173TIP3   OH258009   2.327   3.593  11.464 -0.0328  0.2591  0.3906
12173TIP3    H158010   2.370   3.620  11.545 -0.9910  0.7720  0.7282
12173TIP3    H258011   2.392   3.536  11.421  0.6447  0.3242  1.3010
12174TIP3   OH258012   5.712   2.584   0.122 -0.0363  0.5107  0.1139
12174TIP3    H158013   5.751   2.498   0.138 -0.1611  0.1250 -1.5468
12174TIP3    H258014   5.715   2.628   0.207  2.7532 -0.0253  0.3295
12175TIP3   OH258015   2.755   5.399  16.870 -0.1854  0.5651 -0.2979
12175TIP3    H158016   2.786   5.319  16.828  2.0136  1.3959 -0.2864
12175TIP3    H258017   2.715   5.369  16.952  0.2023 -0.5575 -0.5125
12176TIP3   OH258018   0.796   0.443  12.132 -0.3162 -0.3212  0.0427
12176TIP3    H158019   0.866   0.420  12.192 -0.4362  1.9071  1.0877
12176TIP3    H258020   0.826   0.524  12.090 -0.3272 -1.6955 -2.7490
12177TIP3   OH258021   4.169   3.956   1.984 -0.1951  0.1418  0.2474
12177TIP3    H158022   4.130   3.912   2.059  1.2309 -1.1821  0.2299
12177TIP3    H258023   4.210   4.034   2.020 -1.5596  0.7557  0.4839
12178TIP3   OH258024   5.527   1.865  12.732 -0.1904  0.1678  0.0888
12178TIP3    H158025   5.608   1.845  12.685  0.4581  0.6855  0.9589
12178TIP3    H258026   5.535   1.958  12.754 -0.4674 -0.0702  1.2224
12179TIP3   OH258027   2.328   3.986   3.939  0.2284 -0.5017 -0.6806
12179TIP3    H158028   2.274   3.917   3.901  1.2732 -1.3514 -0.6319
12179TIP3    H258029   2.296   3.994   4.029  0.4978 -1.3372 -0.5050
12180TIP3   OH258030   0.460   4.999   2.028  0.3961  0.1584 -0.1419
12180TIP3    H158031   0.443   4.913   2.066  1.9069 -1.0083 -2.0315
12180TIP3    H258032   0.379   5.048   2.042 -0.6488 -1.7336  0.5476
12181TIP3   OH258033   6.129   2.500   5.915  0.8433  0.1850  0.3655
12181TIP3    H158034   6.039   2.469   5.925  0.6408  0.4995 -0.4976
12181TIP3    H258035   6.143   2.558   5.990 -0.6759  2.5130 -1.0986
12182TIP3   OH258036   3.759   5.809   5.435 -0.0339 -0.2392  0.1751
12182TIP3    H158037   3.788   5.899   5.452  3.2577 -1.1937 -0.1088
12182TIP3    H258038   3.673   5.803   5.477  0.4385  2.5302  1.6134
12183TIP3   OH258039   1.484   6.802   6.620 -0.4404 -0.5002  0.3757
12183TIP3    H158040   1.418   6.778   6.555  0.1863 -0.3166 -0.3305
12183TIP3    H258041   1.455   6.886   6.654  0.0201  0.1362 -0.7549
12184TIP3   OH258042   2.290   4.441  13.033  0.4300 -0.6231  0.3857
12184TIP3    H158043   2.356   4.502  13.001 -0.5350  0.8298  1.0921
12184TIP3    H258044   2.339   4.376  13.084  1.4290 -0.2020 -0.0383
12185TIP3   OH258045   1.324   0.707   3.773  0.2906  0.4679  0.1584
12185TIP3    H158046   1.272   0.693   3.852  0.1001 -0.3824 -0.1149
12185TIP3    H258047   1.413   0.723   3.805  0.4292 -0.9540  0.5055
12186TIP3   OH258048   2.897   6.450  12.837 -0.5496 -0.1829  0.8848
12186TIP3    H158049   2.912   6.507  12.762 -2.2430  0.3590  0.9396
12186TIP3    H258050   2.939   6.495  12.910 -0.0110 -0.0785  0.5144
12187TIP3   OH258051   0.287   6.571   6.007  1.1261 -0.3458  0.5923
12187TIP3    H158052   0.367   6.614   6.039 -0.3897  2.9727  0.0786
12187TIP3    H258053   0.301   6.562   5.913  0.3951  1.3664  0.3146
12188TIP3   OH258054   0.131   2.318  12.957  0.0858 -0.3384  0.3394
12188TIP3    H158055   0.176   2.396  12.926 -0.2929 -0.0554  0.4925
12188TIP3    H258056   0.198   2.249  12.957  0.2921 -0.1413 -0.2956
12189TIP3   OH258057   4.775   4.375   6.071  0.3873  0.1098  0.2062
12189TIP3    H158058   4.825   4.294   6.078  0.7496  0.2411 -0.8416
12189TIP3    H258059   4.712   4.370   6.143  1.5410 -0.3015  1.1885
12190TIP3   OH258060   0.213   5.112  11.572 -0.6284 -0.5746  0.1099
12190TIP3    H158061   0.235   5.035  11.625 -0.5078  0.1886  1.1723
12190TIP3    H258062   0.272   5.106  11.497 -0.1512 -1.1677  0.5258
12191TIP3   OH258063   0.175   4.792   3.037 -0.0072  0.2566  0.0808
12191TIP3    H158064   0.269   4.806   3.022  0.0075 -0.7107 -0.8708
12191TIP3    H258065   0.152   4.851   3.108  1.0231  1.5444 -0.6379
12192TIP3   OH258066   2.408   6.118  11.132  0.0115 -0.2735 -0.6094
12192TIP3    H158067   2.340   6.107  11.199 -0.1576  0.8095 -0.5887
12192TIP3    H258068   2.449   6.201  11.153 -0.1947  0.1902 -1.9802
12193TIP3   OH258069   6.277   4.468  14.230  0.4720  0.4532 -0.3679
12193TIP3    H158070   6.231   4.552  14.232 -0.9573 -0.2529 -2.0033
12193TIP3    H258071   6.216   4.407  14.271  1.3053  0.1054  0.3647
12194TIP3   OH258072   5.238   4.857  15.571 -0.8969  0.1212 -0.3200
12194TIP3    H158073   5.278   4.789  15.625 -1.8200 -0.5193 -0.4346
12194TIP3    H258074   5.230   4.817  15.485 -0.4923  0.7423 -0.6521
12195TIP3   OH258075   1.374   0.340   3.018  0.4269  0.1362 -0.1424
12195TIP3    H158076   1.468   0.354   3.010  0.4628 -0.4852 -0.8735
12195TIP3    H258077   1.361   0.317   3.111  1.2321 -1.4697 -0.4178
12196TIP3   OH258078   1.206   3.335  15.439  0.0848  0.2847 -0.2139
12196TIP3    H158079   1.123   3.383  15.438  0.3188  0.6930 -1.9280
12196TIP3    H258080   1.268   3.392  15.393  0.5003 -1.4087 -1.8071
12197TIP3   OH258081   6.496   3.069   3.293 -0.1994 -0.4850  0.4040
12197TIP3    H158082   6.509   3.162   3.275 -1.6276 -0.2473  0.4858
12197TIP3    H258083   6.477   3.065   3.387  2.0199 -1.1194  0.8521
12198TIP3   OH258084   3.674   6.556  15.463  0.1662 -0.4355  0.3495
12198TIP3    H158085   3.633   6.570  15.377  1.2350  0.3398 -0.0487
12198TIP3    H258086   3.708   6.642  15.487  0.9886 -0.9360  0.9704
12199TIP3   OH258087   4.611   3.358   1.788 -0.0890 -0.0452  0.0698
12199TIP3    H158088   4.641   3.310   1.711  0.8576  1.3522 -0.4556
12199TIP3    H258089   4.531   3.313   1.815 -0.3327 -0.6685 -1.6191
12200TIP3   OH258090   4.695   3.114   0.904 -0.4044 -0.0834  0.0149
12200TIP3    H158091   4.610   3.096   0.864 -0.2877  0.0971 -0.3161
12200TIP3    H258092   4.700   3.053   0.978 -0.5247 -0.5812 -0.3797
12201TIP3   OH258093   4.177   1.974  15.860  0.3802 -0.1234 -0.4954
12201TIP3    H158094   4.144   1.950  15.946  1.9959 -0.1423  0.1355
12201TIP3    H258095   4.107   1.948  15.799 -0.3065 -1.1265  0.7026
12202TIP3   OH258096   6.653   6.608  16.713  0.4552  0.4417 -0.2701
12202TIP3    H158097   6.610   6.527  16.685 -0.1883  0.9369 -0.7272
12202TIP3    H258098   6.582   6.663  16.745  0.9967  0.5024  0.8453
12203TIP3   OH258099   4.866   0.995  12.187 -0.0346 -0.0606 -0.4425
12203TIP3    H158100   4.961   1.003  12.201 -0.3686  1.9618  0.8458
12203TIP3    H258101   4.838   0.927  12.249  0.5685 -0.6537 -0.8160
12204TIP3   OH258102   5.518   6.789  13.119 -0.3112  0.2976  0.1846
12204TIP3    H158103   5.442   6.827  13.164 -0.0248  0.7764  0.2610
12204TIP3    H258104   5.524   6.700  13.154 -0.4257  0.4849  0.6773
12205TIP3   OH258105   5.622   2.123  11.617  0.0327 -0.2991  0.3281
12205TIP3    H158106   5.653   2.096  11.704  1.2527 -1.6600 -0.5069
12205TIP3    H258107   5.568   2.050  11.588  0.1797 -0.1467 -0.3239
12206TIP3   OH258108   1.963   2.332   0.665  0.5356 -0.2268  0.1480
12206TIP3    H158109   1.934   2.243   0.680 -2.5267  1.0129  2.1136
12206TIP3    H258110   2.026   2.350   0.735 -0.1817 -0.3047  0.8227
12207TIP3   OH258111   2.476   1.323   4.882 -0.4542 -0.3340 -0.2495
12207TIP3    H158112   2.482   1.313   4.787  0.3735 -1.1367 -0.1268
12207TIP3    H258113   2.514   1.242   4.916  4.3315  2.2016  0.8440
12208TIP3   OH258114   1.612   5.831  17.156  0.1155  0.8622  0.1788
12208TIP3    H158115   1.673   5.887  17.107  0.0207 -1.1705 -2.3924
12208TIP3    H258116   1.532   5.832  17.104 -0.0486 -1.2429  0.3413
12209TIP3   OH258117   0.015   1.058   1.495 -0.3780 -0.6083 -0.3627
12209TIP3    H158118  -0.013   1.011   1.574  0.0307  1.0741  0.8068
12209TIP3    H258119  -0.012   1.148   1.510  1.0616  0.0318 -1.5019
12210TIP3   OH258120   6.240   1.977   2.216  0.2112 -0.4543 -0.2863
12210TIP3    H158121   6.187   2.054   2.239 -1.1776 -1.6340  0.5287
12210TIP3    H258122   6.198   1.942   2.138 -0.4837 -1.6351  0.6037
12211TIP3   OH258123   2.291   5.967  16.014 -0.1079  0.2096  0.2878
12211TIP3    H158124   2.212   6.020  16.000 -0.6940 -0.2430  1.7883
12211TIP3    H258125   2.343   6.016  16.077  0.3200 -0.0147  0.1172
12212TIP3   OH258126   2.060   4.556  11.544  0.4632  0.4573  0.9996
12212TIP3    H158127   2.153   4.564  11.563  0.9562 -2.0900 -0.1252
12212TIP3    H258128   2.017   4.606  11.614  2.5447 -0.7092  3.1937
12213TIP3   OH258129   3.030   1.256   2.992 -0.7328 -0.1518  0.3664
12213TIP3    H158130   3.004   1.314   3.064 -0.6183  0.5987 -0.1864
12213TIP3    H258131   2.997   1.170   3.018  0.5849 -0.2042  2.0165
12214TIP3   OH258132   6.552   6.284   5.272  0.0917 -0.5286  0.4023
12214TIP3    H158133   6.546   6.190   5.287  0.6970 -0.7060 -0.4173
12214TIP3    H258134   6.485   6.322   5.328 -0.1815 -1.4521  0.7056
12215TIP3   OH258135   2.943   5.482   3.345 -0.6147 -0.3833  0.5819
12215TIP3    H158136   2.855   5.459   3.375 -0.5196 -0.6288  0.6739
12215TIP3    H258137   2.948   5.447   3.256 -0.6814 -0.1916  0.5029
12216TIP3   OH258138   1.000   6.303  14.439 -0.0801  0.1981  0.4545
12216TIP3    H158139   1.023   6.393  14.462 -1.2827  0.4469  0.7084
12216TIP3    H258140   1.069   6.276  14.378  0.4237  1.2014  0.5635
12217TIP3   OH258141   4.766   3.933  14.190  0.0568  0.0768 -0.0976
12217TIP3    H158142   4.842   3.988  14.208 -0.3902  0.6351  0.1091
12217TIP3    H258143   4.777   3.905  14.099  0.6422 -0.0569  0.0152
12218TIP3   OH258144   1.785   1.150  10.946 -0.3791  0.5822 -0.0521
12218TIP3    H158145   1.862   1.203  10.967  0.3065 -0.2481 -0.4297
12218TIP3    H258146   1.718   1.214  10.920 -0.1307  1.3694  1.2229
12219TIP3   OH258147   4.683   6.103  15.146 -0.0292  0.0675  0.2167
12219TIP3    H158148   4.767   6.062  15.169  0.4279  0.8343 -0.0629
12219TIP3    H258149   4.634   6.034  15.103 -0.7206 -1.2777  3.0520
12220TIP3   OH258150   0.504   5.793   0.055  0.5618  0.1687  0.0171
12220TIP3    H158151   0.460   5.876   0.034 -2.2340 -0.9579  1.0434
12220TIP3    H258152   0.561   5.815   0.129  3.2681  2.0891 -2.5753
12221TIP3   OH258153   1.024   3.154   3.276 -0.3166  0.1763 -0.0023
12221TIP3    H158154   0.991   3.174   3.363 -2.5617 -0.6523 -0.6257
12221TIP3    H258155   1.119   3.160   3.284 -0.5558  1.5238  2.1325
12222TIP3   OH258156   3.244   4.747  13.423  0.3331 -0.2737 -0.4842
12222TIP3    H158157   3.213   4.657  13.414  1.0843 -0.5978  0.0240
12222TIP3    H258158   3.250   4.780  13.333  1.8016 -1.3587 -0.8126
12223TIP3   OH258159   6.559   5.816   2.579  0.3190  0.0307 -0.2263
12223TIP3    H158160   6.596   5.900   2.553  1.0958 -0.8920 -2.1397
12223TIP3    H258161   6.627   5.752   2.560  0.8289 -0.7843  3.7640
12224TIP3   OH258162   1.298   1.006   3.917  0.5721  0.0150  0.1622
12224TIP3    H158163   1.256   0.956   3.987  0.8367  0.9774  1.0244
12224TIP3    H258164   1.391   0.996   3.932  0.6448  1.8445  1.1660
12225TIP3   OH258165   4.421   4.686  14.845  0.3919 -0.0830  0.4822
12225TIP3    H158166   4.508   4.662  14.812  1.7981  3.9935  0.8389
12225TIP3    H258167   4.387   4.747  14.779 -1.7265 -0.7699  0.9127
12226TIP3   OH258168   3.284   0.311  13.893  0.4470  0.1826  0.3045
12226TIP3    H158169   3.332   0.339  13.815 -0.7163  0.4746 -0.3148
12226TIP3    H258170   3.253   0.392  13.933 -1.6938 -0.1057 -0.7032
12227TIP3   OH258171   3.590   3.054   6.636 -0.2425 -0.0557 -0.2004
12227TIP3    H158172   3.671   3.105   6.645 -0.3951  0.7839 -2.9079
12227TIP3    H258173   3.620   2.965   6.617  0.0953  0.3189 -1.5270
12228TIP3   OH258174   2.575   2.207  15.665 -0.5492  0.2616  0.7604
12228TIP3    H158175   2.605   2.265  15.735 -3.2033  1.0842  1.2786
12228TIP3    H258176   2.559   2.265  15.591  0.9620 -0.4351 -0.1476
12229TIP3   OH258177   2.053   3.624  16.743  0.5210  0.0660  0.3917
12229TIP3    H158178   2.117   3.610  16.673 -0.6519  1.0843 -0.9169
12229TIP3    H258179   2.100   3.677  16.807  0.6747  1.7940 -1.0968
12230TIP3   OH258180   2.660   2.710  15.317  0.7045  0.0292  0.1840
12230TIP3    H158181   2.719   2.785  15.311  0.2540  0.4113  0.5672
12230TIP3    H258182   2.615   2.708  15.232  0.0622  0.7325  0.5054
12231TIP3   OH258183   2.593   4.573  13.228 -0.7605 -0.3712  0.1790
12231TIP3    H158184   2.644   4.653  13.214 -3.1507  0.9942 -0.9668
12231TIP3    H258185   2.620   4.515  13.156  1.3726 -0.8466  1.3140
12232TIP3   OH258186   1.123   5.441  13.155  0.4819 -0.5638 -0.1307
12232TIP3    H158187   1.104   5.533  13.170  0.9178 -0.1313 -2.1205
12232TIP3    H258188   1.060   5.394  13.210  0.3445  0.8989  0.9934
12233TIP3   OH258189   1.906   2.992   2.560  0.4616  0.0319  0.2732
12233TIP3    H158190   1.929   2.983   2.468  1.7380 -1.8086  0.7260
12233TIP3    H258191   1.890   2.902   2.590 -2.4671  0.8418  1.2362
12234TIP3   OH258192   1.807   5.621  16.009 -0.1090  0.4898 -0.6617
12234TIP3    H158193   1.730   5.580  16.049  0.0694  0.1420 -0.6693
12234TIP3    H258194   1.787   5.622  15.915  0.1634 -0.1857 -0.7305
12235TIP3   OH258195   4.419   5.542  11.986 -0.5332 -0.0366  0.0252
12235TIP3    H158196   4.357   5.564  12.056 -0.4847 -1.7990  0.6435
12235TIP3    H258197   4.364   5.509  11.915 -0.4377  0.1295 -0.1273
12236TIP3   OH258198   6.078   2.337  12.867 -0.6811  0.2045  0.4748
12236TIP3    H158199   6.128   2.344  12.786  0.5582 -0.1507  1.1786
12236TIP3    H258200   6.050   2.426  12.887  0.1067  0.4861  0.3222
12237TIP3   OH258201   4.098   3.174   2.177 -0.2826  0.0629  0.2611
12237TIP3    H158202   4.191   3.189   2.194 -0.1477  0.0740 -0.4899
12237TIP3    H258203   4.083   3.082   2.200  0.5694 -0.7966 -2.3959
12238TIP3   OH258204   4.558   4.464  12.116 -0.3771 -0.2842 -0.7274
12238TIP3    H158205   4.528   4.390  12.063 -1.4368 -0.1469 -0.3226
12238TIP3    H258206   4.480   4.518  12.129  0.1853  0.4164 -0.2159
12239TIP3   OH258207   6.207   6.141  15.766  0.4182  0.0246 -0.1003
12239TIP3    H158208   6.275   6.084  15.800  0.1144  0.7518  1.8389
12239TIP3    H258209   6.248   6.227  15.761  0.4020 -0.0439 -1.4335
12240TIP3   OH258210   1.612   0.815  12.787 -0.0959 -0.7080  0.0495
12240TIP3    H158211   1.704   0.793  12.776  0.4896  2.0598 -1.0100
12240TIP3    H258212   1.598   0.892  12.732 -3.2077 -1.4302 -0.3121
12241TIP3   OH258213   2.864   2.572   1.132 -0.3582 -0.5905  0.1664
12241TIP3    H158214   2.869   2.666   1.114 -1.0006 -0.6477 -0.3124
12241TIP3    H258215   2.949   2.538   1.103  0.4821  0.0691  1.7706
12242TIP3   OH258216   5.806   5.559  12.048  0.2944  0.2924 -0.6837
12242TIP3    H158217   5.763   5.602  11.975  1.1845 -0.1574 -1.4843
12242TIP3    H258218   5.898   5.585  12.041  0.5590 -0.4984 -0.2749
12243TIP3   OH258219   1.105   2.462  13.376  0.0566 -0.0775  0.0093
12243TIP3    H158220   1.111   2.445  13.282 -2.3770 -3.1834  0.3075
12243TIP3    H258221   1.156   2.392  13.417  1.1595  1.2910  1.0504
12244TIP3   OH258222   4.455   2.108  15.045 -0.1510  0.1815 -0.2594
12244TIP3    H158223   4.415   2.122  15.130  0.9615 -0.0129  0.3088
12244TIP3    H258224   4.384   2.122  14.982 -1.1484 -0.3487  0.7258
12245TIP3   OH258225   4.424   6.680  16.144 -0.3556 -0.1523  0.6156
12245TIP3    H158226   4.516   6.671  16.116  0.3594  0.9209  2.5210
12245TIP3    H258227   4.401   6.770  16.119 -1.0518 -0.5710 -0.2714
12246TIP3   OH258228   3.451   1.230  13.033  0.3044  0.4481 -0.2942
12246TIP3    H158229   3.400   1.307  13.005 -0.2365  0.2003  0.0035
12246TIP3    H258230   3.429   1.219  13.125 -0.8838 -1.0364 -0.7430
12247TIP3   OH258231   4.386   5.829   1.850 -0.4847 -0.5510  0.0904
12247TIP3    H158232   4.472   5.811   1.813 -0.7904 -0.1631 -0.8052
12247TIP3    H258233   4.334   5.861   1.777 -0.1184  3.5399  1.4737
12248TIP3   OH258234   5.230   1.332   3.814 -0.2546 -0.2235  0.2484
12248TIP3    H158235   5.191   1.247   3.791 -1.7249  0.3941  0.4247
12248TIP3    H258236   5.314   1.332   3.769 -1.1744 -0.8783 -1.5146
12249TIP3   OH258237   1.598   4.691  13.851  0.1682 -0.5163  0.0715
12249TIP3    H158238   1.629   4.771  13.808 -0.1659 -1.2188 -1.5408
12249TIP3    H258239   1.594   4.713  13.944  2.5246  0.5587 -0.0438
12250TIP3   OH258240   2.145   4.112   5.626 -0.1297 -0.6326 -0.8333
12250TIP3    H158241   2.175   4.200   5.650  0.4049 -1.0870  0.2249
12250TIP3    H258242   2.050   4.122   5.614  0.1037  0.3427 -1.9659
12251TIP3   OH258243   3.106   3.505  16.368  0.5810  0.4542  0.1350
12251TIP3    H158244   3.081   3.445  16.439 -0.0720  0.2625 -0.2609
12251TIP3    H258245   3.188   3.545  16.399  0.5436  0.0294  0.7943
12252TIP3   OH258246   1.033   2.061   1.207  0.2580 -1.1001  0.0466
12252TIP3    H158247   1.061   2.001   1.138  3.7000  0.4490  0.0019
12252TIP3    H258248   1.015   2.004   1.282  1.2013 -2.3966 -0.6897
12253TIP3   OH258249   3.183   0.765   3.814 -0.0973 -0.0825  0.6057
12253TIP3    H158250   3.225   0.850   3.804  0.9524 -0.7411 -0.6715
12253TIP3    H258251   3.255   0.704   3.827 -0.7426 -1.0162 -0.1627
12254TIP3   OH258252   2.795   4.050   6.743 -0.3780  0.1661  0.0969
12254TIP3    H158253   2.823   4.094   6.824 -2.7224  0.6011  0.7153
12254TIP3    H258254   2.763   4.121   6.688  0.2035 -0.2638 -0.7955
12255TIP3   OH258255   0.863   3.052  16.110  0.5222 -0.3281 -0.2366
12255TIP3    H158256   0.833   3.054  16.200  1.2516 -2.8241  0.0964
12255TIP3    H258257   0.922   3.128  16.102  0.7672 -0.3316  1.4930
12256TIP3   OH258258   4.837   4.470  14.569  0.3299  0.3956 -0.0951
12256TIP3    H158259   4.821   4.398  14.629  2.1196  1.3539  1.6054
12256TIP3    H258260   4.755   4.520  14.568  0.4472  0.6736  2.0025
12257TIP3   OH258261   0.656   0.600   0.127 -0.0349  0.7110 -0.4157
12257TIP3    H158262   0.567   0.606   0.092 -0.3077  0.0712  0.1412
12257TIP3    H258263   0.647   0.622   0.220  0.3054  0.1791 -0.2523
12258TIP3   OH258264   2.059   0.657   2.143 -0.4215 -0.2081 -0.1391
12258TIP3    H158265   2.105   0.631   2.223  0.9479  1.1356 -0.4627
12258TIP3    H258266   2.067   0.581   2.085  0.9466 -0.1899  0.0062
12259TIP3   OH258267   0.356   4.317   0.135 -0.5044  0.4847 -0.1304
12259TIP3    H158268   0.268   4.316   0.173 -1.1797  0.4979 -1.6755
12259TIP3    H258269   0.342   4.309   0.041  1.1995 -0.5907 -0.3130
12260TIP3   OH258270   1.650   2.350  14.423 -0.0345 -0.3891  0.5818
12260TIP3    H158271   1.743   2.336  14.406  0.0623 -1.3201  1.8824
12260TIP3    H258272   1.640   2.446  14.421  0.6430 -0.3382 -1.1052
12261TIP3   OH258273   1.520   0.108   4.489  0.2391 -0.2591 -0.0679
12261TIP3    H158274   1.473   0.048   4.431  0.8879 -0.2966 -0.5567
12261TIP3    H258275   1.612   0.086   4.477  0.4204  0.1721  0.4982
12262TIP3   OH258276   2.010   5.113   0.507 -0.2168  0.1576  0.8414
12262TIP3    H158277   2.093   5.087   0.547  0.2374 -0.9473 -0.7718
12262TIP3    H258278   2.005   5.062   0.426 -1.7554  1.3439  0.1570
12263TIP3   OH258279   1.572   1.630  15.343  0.1837 -0.0458 -0.0718
12263TIP3    H158280   1.565   1.624  15.248  1.4227  0.0748 -0.1783
12263TIP3    H258281   1.666   1.626  15.361  0.0159  0.8241  1.0844
12264TIP3   OH258282   1.407   6.265   1.687 -0.3460  0.0740  0.6872
12264TIP3    H158283   1.382   6.181   1.650 -2.0038  0.1566  1.5548
12264TIP3    H258284   1.366   6.266   1.774 -0.1049  1.6406  0.8013
12265TIP3   OH258285   0.007   0.028   2.408  0.1748 -0.0110  0.4343
12265TIP3    H158286   0.016  -0.004   2.318 -1.2367  1.1347 -0.1334
12265TIP3    H258287   0.095   0.054   2.433  0.5578 -0.2178 -0.6657
12266TIP3   OH258288   3.910   6.036  11.187  0.3728  0.7133  0.0604
12266TIP3    H158289   3.903   6.040  11.091 -0.3304 -0.4508  0.0487
12266TIP3    H258290   3.827   6.073  11.218  0.0271 -0.1703  0.1940
12267TIP3   OH258291   6.566   0.185  12.644  0.1918 -0.4347 -0.1978
12267TIP3    H158292   6.472   0.192  12.662 -0.0337  2.4276 -2.2882
12267TIP3    H258293   6.583   0.250  12.576  3.9993  0.2768  1.3040
12268TIP3   OH258294   5.345   2.395   4.033 -0.4942  0.6113  0.0052
12268TIP3    H158295   5.282   2.465   4.011 -0.4709 -0.3843 -3.6744
12268TIP3    H258296   5.424   2.419   3.985 -0.2669 -1.5558 -0.7606
12269TIP3   OH258297   4.049   5.188   5.109 -0.1381  0.1693 -0.2542
12269TIP3    H158298   4.135   5.216   5.077  0.4180 -0.4577  0.6536
12269TIP3    H258299   3.995   5.267   5.106  1.4758  1.4208  2.4570
12270TIP3   OH258300   0.209   4.492  11.787 -0.1336  0.0184  0.2949
12270TIP3    H158301   0.286   4.534  11.827 -1.1906  0.5242  1.8370
12270TIP3    H258302   0.244   4.412  11.747  1.6397  1.5201 -1.2942
12271TIP3   OH258303   6.514   3.981   5.630  0.3221  0.7968 -0.1383
12271TIP3    H158304   6.489   3.909   5.572  0.9930  2.1113 -2.1013
12271TIP3    H258305   6.596   4.015   5.593  1.2480  1.1000  2.1028
12272TIP3   OH258306   3.345   3.059   4.005 -0.0961 -0.2684 -0.4944
12272TIP3    H158307   3.274   3.044   3.942 -0.0973 -1.6014 -0.1861
12272TIP3    H258308   3.321   3.006   4.081  1.6774 -1.4583 -0.7298
12273TIP3   OH258309   6.615   2.719  11.617 -0.6206  0.0038 -0.1322
12273TIP3    H158310   6.549   2.664  11.660 -0.4923 -1.0201 -1.2400
12273TIP3    H258311   6.563   2.786  11.573 -0.6865  2.3130  3.2308
12274TIP3   OH258312   6.244   0.752   4.921  0.6007 -0.0301 -0.1213
12274TIP3    H158313   6.224   0.658   4.917  2.0147 -0.3152 -0.6410
12274TIP3    H258314   6.295   0.762   5.001  0.8707  0.2199 -0.3257
12275TIP3   OH258315   6.472   4.264   4.393 -0.2150 -0.4490 -0.2712
12275TIP3    H158316   6.427   4.297   4.315 -2.3332 -0.2906  0.9936
12275TIP3    H258317   6.505   4.177   4.366  0.7542  0.3862 -1.9072
12276TIP3   OH258318   4.331   2.348  11.518  0.0901 -0.2136  0.2184
12276TIP3    H158319   4.296   2.264  11.550 -0.6515 -0.5795 -1.4924
12276TIP3    H258320   4.422   2.349  11.547  0.1937 -1.7684 -0.0233
12277TIP3   OH258321   0.311   2.114   4.075 -0.1145 -0.8421  0.3034
12277TIP3    H158322   0.283   2.085   4.162 -0.6693  0.9725  0.7552
12277TIP3    H258323   0.388   2.061   4.056 -0.7354 -2.1651  1.3399
12278TIP3   OH258324   2.292   6.425   2.488  0.3710 -0.4323  0.3757
12278TIP3    H158325   2.373   6.390   2.449  1.0612  0.0262  1.3703
12278TIP3    H258326   2.322   6.480   2.560 -0.8097  0.3713  0.2734
12279TIP3   OH258327   1.521   1.524  14.817 -0.7434  0.6540 -0.2494
12279TIP3    H158328   1.450   1.493  14.872  0.2909  0.6714  1.1240
12279TIP3    H258329   1.531   1.616  14.840  1.9721 -0.1715  2.0910
12280TIP3   OH258330   1.141   5.222   0.853  0.2995 -0.6032  0.1363
12280TIP3    H158331   1.192   5.266   0.786 -1.1337 -0.6262 -0.9938
12280TIP3    H258332   1.107   5.293   0.908 -0.8292 -0.3677 -0.8388
12281TIP3   OH258333   3.502   0.001   6.504 -0.1638 -0.1108 -0.6573
12281TIP3    H158334   3.430  -0.031   6.559  0.2851  1.1775  0.7006
12281TIP3    H258335   3.473   0.087   6.475  0.7127  0.2878 -0.3436
12282TIP3   OH258336   6.209   6.676  14.628  0.1235 -0.1389 -0.3645
12282TIP3    H158337   6.200   6.640  14.539  1.9107 -2.2996  0.2844
12282TIP3    H258338   6.265   6.753  14.617 -0.1782 -0.0266 -1.1738
12283TIP3   OH258339   3.508   0.862   1.756  0.5460  0.0171  0.5702
12283TIP3    H158340   3.505   0.823   1.843  2.5860 -0.5701  0.3864
12283TIP3    H258341   3.567   0.806   1.706  0.5587  1.1907 -0.7730
12284TIP3   OH258342   3.152   3.863   4.883 -0.4082  0.0328 -0.4633
12284TIP3    H158343   3.059   3.843   4.894 -0.4104  0.0855 -0.3890
12284TIP3    H258344   3.153   3.938   4.824 -0.5181  1.6509  1.5318
12285TIP3   OH258345   2.810   3.446  14.089  1.1526 -0.4183 -0.0484
12285TIP3    H158346   2.721   3.467  14.115  0.6688 -0.8845 -1.3222
12285TIP3    H258347   2.829   3.363  14.133 -0.5315 -2.4757 -3.0540
12286TIP3   OH258348   3.050   6.432  15.611  0.3630  0.3335  0.1736
12286TIP3    H158349   3.136   6.467  15.631  0.7560 -1.0689  0.9870
12286TIP3    H258350   3.024   6.385  15.690 -1.0158  0.4942 -0.1736
12287TIP3   OH258351   2.004   2.858   5.060 -0.1529  0.6145  0.5407
12287TIP3    H158352   1.998   2.765   5.041 -0.5985  0.4922  1.2537
12287TIP3    H258353   1.945   2.900   4.997  0.5227  0.4764 -0.1897
12288TIP3   OH258354   5.540   6.663   4.952  0.6251  0.0494 -0.4814
12288TIP3    H158355   5.497   6.578   4.964  0.7338  0.1288  0.5293
12288TIP3    H258356   5.590   6.676   5.033  1.2635  0.7004 -0.9743
12289TIP3   OH258357   5.718   1.070   4.789 -0.2591 -0.4433  0.3680
12289TIP3    H158358   5.692   1.161   4.789  0.7640 -0.1411 -0.6749
12289TIP3    H258359   5.809   1.071   4.760 -0.7805 -1.9539 -1.4171
12290TIP3   OH258360   4.034   0.909   5.174  0.0548  0.1028 -0.3048
12290TIP3    H158361   4.082   0.918   5.091 -1.3364 -1.2836 -1.2969
12290TIP3    H258362   4.100   0.881   5.237  0.9887  0.3904 -1.1419
12291TIP3   OH258363   0.374   5.985  12.771 -0.2265 -0.3076 -0.5312
12291TIP3    H158364   0.368   6.026  12.857 -2.7586 -1.6440 -0.0401
12291TIP3    H258365   0.462   5.947  12.768  0.9086  2.2082  0.3131
12292TIP3   OH258366   0.852   2.698  11.594  0.4861 -0.0478  0.0431
12292TIP3    H158367   0.763   2.665  11.594  0.9523 -1.3504  0.5794
12292TIP3    H258368   0.898   2.643  11.658  1.8094  0.2030 -0.6689
12293TIP3   OH258369   1.198   0.650   4.729  0.3169 -0.0159  0.1704
12293TIP3    H158370   1.130   0.584   4.741 -0.0819  0.2169 -0.7667
12293TIP3    H258371   1.280   0.601   4.738  0.0280 -0.7548 -1.0128
12294TIP3   OH258372   1.691   4.293  16.569  0.4175  0.7709  0.1845
12294TIP3    H158373   1.641   4.223  16.528  1.1174  0.4878 -0.2039
12294TIP3    H258374   1.687   4.274  16.663  1.0311 -0.0927  0.0415
12295TIP3   OH258375   5.738   2.931   1.016  0.2698  0.0530  0.8689
12295TIP3    H158376   5.686   3.003   1.053 -0.4196 -0.1798  0.3517
12295TIP3    H258377   5.703   2.852   1.057  0.9987  0.0077  1.4030
12296TIP3   OH258378   0.551   0.456  16.420 -0.2770 -0.3814 -0.0192
12296TIP3    H158379   0.495   0.378  16.427 -0.2296 -0.2947  1.7082
12296TIP3    H258380   0.601   0.455  16.502  0.9285  0.5446 -0.7486
12297TIP3   OH258381   0.102   6.798  14.229 -0.2205  0.0652 -0.4675
12297TIP3    H158382   0.074   6.738  14.160 -1.5320 -2.8962  2.4702
12297TIP3    H258383   0.196   6.786  14.236 -0.3816 -1.2055 -0.3594
12298TIP3   OH258384   4.470   6.739   1.043  0.2620 -0.0714 -0.0352
12298TIP3    H158385   4.375   6.732   1.035  0.0686  0.5595  1.5536
12298TIP3    H258386   4.492   6.684   1.118  0.8182  1.9516  1.3159
12299TIP3   OH258387   3.191   4.143   5.176  0.9359  0.1959  0.0418
12299TIP3    H158388   3.144   4.222   5.201 -0.4393 -1.1179  1.6750
12299TIP3    H258389   3.137   4.103   5.108  1.5412  0.5384 -0.6563
12300TIP3   OH258390   1.036   4.600   2.393  0.2760  0.1459  0.1528
12300TIP3    H158391   0.963   4.635   2.342 -0.3651  0.0393  0.9907
12300TIP3    H258392   1.042   4.509   2.367  0.1700  0.1791  0.0134
12301TIP3   OH258393   3.556   6.266  10.865 -0.2440 -0.3284  0.5084
12301TIP3    H158394   3.570   6.259  10.959  0.8513 -2.0368  0.2293
12301TIP3    H258395   3.525   6.356  10.852 -1.6672 -0.4791  2.6389
12302TIP3   OH258396   0.580   5.982   3.573 -0.4866 -0.3204  0.0197
12302TIP3    H158397   0.553   6.074   3.565  1.1520  0.3411  1.6558
12302TIP3    H258398   0.552   5.941   3.491 -0.6187  1.8073 -1.0241
12303TIP3   OH258399   5.558   6.410  16.035  0.1908  0.1452  0.0407
12303TIP3    H158400   5.503   6.471  16.084 -0.9073  0.8104 -2.0043
12303TIP3    H258401   5.596   6.462  15.965  1.7915 -0.8018  0.1798
12304TIP3   OH258402   0.963   5.837  16.275 -0.5326 -0.5007  0.1383
12304TIP3    H158403   0.964   5.766  16.339 -1.3529 -0.6743 -0.0266
12304TIP3    H258404   0.940   5.794  16.193  1.7879 -0.4861 -0.5438
12305TIP3   OH258405   1.087   2.835  13.282  0.1410 -0.2160 -0.1808
12305TIP3    H158406   1.182   2.824  13.280  0.1205 -0.9483  1.7483
12305TIP3    H258407   1.065   2.877  13.199  2.1623  0.0341 -0.5895
12306TIP3   OH258408   4.546   4.889   0.111  0.1134 -0.5091 -0.6385
12306TIP3    H158409   4.591   4.817   0.155  0.7136  0.4400  0.3402
12306TIP3    H258410   4.577   4.885   0.020 -0.1079 -1.6664 -0.6723
12307TIP3   OH258411   6.755   0.497  13.388 -0.4247 -0.2982 -0.2436
12307TIP3    H158412   6.749   0.406  13.415 -0.0197 -0.8031 -1.7873
12307TIP3    H258413   6.673   0.514  13.343  0.5493 -0.6976 -2.2334
12308TIP3   OH258414   3.422   3.278   0.947  0.3610 -0.7560  0.6627
12308TIP3    H158415   3.498   3.306   0.895 -0.6395 -0.8075 -0.8460
12308TIP3    H258416   3.424   3.335   1.024  0.7563  0.6420 -0.3571
12309TIP3   OH258417   1.180   0.637   3.991 -0.3083  0.4974 -0.0344
12309TIP3    H158418   1.220   0.551   4.005  1.0741  0.6789 -2.6843
12309TIP3    H258419   1.110   0.622   3.929  0.3795  1.3863 -1.0423
12310TIP3   OH258420   5.362   4.480   6.212 -0.2454 -0.1456 -0.1127
12310TIP3    H158421   5.333   4.508   6.125 -0.2265  2.4767  0.6740
12310TIP3    H258422   5.284   4.489   6.267 -0.1799 -1.5095  0.2154
12311TIP3   OH258423   3.369   3.049  13.549 -0.7300 -0.5047 -0.0885
12311TIP3    H158424   3.431   3.102  13.499 -0.9360 -0.1350  0.0514
12311TIP3    H258425   3.299   3.029  13.487 -1.6673  1.1048  0.4309
12312TIP3   OH258426   2.665   2.391   6.656  0.2064  0.3265 -0.1775
12312TIP3    H158427   2.709   2.456   6.710 -1.1294  1.5847 -0.5475
12312TIP3    H258428   2.573   2.395   6.685 -0.1137 -0.4875 -1.0742
12313TIP3   OH258429   5.278   4.400  10.898  0.4634 -0.4655  0.4129
12313TIP3    H158430   5.240   4.422  10.813 -1.3268  0.3464  1.3754
12313TIP3    H258431   5.311   4.311  10.887  0.9598 -0.0888 -1.3405
12314TIP3   OH258432   1.494   1.781  14.806  0.5514 -0.0136 -0.0782
12314TIP3    H158433   1.481   1.860  14.859  1.0782  0.5724 -0.8057
12314TIP3    H258434   1.501   1.814  14.716  2.3539 -0.7520 -0.2118
12315TIP3   OH258435   5.051   1.124   5.112 -0.0002 -0.5121 -0.2745
12315TIP3    H158436   5.081   1.114   5.202 -0.9386 -0.2994  0.0627
12315TIP3    H258437   4.960   1.151   5.119 -0.1852 -0.8254 -1.2876
12316TIP3   OH258438   5.247   4.908   5.188 -0.0702 -0.3889  0.2588
12316TIP3    H158439   5.252   4.913   5.092 -1.4628 -0.6396  0.1575
12316TIP3    H258440   5.281   4.822   5.210  0.6011 -0.1877  0.0180
12317TIP3   OH258441   5.169   5.748  16.480 -0.0518  0.5127 -0.2601
12317TIP3    H158442   5.101   5.810  16.453 -0.9620  0.5071  1.8675
12317TIP3    H258443   5.193   5.702  16.400 -1.0018  2.0448 -1.4467
12318TIP3   OH258444   1.815   4.583   5.717 -0.0712  0.1998 -0.4348
12318TIP3    H158445   1.728   4.575   5.679  0.3781  0.6830 -1.5855
12318TIP3    H258446   1.800   4.600   5.810 -1.2351  2.9085 -1.0787
12319TIP3   OH258447   0.166   2.570  15.767  0.0010  0.5708  0.8980
12319TIP3    H158448   0.075   2.582  15.797  0.2939  0.5332  1.8135
12319TIP3    H258449   0.159   2.568  15.671 -0.8420  1.5955  0.9192
12320TIP3   OH258450   4.567   5.480   4.184  0.1233 -0.3077 -0.2191
12320TIP3    H158451   4.529   5.564   4.159 -0.8553 -0.9647 -1.0115
12320TIP3    H258452   4.541   5.420   4.113  1.1630 -1.1817  0.1112
12321TIP3   OH258453   0.618   3.309   5.212  0.4492 -0.0052 -0.3740
12321TIP3    H158454   0.620   3.402   5.193  2.3958  0.6498  2.7388
12321TIP3    H258455   0.699   3.274   5.173  0.1293 -0.2599 -0.8194
12322TIP3   OH258456   2.760   5.005   0.235 -0.3714 -0.1414 -0.2932
12322TIP3    H158457   2.676   5.051   0.237 -0.3306 -0.0614 -0.4201
12322TIP3    H258458   2.743   4.923   0.281 -0.4180  0.0437  0.0186
12323TIP3   OH258459   3.417   6.492  13.133  0.7905  0.1066  0.3598
12323TIP3    H158460   3.477   6.567  13.139  0.8568 -0.0034  1.2329
12323TIP3    H258461   3.436   6.441  13.212  2.2872 -2.0254 -1.3309
12324TIP3   OH258462   4.929   2.574   6.316 -0.2024  0.0764  0.2781
12324TIP3    H158463   4.926   2.633   6.240 -0.6614  0.9240  0.9409
12324TIP3    H258464   4.979   2.623   6.382 -0.1218 -0.5014  0.6482
12325TIP3   OH258465   0.518   6.665   3.212 -0.0929  0.2486  0.7763
12325TIP3    H158466   0.605   6.650   3.248  1.1941 -1.4625 -2.8647
12325TIP3    H258467   0.481   6.577   3.200 -1.8509  0.9143  1.1135
12326TIP3   OH258468   1.514   3.289   3.130  0.4487 -0.1226  0.4669
12326TIP3    H158469   1.530   3.383   3.135  0.3840 -0.0287 -0.9413
12326TIP3    H258470   1.481   3.274   3.041 -0.9178 -1.2724  1.1258
12327TIP3   OH258471   5.212   0.377   4.317  0.0876 -0.1743 -0.2233
12327TIP3    H158472   5.220   0.359   4.223  1.8030 -0.7773  0.0070
12327TIP3    H258473   5.154   0.453   4.322  0.1532  0.0005 -1.7890
12328TIP3   OH258474   1.086   2.095  16.451  0.6620  0.0972  0.3203
12328TIP3    H158475   1.078   2.185  16.418  0.2416 -0.3256 -0.7419
12328TIP3    H258476   1.176   2.090  16.483  1.0182  0.5774 -0.5929
12329TIP3   OH258477   0.411   5.963   4.722 -0.7104  0.3662  0.0018
12329TIP3    H158478   0.410   5.882   4.772  0.7097  0.2039 -0.2026
12329TIP3    H258479   0.447   6.028   4.783  3.8829 -0.4572 -1.6383
12330TIP3   OH258480   6.202   1.280  12.509 -0.1075  0.4941  0.3618
12330TIP3    H158481   6.117   1.325  12.504  0.1830  1.3239  2.5193
12330TIP3    H258482   6.250   1.312  12.433 -0.9705  1.6224  0.2677
12331TIP3   OH258483   5.804   0.545  13.652  0.3376  0.5921 -0.3829
12331TIP3    H158484   5.815   0.575  13.562  0.2649  0.9982 -0.2573
12331TIP3    H258485   5.764   0.619  13.698  0.4626  0.4240  0.0056
12332TIP3   OH258486   0.182   3.646   0.180 -0.0952  0.2182 -0.5960
12332TIP3    H158487   0.114   3.688   0.233 -0.1267 -1.5665  0.8136
12332TIP3    H258488   0.264   3.681   0.215 -0.0997 -1.2016  0.8933
12333TIP3   OH258489   4.418   5.274   4.038  0.1276  0.1728  0.0127
12333TIP3    H158490   4.485   5.205   4.037 -1.5736 -1.5047 -2.1307
12333TIP3    H258491   4.353   5.242   4.100  0.1327  0.6652  0.2741
12334TIP3   OH258492   0.069   2.632   6.204  0.4657 -0.7904  0.1209
12334TIP3    H158493   0.028   2.582   6.275 -2.0713 -0.5395 -1.1264
12334TIP3    H258494   0.058   2.723   6.230 -0.9219 -0.6788 -0.8003
12335TIP3   OH258495   0.433   3.553   3.331  0.5021 -0.1239  0.0138
12335TIP3    H158496   0.423   3.592   3.244  1.9715  0.5001  0.1107
12335TIP3    H258497   0.527   3.543   3.342  0.3465  0.0156  1.6318
12336TIP3   OH258498   4.341   4.711   3.962  0.2179  0.6441 -0.3073
12336TIP3    H158499   4.415   4.729   3.904  1.4227  0.7942  1.2420
12336TIP3    H258500   4.269   4.763   3.926  1.7722  3.1331  0.0787
12337TIP3   OH258501   2.735   0.818  12.673  0.1668 -0.3991 -0.4254
12337TIP3    H158502   2.760   0.884  12.738  2.2401  0.4170 -1.9736
12337TIP3    H258503   2.639   0.818  12.674  0.1557  1.2697  0.9627
12338TIP3   OH258504   2.461   4.510  12.073  0.9929  0.2670  0.2501
12338TIP3    H158505   2.521   4.449  12.116  0.5829  0.6730  1.4146
12338TIP3    H258506   2.472   4.492  11.980  2.2532 -0.2844  0.4910
12339TIP3   OH258507   5.262   4.298   3.241  0.1800 -0.0040 -0.2287
12339TIP3    H158508   5.294   4.377   3.199 -1.4366  0.8994  0.1800
12339TIP3    H258509   5.166   4.305   3.235  0.0003 -1.5421  0.5082
12340TIP3   OH258510   0.488   0.042  10.904  0.3593  0.1016  0.6554
12340TIP3    H158511   0.477  -0.053  10.901  0.2663  0.1373 -0.2510
12340TIP3    H258512   0.403   0.078  10.878  0.2657  0.4318  1.4270
12341TIP3   OH258513   0.576   6.721   1.052 -0.4585  0.2918  0.1175
12341TIP3    H158514   0.668   6.701   1.069 -0.0682  1.5341 -0.4719
12341TIP3    H258515   0.553   6.784   1.119 -1.4718 -1.4987  1.5050
12342TIP3   OH258516   3.119   2.331  13.517  0.6866  0.1273 -0.2823
12342TIP3    H158517   3.082   2.305  13.602  0.9648  1.7837  0.3748
12342TIP3    H258518   3.074   2.412  13.495  2.0054  0.7421 -0.7821
12343TIP3   OH258519   6.371   3.926   6.537 -0.6915  0.0607 -0.3559
12343TIP3    H158520   6.352   3.923   6.631 -1.3387 -1.7993 -0.5434
12343TIP3    H258521   6.291   3.897   6.495  0.2305 -0.9964 -1.4150
12344TIP3   OH258522   2.592   6.299   3.086 -0.2616  0.4117 -0.3438
12344TIP3    H158523   2.617   6.229   3.025  2.1757  1.4846 -0.6286
12344TIP3    H258524   2.573   6.254   3.168  0.5148 -0.6490 -0.7397
12345TIP3   OH258525   1.694   0.207   6.845 -0.0079 -0.1008 -0.5392
12345TIP3    H158526   1.631   0.268   6.806 -1.4129 -1.9324 -1.2168
12345TIP3    H258527   1.706   0.240   6.934 -2.7569 -0.2749 -0.0448
12346TIP3   OH258528   6.536   4.024   0.209  0.2500 -0.4639 -0.4842
12346TIP3    H158529   6.454   4.034   0.161  0.1457 -0.7903 -0.3759
12346TIP3    H258530   6.510   3.996   0.297  0.3398  1.8007  0.2923
12347TIP3   OH258531   2.234   6.563   3.178  0.1067  0.5227  0.1956
12347TIP3    H158532   2.167   6.631   3.172 -0.4948 -0.0596  0.3951
12347TIP3    H258533   2.189   6.486   3.212  0.4429 -0.4626 -1.5446
12348TIP3   OH258534   6.692   2.209  15.521  0.2626  0.1340  0.2450
12348TIP3    H158535   6.670   2.295  15.486 -0.1086 -0.5331 -1.2498
12348TIP3    H258536   6.622   2.189  15.583 -0.1106  0.5485 -0.0450
12349TIP3   OH258537   5.118   2.946   6.052  0.2248  0.5340  0.0107
12349TIP3    H158538   5.123   2.954   6.147  0.8751 -0.7662  0.0956
12349TIP3    H258539   5.038   2.897   6.036  1.2641 -1.1975  0.0185
12350TIP3   OH258540   2.059   3.585  16.340  0.1909 -0.2864  0.0822
12350TIP3    H158541   2.147   3.610  16.311 -0.2915 -0.1296 -1.2765
12350TIP3    H258542   2.017   3.667  16.364  0.5849 -0.4145  1.2755
12351TIP3   OH258543   1.811   1.734  13.700 -0.3457  0.5222 -0.2402
12351TIP3    H158544   1.718   1.746  13.721 -0.1877 -0.2646  0.9174
12351TIP3    H258545   1.855   1.732  13.785  0.4873 -1.1245 -0.6853
12352TIP3   OH258546   4.325   4.928  15.763 -0.3717  0.0968  0.1137
12352TIP3    H158547   4.281   4.866  15.822 -1.4621  1.6162  0.9241
12352TIP3    H258548   4.366   4.991  15.822  1.1237 -0.0949 -0.7010
12353TIP3   OH258549   3.508   3.018  12.223 -0.0315  0.3527 -0.6121
12353TIP3    H158550   3.422   3.020  12.266  0.2946  0.6574  0.0305
12353TIP3    H258551   3.503   3.086  12.156 -0.5438 -0.1225 -1.0569
12354TIP3   OH258552   4.180   5.671  12.052 -0.0835 -0.2937 -0.1218
12354TIP3    H158553   4.156   5.746  11.998 -0.4308 -0.7359 -0.5825
12354TIP3    H258554   4.200   5.709  12.138  0.2506  0.3817 -0.4912
12355TIP3   OH258555   6.203   5.680   3.835  0.5374  0.8354  0.0489
12355TIP3    H158556   6.269   5.617   3.867 -0.2796  0.6802  1.5014
12355TIP3    H258557   6.214   5.680   3.740  1.8046 -0.1180  0.1757
12356TIP3   OH258558   2.984   4.239   0.132  0.1619 -0.4504  0.0118
12356TIP3    H158559   2.977   4.190   0.050  0.2390 -0.5163  0.0450
12356TIP3    H258560   3.007   4.173   0.197 -3.3744 -1.0710  0.7646
12357TIP3   OH258561   6.307   5.866  15.208 -0.1212 -0.3430 -0.2899
12357TIP3    H158562   6.243   5.887  15.140 -0.6550 -3.3315 -0.7910
12357TIP3    H258563   6.386   5.842  15.160 -0.5103 -2.5071  0.0658
12358TIP3   OH258564   4.934   1.992  11.643  0.3239 -0.1401  0.1592
12358TIP3    H158565   4.849   1.949  11.648  0.4846 -0.3942  0.6578
12358TIP3    H258566   4.962   1.980  11.552 -0.5951  0.7481 -0.2563
12359TIP3   OH258567   1.520   2.428  15.354 -0.1377  0.4450  0.4506
12359TIP3    H158568   1.533   2.377  15.434 -0.6157 -1.0219 -0.3912
12359TIP3    H258569   1.442   2.391  15.314 -2.5539  4.0850  1.5200
12360TIP3   OH258570   2.588   2.560   2.465 -0.5721 -0.1694  0.1990
12360TIP3    H158571   2.517   2.502   2.440 -0.0096 -1.0395  0.5769
12360TIP3    H258572   2.666   2.521   2.426 -0.3935  1.1446 -0.7870
12361TIP3   OH258573   4.077   1.345  14.481  0.3983  0.5792  0.1488
12361TIP3    H158574   4.039   1.368  14.396  1.1365 -0.8788 -0.5857
12361TIP3    H258575   4.001   1.324  14.536 -0.0397  0.7465 -0.3883
12362TIP3   OH258576   5.359   1.117  15.578  0.4012 -0.0397  1.0140
12362TIP3    H158577   5.374   1.095  15.670  0.2047 -0.5817  0.9190
12362TIP3    H258578   5.331   1.209  15.580  0.8941  0.1014  1.4473
12363TIP3   OH258579   2.209   0.393  11.624 -0.3547  0.3619 -0.8996
12363TIP3    H158580   2.285   0.428  11.578  0.9194 -1.8889 -0.6127
12363TIP3    H258581   2.224   0.298  11.627 -1.8107  0.1472  1.5882
12364TIP3   OH258582   3.872   1.940  16.608  0.3633  0.6624  0.0814
12364TIP3    H158583   3.959   1.958  16.643 -0.3218  0.5103  1.9180
12364TIP3    H258584   3.828   1.892  16.678 -1.4588  1.4334 -0.5238
12365TIP3   OH258585   6.134   2.324  16.375  0.1754 -0.2721  0.0077
12365TIP3    H158586   6.100   2.245  16.334  0.8353 -0.3024 -0.4933
12365TIP3    H258587   6.108   2.317  16.467 -1.3370 -0.2002 -0.3892
12366TIP3   OH258588   3.152   5.387  14.741 -0.0736 -0.0034 -0.0549
12366TIP3    H158589   3.198   5.406  14.823  0.9311 -0.9645 -0.3851
12366TIP3    H258590   3.217   5.342  14.687 -1.4093 -1.4076 -0.5313
12367TIP3   OH258591   3.797   0.750  12.423 -0.8251 -0.1477  0.3021
12367TIP3    H158592   3.831   0.838  12.410 -2.0927  0.5543  1.5791
12367TIP3    H258593   3.707   0.753  12.390 -0.5437 -1.2480 -0.5971
12368TIP3   OH258594   3.093   3.390  16.638 -0.6007 -0.0846 -0.0236
12368TIP3    H158595   3.173   3.342  16.614 -1.5201 -1.0822 -1.1802
12368TIP3    H258596   3.122   3.479  16.655  0.5503 -0.0438 -2.0068
12369TIP3   OH258597   2.510   4.275  14.268  0.4803  0.1453  0.2901
12369TIP3    H158598   2.514   4.184  14.239 -0.9829 -0.5349  2.1312
12369TIP3    H258599   2.542   4.325  14.193 -1.6970 -1.6483 -1.9089
12370TIP3   OH258600   1.942   4.354   2.495  0.0090 -0.8492  0.4010
12370TIP3    H158601   1.896   4.331   2.414 -0.0782  2.4234 -0.5538
12370TIP3    H258602   1.978   4.442   2.479  0.3194 -0.2701  3.7642
12371TIP3   OH258603   3.802   2.250   5.561  0.3596  0.6252 -0.1098
12371TIP3    H158604   3.795   2.293   5.476  1.1260  1.6559  0.3377
12371TIP3    H258605   3.823   2.159   5.540 -0.6335  0.5944 -1.0438
12372TIP3   OH258606   5.506   0.897   5.186  0.2904  0.0558  0.2619
12372TIP3    H158607   5.588   0.881   5.141  0.6313  0.4735  0.7275
12372TIP3    H258608   5.440   0.898   5.116  1.0446  2.3938 -0.4647
12373TIP3   OH258609   2.391   4.029  10.988  0.1486 -0.9125 -0.9401
12373TIP3    H158610   2.413   3.985  10.906  1.1155  1.6322 -2.1268
12373TIP3    H258611   2.471   4.078  11.011 -0.7276 -0.1203  0.5173
12374TIP3   OH258612   3.442   2.985  13.990  0.5358 -0.2344  0.4246
12374TIP3    H158613   3.402   2.938  13.917 -1.3810  0.0237  1.2642
12374TIP3    H258614   3.427   2.928  14.066  2.3487 -0.4207  0.6591
12375TIP3   OH258615   1.764   0.328  12.680 -0.9096 -0.3531  0.4528
12375TIP3    H158616   1.678   0.369  12.686 -0.4553  0.6022  0.5790
12375TIP3    H258617   1.775   0.309  12.587 -2.1025 -2.3709  0.6829
12376TIP3   OH258618   5.672   5.633   0.729  0.4835 -0.5995  0.4408
12376TIP3    H158619   5.680   5.593   0.816  1.1506 -3.0122 -0.6674
12376TIP3    H258620   5.623   5.569   0.678  1.3290  0.1355 -1.3439
12377TIP3   OH258621   0.043   4.389   4.283 -0.1788 -0.4395 -0.0970
12377TIP3    H158622   0.126   4.376   4.236 -0.1021 -0.2601 -0.0117
12377TIP3    H258623   0.003   4.464   4.240  0.1628  0.0857  0.5057
12378TIP3   OH258624   5.344   2.452   6.425  0.1503 -0.1769 -0.3792
12378TIP3    H158625   5.338   2.543   6.454  2.5689 -0.1930  0.3105
12378TIP3    H258626   5.313   2.401   6.500  1.8960 -0.0278  0.4642
12379TIP3   OH258627   0.638   4.310   0.768  0.3919  0.1223  0.2516
12379TIP3    H158628   0.674   4.384   0.817  0.7314  0.3686 -0.3673
12379TIP3    H258629   0.691   4.235   0.795 -2.1423 -0.5829  3.4948
12380TIP3   OH258630   0.834   4.995   0.053 -0.6663 -0.2462  0.0977
12380TIP3    H158631   0.808   5.002   0.145  3.7176  1.9655  1.3008
12380TIP3    H258632   0.820   5.082   0.017 -1.8069 -0.9537 -1.2621
12381TIP3   OH258633   6.526   1.359   2.417  0.0245 -0.1907 -0.4725
12381TIP3    H158634   6.561   1.428   2.361 -0.2640 -0.7094 -1.3065
12381TIP3    H258635   6.543   1.278   2.369 -1.8151 -0.4935 -0.6328
12382TIP3   OH258636   1.550   6.039  14.815  0.0515 -0.3512  0.6722
12382TIP3    H158637   1.461   6.072  14.811  0.2930  0.3475  1.0268
12382TIP3    H258638   1.540   5.944  14.823 -0.6473 -0.3173  0.2657
12383TIP3   OH258639   5.788   0.886  11.383  0.5760 -0.1074  0.1049
12383TIP3    H158640   5.796   0.804  11.334  0.8064 -0.3019  0.4615
12383TIP3    H258641   5.696   0.891  11.407  0.7041 -0.6471  0.7318
12384TIP3   OH258642   2.784   6.173  14.178 -0.0228 -0.2591 -0.1160
12384TIP3    H158643   2.690   6.165  14.191 -0.3412  1.0326 -1.4949
12384TIP3    H258644   2.809   6.096  14.128 -0.5639 -0.0353 -0.7459
12385TIP3   OH258645   1.005   5.190   5.933  0.4135  0.3629 -0.5398
12385TIP3    H158646   1.066   5.239   5.877 -1.6028  0.2545 -2.9318
12385TIP3    H258647   0.928   5.247   5.940  0.0669 -0.2584  0.9765
12386TIP3   OH258648   2.263   2.636   4.821 -0.0152  0.3077  0.2260
12386TIP3    H158649   2.257   2.677   4.734 -0.9593 -0.9441 -0.3200
12386TIP3    H258650   2.175   2.600   4.836 -0.0518  1.0835  1.9931
12387TIP3   OH258651   0.593   6.163   4.605  0.0605 -0.0059  0.5682
12387TIP3    H158652   0.636   6.196   4.527 -0.3036 -0.3398  0.2210
12387TIP3    H258653   0.558   6.241   4.649 -1.4610  0.0216 -0.6400
12388TIP3   OH258654   1.313   1.219  12.178  0.1196  0.1907 -0.3437
12388TIP3    H158655   1.275   1.303  12.203  0.3129  0.7656 -1.8865
12388TIP3    H258656   1.289   1.159  12.248 -1.4640  1.1443 -0.0501
12389TIP3   OH258657   1.216   2.026   4.841  0.6467 -0.1792 -0.2301
12389TIP3    H158658   1.221   1.931   4.848 -1.1233 -0.1392  2.4091
12389TIP3    H258659   1.297   2.058   4.880  0.2126 -0.5744  1.0173
12390TIP3   OH258660   1.062   5.369  17.182 -0.1560 -0.0167 -0.5797
12390TIP3    H158661   1.151   5.346  17.156  0.7671  1.9663  0.6923
12390TIP3    H258662   1.054   5.462  17.160 -0.9765  0.4941  1.6973
12391TIP3   OH258663   3.279   6.503  15.387  0.5720  0.1794 -0.2031
12391TIP3    H158664   3.294   6.483  15.479  0.3704  0.9963  0.0079
12391TIP3    H258665   3.309   6.425  15.340 -1.5154 -1.2162  0.6859
12392TIP3   OH258666   4.558   3.514   3.943  0.9691 -0.5229  0.5098
12392TIP3    H158667   4.576   3.607   3.960 -2.1857  0.6423 -1.9636
12392TIP3    H258668   4.555   3.474   4.030  2.1035  1.7626  1.6399
12393TIP3   OH258669   5.383   3.737  15.023 -0.0581  0.2538  0.0234
12393TIP3    H158670   5.300   3.751  14.978 -0.1421 -0.0342  0.0927
12393TIP3    H258671   5.361   3.738  15.116  0.0637  0.4947  0.0521
12394TIP3   OH258672   2.538   3.262   2.403 -0.2681 -0.0257  0.2548
12394TIP3    H158673   2.585   3.249   2.485  0.2377  0.2450  0.0135
12394TIP3    H258674   2.545   3.356   2.386  1.1083 -0.3209 -0.9697
12395TIP3   OH258675   0.499   5.641   1.278  0.2036  0.8357  0.2860
12395TIP3    H158676   0.587   5.644   1.316  1.1378  0.0456 -1.7393
12395TIP3    H258677   0.512   5.664   1.186 -1.3336 -1.8675 -0.6550
12396TIP3   OH258678   4.742   5.575  11.117 -0.6572 -0.0953  0.0011
12396TIP3    H158679   4.719   5.517  11.189 -0.5177 -1.2346 -0.8457
12396TIP3    H258680   4.836   5.560  11.103 -0.9221 -0.7753 -1.1710
12397TIP3   OH258681   4.524   6.584   5.211  0.2416  0.4609 -0.6404
12397TIP3    H158682   4.577   6.661   5.194 -0.4488  0.3584 -3.4346
12397TIP3    H258683   4.467   6.609   5.283  2.1932  1.4574  0.6028
12398TIP3   OH258684   5.135   5.462  14.753 -0.2158 -0.2990  0.3452
12398TIP3    H158685   5.044   5.465  14.722  0.3140  0.3863 -1.2170
12398TIP3    H258686   5.157   5.554  14.772 -0.2263 -0.6060  1.8819
12399TIP3   OH258687   6.382   4.646  16.103 -0.0523 -0.5744 -0.1617
12399TIP3    H158688   6.475   4.662  16.119  0.2144 -1.1832 -1.0685
12399TIP3    H258689   6.341   4.733  16.108  0.3381 -0.4774  1.6382
12400TIP3   OH258690   1.771   1.714  16.708  0.1133 -0.6840 -0.2154
12400TIP3    H158691   1.730   1.738  16.792 -1.7405 -0.6309 -1.1264
12400TIP3    H258692   1.865   1.710  16.729 -0.3157 -0.7393  1.8834
12401TIP3   OH258693   4.472   6.803  16.745 -0.6740  0.6691  0.1607
12401TIP3    H158694   4.514   6.783  16.829  0.9275 -1.8632 -1.1724
12401TIP3    H258695   4.392   6.750  16.745  0.0261 -0.4181 -0.4455
12402TIP3   OH258696   0.765   5.466   1.607 -0.0571 -0.0426  0.5387
12402TIP3    H158697   0.727   5.447   1.521 -0.1237 -1.5553  0.8778
12402TIP3    H258698   0.854   5.431   1.602  0.3667  0.9953  0.6776
12403TIP3   OH258699   1.488   3.680   2.829 -0.0181 -0.0020 -0.4299
12403TIP3    H158700   1.397   3.666   2.805 -0.1087  0.6044 -0.4472
12403TIP3    H258701   1.533   3.601   2.799 -0.6097 -0.5020 -0.0101
12404TIP3   OH258702   6.303   2.314  11.210 -0.3964  0.3445  0.0632
12404TIP3    H158703   6.390   2.321  11.249 -0.1699  0.0419 -0.3825
12404TIP3    H258704   6.306   2.371  11.134 -0.7324  0.6756  0.2980
12405TIP3   OH258705   5.104   5.142  16.331 -0.6905 -0.2565 -0.2444
12405TIP3    H158706   5.198   5.150  16.347 -0.3017  0.1688 -2.5099
12405TIP3    H258707   5.094   5.056  16.290 -1.0784  0.2935 -1.3220
12406TIP3   OH258708   5.174   3.576   5.198 -0.2715 -0.0612  0.2395
12406TIP3    H158709   5.233   3.651   5.198 -1.4555  0.8684 -0.9420
12406TIP3    H258710   5.088   3.612   5.175 -1.0441 -1.6120  0.6362
12407TIP3   OH258711   5.671   3.961   0.303 -0.1064  0.0366  0.3620
12407TIP3    H158712   5.755   3.992   0.335 -0.4184  0.4204  0.8207
12407TIP3    H258713   5.642   3.898   0.370  0.5918 -1.3669 -0.6322
12408TIP3   OH258714   4.525   4.490  11.200 -0.0516 -0.1658  0.3773
12408TIP3    H158715   4.602   4.493  11.143 -0.9303  1.5535 -0.7723
12408TIP3    H258716   4.561   4.493  11.289  1.2057  1.7531 -0.1533
12409TIP3   OH258717   3.581   2.431   2.916  0.4458 -0.9068 -0.1725
12409TIP3    H158718   3.567   2.393   3.002  0.7258 -0.2002  0.1923
12409TIP3    H258719   3.571   2.525   2.930 -3.6939 -0.9902 -1.7048
12410TIP3   OH258720   4.014   1.737   0.208  0.0870 -0.1752  0.7567
12410TIP3    H158721   4.102   1.752   0.242  0.2978 -0.7510  0.4720
12410TIP3    H258722   4.027   1.726   0.113 -0.3074 -0.1097  0.6955
12411TIP3   OH258723   2.857   0.362  12.268 -0.2132  0.3336  0.0768
12411TIP3    H158724   2.908   0.401  12.197 -2.1202  1.2289 -0.8514
12411TIP3    H258725   2.825   0.280  12.231  1.0366 -0.5171  0.8656
12412TIP3   OH258726   4.216   5.730   0.812 -0.0550 -0.0923  0.0188
12412TIP3    H158727   4.283   5.680   0.857  0.6113  1.6056  0.9781
12412TIP3    H258728   4.258   5.758   0.730 -0.3429 -0.8635 -0.3991
12413TIP3   OH258729   0.254   1.136  11.375  0.2868  0.0300 -0.0646
12413TIP3    H158730   0.238   1.045  11.401  0.3617 -0.1697 -0.7243
12413TIP3    H258731   0.251   1.135  11.280  1.4807  0.4998 -0.1071
12414TIP3   OH258732   5.739   5.398  16.417  0.7352 -0.4569 -0.2053
12414TIP3    H158733   5.713   5.475  16.467 -0.1702  0.4207 -1.9576
12414TIP3    H258734   5.815   5.427  16.367  2.2598 -1.6224  1.3696
12415TIP3   OH258735   5.294   4.366   2.638 -0.4927 -0.2890 -0.0768
12415TIP3    H158736   5.301   4.385   2.731 -0.6224  0.0354 -0.1341
12415TIP3    H258737   5.204   4.338   2.625 -0.3176 -0.8996 -0.0019
12416TIP3   OH258738   3.135   3.618  11.437  0.0070  0.3382  0.5807
12416TIP3    H158739   3.193   3.603  11.362  1.3899 -0.5616  1.7983
12416TIP3    H258740   3.179   3.575  11.510 -1.8977  0.1981  1.6798
12417TIP3   OH258741   4.808   0.551   0.713  0.2645 -0.6687 -0.0333
12417TIP3    H158742   4.766   0.634   0.692 -1.7076 -1.4636  0.6893
12417TIP3    H258743   4.901   0.567   0.697 -0.5166  0.3506 -4.1707
12418TIP3   OH258744   0.996   3.929   2.370  0.3408  0.4046 -0.2295
12418TIP3    H158745   1.084   3.960   2.349  0.2748  1.0717  0.4558
12418TIP3    H258746   0.972   3.872   2.297  0.7026  1.5174 -1.2297
12419TIP3   OH258747   4.391   5.213   2.321 -0.0943 -0.2569 -0.1714
12419TIP3    H158748   4.472   5.263   2.330 -0.6845  0.5198  0.9061
12419TIP3    H258749   4.331   5.271   2.276 -0.3393 -0.5057 -0.1718
12420TIP3   OH258750   5.891   4.234   1.716  0.2709  0.1457 -0.2970
12420TIP3    H158751   5.837   4.282   1.779 -0.0685  0.3060 -0.7063
12420TIP3    H258752   5.978   4.231   1.756  0.2095  0.8012 -0.1125
12421TIP3   OH258753   2.772   2.932   0.796  0.5863 -0.0427 -0.3300
12421TIP3    H158754   2.793   2.862   0.733  0.2075 -2.1073  1.7700
12421TIP3    H258755   2.677   2.940   0.792  0.2942 -1.9980  1.7981
12422TIP3   OH258756   5.306   0.215  15.794 -0.0369 -0.3574  0.3650
12422TIP3    H158757   5.344   0.303  15.781 -0.8962  0.1412  1.1669
12422TIP3    H258758   5.375   0.155  15.765  1.1296  0.5530  1.1717
12423TIP3   OH258759   1.702   4.114  16.123  0.2175 -0.1817  0.2980
12423TIP3    H158760   1.682   4.166  16.201  2.6983  1.9958 -0.4720
12423TIP3    H258761   1.648   4.152  16.054 -0.3203 -0.6986  0.4238
12424TIP3   OH258762   4.176   3.086   1.800 -0.2365 -0.1513 -0.1587
12424TIP3    H158763   4.115   3.040   1.858 -1.2507  1.4467  0.0761
12424TIP3    H258764   4.143   3.069   1.712 -1.3901  1.1875 -0.0024
12425TIP3   OH258765   5.250   1.682  15.146  0.5964 -0.4504  0.2461
12425TIP3    H158766   5.171   1.735  15.140  1.2472  0.5427  0.3052
12425TIP3    H258767   5.269   1.678  15.239  0.4741 -0.9020  0.2516
12426TIP3   OH258768   6.251   6.372   4.241  0.1163  0.1897 -0.1618
12426TIP3    H158769   6.177   6.429   4.259  1.1142  0.9143  1.7917
12426TIP3    H258770   6.326   6.432   4.232  0.5295 -0.5404 -1.9025
12427TIP3   OH258771   5.400   2.078  15.324 -0.8263 -0.0771  0.7048
12427TIP3    H158772   5.337   2.150  15.319  0.5899  1.1154 -0.5469
12427TIP3    H258773   5.462   2.095  15.253 -0.3088 -2.4117  0.5537
12428TIP3   OH258774   6.381   0.337  15.665  0.0688  0.5172  0.6955
12428TIP3    H158775   6.357   0.308  15.577  1.7355  0.4130  0.2611
12428TIP3    H258776   6.371   0.259  15.719 -3.4299  1.2008  1.1092
12429TIP3   OH258777   5.129   4.418  10.681 -0.8170 -0.1075  0.0491
12429TIP3    H158778   5.063   4.484  10.658 -0.8788 -0.4155 -0.6815
12429TIP3    H258779   5.157   4.382  10.596  0.5877  0.3131  0.3292
12430TIP3   OH258780   1.762   5.459  12.979 -0.3949 -0.1845  0.2777
12430TIP3    H158781   1.742   5.399  12.907 -2.6998  0.1527  0.5843
12430TIP3    H258782   1.789   5.540  12.937  0.1098 -0.5808 -0.1700
12431TIP3   OH258783   3.930   5.458  16.284  0.3237 -0.4942  0.2192
12431TIP3    H158784   3.977   5.380  16.256  0.4572 -0.1532 -0.5268
12431TIP3    H258785   3.933   5.517  16.208 -0.4825 -0.0904  0.4853
12432TIP3   OH258786   5.426   5.495  12.467 -0.3502  0.2527 -0.1089
12432TIP3    H158787   5.357   5.452  12.417  0.4250 -2.5256  1.1248
12432TIP3    H258788   5.390   5.507  12.554  0.7886 -1.4765  0.6235
12433TIP3   OH258789   5.637   3.770  10.329  0.7224 -0.0708  0.6436
12433TIP3    H158790   5.715   3.733  10.370  1.0862  0.7412  0.6934
12433TIP3    H258791   5.565   3.719  10.365  1.2873 -1.3699 -0.0329
12434TIP3   OH258792   5.758   6.623   4.643  0.1333 -0.1069  0.3788
12434TIP3    H158793   5.735   6.536   4.674 -1.8503  0.2531 -0.0616
12434TIP3    H258794   5.710   6.635   4.562  1.0999  1.0573 -0.0523
12435TIP3   OH258795   1.553   5.092  10.802 -0.5477 -0.5146  0.1132
12435TIP3    H158796   1.475   5.065  10.754  0.6594 -1.1659 -1.5577
12435TIP3    H258797   1.606   5.012  10.809  1.1609  0.4464 -1.1689
12436TIP3   OH258798   3.334   3.522   0.655  0.2647  0.9980  0.0220
12436TIP3    H158799   3.295   3.435   0.659  0.2149  0.8975 -1.9463
12436TIP3    H258800   3.398   3.523   0.726  0.4465 -0.7465 -0.0937
12437TIP3   OH258801   5.526   3.925   5.268  0.2620 -0.5935 -0.3419
12437TIP3    H158802   5.454   3.910   5.328 -0.3625 -1.3590 -1.2661
12437TIP3    H258803   5.521   3.853   5.206  0.3280  0.6588 -1.8450
12438TIP3   OH258804   0.980   6.672  15.951 -0.3209  1.2132  0.3722
12438TIP3    H158805   1.037   6.597  15.931 -2.4718 -0.8173  1.5768
12438TIP3    H258806   0.992   6.731  15.876  2.9272  0.6364  0.3515
12439TIP3   OH258807   3.795   3.518   6.410  0.2277  0.2439 -0.6971
12439TIP3    H158808   3.702   3.504   6.392  0.3004 -0.5151 -0.4678
12439TIP3    H258809   3.810   3.479   6.496  1.0163 -0.7159 -1.2575
12440TIP3   OH258810   3.172   1.976   4.615 -0.2518 -0.0695  0.3901
12440TIP3    H158811   3.207   1.962   4.527  0.3241 -0.8868  0.7493
12440TIP3    H258812   3.086   1.933   4.613 -0.5863  0.5976 -0.0080
12441TIP3   OH258813   2.928   5.598  14.252  0.0830 -0.2358  0.3012
12441TIP3    H158814   2.899   5.600  14.161  1.3050 -2.1028 -0.1640
12441TIP3    H258815   2.925   5.505  14.276 -0.5486  0.2664  2.2829
12442TIP3   OH258816   4.633   4.904   1.564 -0.4138 -0.0366 -0.3056
12442TIP3    H158817   4.539   4.891   1.572 -0.4628  1.2133  1.3116
12442TIP3    H258818   4.671   4.850   1.634  0.1494 -1.2489 -1.5109
12443TIP3   OH258819   1.756   3.742   2.121  0.3682 -0.1630  0.0076
12443TIP3    H158820   1.748   3.649   2.144  2.8413 -0.3024  0.4270
12443TIP3    H258821   1.794   3.741   2.033 -1.4856  0.4640 -0.8307
12444TIP3   OH258822   2.681   3.539  12.491 -0.3099 -0.1473  0.2234
12444TIP3    H158823   2.707   3.623  12.454  2.7282 -1.5635 -1.0519
12444TIP3    H258824   2.681   3.479  12.416 -2.6267 -1.2766  1.0675
12445TIP3   OH258825   6.635   6.648   6.156  0.2386 -0.5112 -0.3869
12445TIP3    H158826   6.554   6.599   6.142 -0.3630 -0.3787  2.4658
12445TIP3    H258827   6.626   6.725   6.100 -0.9969 -1.1729 -1.1149
12446TIP3   OH258828   2.043   5.026  16.892 -0.2457 -0.0121  0.0982
12446TIP3    H158829   2.060   4.935  16.866  0.2468 -0.1766  0.9769
12446TIP3    H258830   2.030   5.021  16.987  1.3710  1.0701  0.3832
12447TIP3   OH258831   3.674   3.198   6.279 -0.3236 -0.7247 -0.1235
12447TIP3    H158832   3.633   3.242   6.354  0.4687 -0.0194 -0.0957
12447TIP3    H258833   3.698   3.111   6.311  0.6929 -0.1594  0.6649
12448TIP3   OH258834   4.795   4.125  14.977 -0.0892  0.0550  0.3724
12448TIP3    H158835   4.735   4.151  15.047  1.3270  0.8864  1.2897
12448TIP3    H258836   4.756   4.164  14.898  0.6199  2.8615  1.3428
12449TIP3   OH258837   3.834   2.162   6.613  0.4723 -0.1003 -0.4214
12449TIP3    H158838   3.861   2.151   6.704 -0.3645 -2.2263 -0.4000
12449TIP3    H258839   3.906   2.127   6.561 -0.2549 -1.5396 -0.4838
12450TIP3   OH258840   2.534   1.105  15.800  0.5475  0.3044  0.0539
12450TIP3    H158841   2.505   1.184  15.754 -0.2550  0.9604  1.6733
12450TIP3    H258842   2.539   1.130  15.892  3.3265 -0.6462  0.2269
12451TIP3   OH258843   3.141   4.292   3.214 -0.2871 -0.2242 -0.0243
12451TIP3    H158844   3.184   4.271   3.297  0.0771  2.7983  0.6147
12451TIP3    H258845   3.058   4.244   3.217  1.9405 -4.2595 -0.2327
12452TIP3   OH258846   3.946   3.665   4.127  0.2336 -0.0825  0.4921
12452TIP3    H158847   3.964   3.742   4.181 -1.4755  1.6475 -1.3350
12452TIP3    H258848   3.917   3.598   4.190  2.4904  0.4846  2.1703
12453TIP3   OH258849   2.513   6.375  11.264  0.4586  0.8742 -0.0052
12453TIP3    H158850   2.512   6.424  11.347  0.2830 -0.7072  0.9407
12453TIP3    H258851   2.519   6.443  11.197  1.3917  2.1470  1.3297
12454TIP3   OH258852   3.756   3.396   2.173 -0.4402  0.2013 -0.1306
12454TIP3    H158853   3.693   3.336   2.214  1.5013 -0.9770  1.2444
12454TIP3    H258854   3.724   3.483   2.195 -1.2026 -0.3895  1.2107
12455TIP3   OH258855   4.831   6.312  14.123 -0.4202  0.1934  0.0526
12455TIP3    H158856   4.912   6.319  14.072 -0.0649 -0.7082  0.4791
12455TIP3    H258857   4.789   6.398  14.114 -0.0767  0.2296 -1.2730
12456TIP3   OH258858   2.907   0.340   6.497 -0.0470  0.0743 -0.2395
12456TIP3    H158859   2.895   0.398   6.572 -0.3974 -0.7929  0.3883
12456TIP3    H258860   2.847   0.267   6.514 -0.0235 -0.1972 -1.2926
12457TIP3   OH258861   2.307   1.035   0.160 -0.6342 -0.4251  0.2692
12457TIP3    H158862   2.378   0.971   0.159 -0.1687  0.0475 -2.3792
12457TIP3    H258863   2.227   0.982   0.155 -0.4274 -0.9078  1.8566
12458TIP3   OH258864   6.403   5.981  12.121 -0.6404 -0.6210  0.1306
12458TIP3    H158865   6.465   6.053  12.112  0.1215 -1.2920 -0.1071
12458TIP3    H258866   6.457   5.906  12.146 -1.4978 -0.9751  0.9602
12459TIP3   OH258867   4.821   1.618   4.705 -0.0696 -0.7643 -0.2321
12459TIP3    H158868   4.796   1.652   4.619 -2.8182 -0.1135  0.7796
12459TIP3    H258869   4.910   1.651   4.719 -0.3376  0.7810 -1.9830
12460TIP3   OH258870   3.541   4.703   4.422  0.4088 -0.1321  0.3762
12460TIP3    H158871   3.537   4.743   4.508  0.9345  0.4834  0.1238
12460TIP3    H258872   3.621   4.739   4.383 -0.6176  0.7531 -0.9407
12461TIP3   OH258873   5.251   1.299  11.646 -0.2240  0.2359 -0.1526
12461TIP3    H158874   5.155   1.297  11.638 -0.4660  1.6851  1.8607
12461TIP3    H258875   5.270   1.390  11.670  1.4732 -0.5584  1.5738
12462TIP3   OH258876   6.784   3.716   1.414  0.2439  0.0265  0.2464
12462TIP3    H158877   6.867   3.725   1.461 -0.1169  1.4324  0.6532
12462TIP3    H258878   6.717   3.724   1.483 -0.2322 -1.4286 -0.0311
12463TIP3   OH258879   1.149   4.205   4.453  0.4155  0.0465 -0.5721
12463TIP3    H158880   1.207   4.214   4.529 -1.5365 -2.1566  1.2388
12463TIP3    H258881   1.151   4.111   4.433 -2.1263  0.0134 -0.7643
12464TIP3   OH258882   1.662   6.347   2.691 -0.4114 -0.0078  0.4861
12464TIP3    H158883   1.672   6.427   2.742 -1.0353 -1.5888  3.1642
12464TIP3    H258884   1.568   6.330   2.691 -0.5090  0.3492 -1.8639
12465TIP3   OH258885   4.038   6.066   1.936 -0.0730 -0.5212 -0.1531
12465TIP3    H158886   4.013   5.988   1.885 -0.9303  0.5088 -1.3235
12465TIP3    H258887   4.096   6.115   1.878  0.2076 -0.1098  0.4704
12466TIP3   OH258888   0.210   4.402  13.095 -0.2680 -0.1895  0.0571
12466TIP3    H158889   0.279   4.468  13.098  1.2032 -1.6687 -0.6421
12466TIP3    H258890   0.181   4.393  13.186  1.0617 -0.1631  0.4957
12467TIP3   OH258891   4.866   3.226   4.041  0.3418 -0.4250  0.3651
12467TIP3    H158892   4.813   3.216   3.962 -1.6784  3.6957  1.0585
12467TIP3    H258893   4.809   3.195   4.112 -0.7429  2.7509  0.9590
12468TIP3   OH258894   4.473   0.808   3.963 -0.0104 -0.5389 -0.1190
12468TIP3    H158895   4.489   0.845   3.877  0.0810 -0.1124  0.0783
12468TIP3    H258896   4.549   0.753   3.981  1.1909  1.3416  0.7456
12469TIP3   OH258897   5.641   5.304   3.891  0.4911  0.4573  0.5728
12469TIP3    H158898   5.660   5.247   3.816 -1.2987  0.0192  0.4310
12469TIP3    H258899   5.627   5.244   3.964  1.6553  0.8619  1.1402
12470TIP3   OH258900   5.418   1.881  16.603  1.1806  0.2390 -0.1857
12470TIP3    H158901   5.390   1.839  16.685  0.8312 -2.1581 -1.4780
12470TIP3    H258902   5.341   1.878  16.547  1.4677  1.7061 -0.6876
12471TIP3   OH258903   1.561   5.607  11.716 -0.1102 -0.3100  0.1936
12471TIP3    H158904   1.555   5.558  11.634 -0.6677 -2.9398  1.7576
12471TIP3    H258905   1.649   5.645  11.715  0.0457 -0.6792 -1.3995
12472TIP3   OH258906   5.539   4.759   5.159 -0.5177  0.1197  0.0217
12472TIP3    H158907   5.623   4.716   5.176  0.2660  0.8978 -1.7365
12472TIP3    H258908   5.474   4.700   5.195  0.6395 -1.7013 -0.7896
12473TIP3   OH258909   2.301   5.851   3.035 -0.0749 -0.8212 -0.1611
12473TIP3    H158910   2.391   5.819   3.043  0.3443 -0.1366 -1.8785
12473TIP3    H258911   2.258   5.789   2.977 -0.2062 -0.1788 -0.7630
12474TIP3   OH258912   6.116   4.141   3.258  0.7597 -0.3240  0.0720
12474TIP3    H158913   6.107   4.046   3.267  1.1962 -0.5681 -1.8210
12474TIP3    H258914   6.194   4.152   3.205  0.5295  1.0990  0.0235
12475TIP3   OH258915   2.010   1.959   2.986 -0.7777  0.4456 -0.3490
12475TIP3    H158916   2.016   1.866   3.007 -2.4341  0.2972 -0.4724
12475TIP3    H258917   2.073   1.971   2.915  1.4688  0.0145  1.5234
12476TIP3   OH258918   3.538   0.889   3.958  0.9959 -0.0216  0.3726
12476TIP3    H158919   3.580   0.810   3.991 -1.8554 -1.9547 -0.4163
12476TIP3    H258920   3.461   0.900   4.013 -0.2489  0.4707 -1.4193
12477TIP3   OH258921   5.704   2.792   3.956 -0.3603  0.1119  0.3182
12477TIP3    H158922   5.676   2.845   4.030 -1.1730  0.4271 -0.2113
12477TIP3    H258923   5.623   2.775   3.907 -0.0405 -1.2012  0.2194
12478TIP3   OH258924   4.545   3.451   0.413 -0.2503 -0.4769 -0.4169
12478TIP3    H158925   4.539   3.359   0.436 -0.5386 -0.7231 -1.4796
12478TIP3    H258926   4.461   3.472   0.373 -0.7340  0.6165  1.1093
12479TIP3   OH258927   4.307   0.810   5.855  0.5578 -0.2143 -0.2351
12479TIP3    H158928   4.225   0.834   5.813  1.8019  1.1687 -1.9511
12479TIP3    H258929   4.290   0.820   5.949 -1.6388 -1.3683 -0.4794
12480TIP3   OH258930   5.023   3.070  14.874  0.5022  0.9035 -0.1048
12480TIP3    H158931   5.054   3.152  14.914  0.2234  0.6815  0.5809
12480TIP3    H258932   4.983   3.022  14.947  2.1596 -0.6041 -0.1560
12481TIP3   OH258933   3.833   2.969   4.623  0.5039  0.7228  0.4368
12481TIP3    H158934   3.769   3.033   4.656  1.1462  2.2047 -1.1016
12481TIP3    H258935   3.918   3.010   4.640  0.8743  1.0567 -2.0362
12482TIP3   OH258936   0.036   5.225   1.007  0.0083 -0.7636 -0.6759
12482TIP3    H158937  -0.048   5.193   1.041  1.1487 -1.3779  1.6778
12482TIP3    H258938   0.020   5.317   0.987 -0.9902 -0.6270  0.6597
12483TIP3   OH258939   6.291   4.326  10.435  0.5000  0.7660  0.5074
12483TIP3    H158940   6.206   4.311  10.477 -2.1910 -0.7713 -5.0018
12483TIP3    H258941   6.290   4.418  10.410 -1.6971 -0.2863 -3.6375
12484TIP3   OH258942   2.574   1.426   3.615  0.0078  0.5029 -0.1769
12484TIP3    H158943   2.658   1.412   3.570 -0.0051 -1.0735  0.2556
12484TIP3    H258944   2.513   1.369   3.569 -0.0946 -0.8386  1.5552
12485TIP3   OH258945   4.246   0.596   5.003 -0.3588  0.0028  0.1666
12485TIP3    H158946   4.207   0.567   5.086 -1.7489  3.0291  0.6454
12485TIP3    H258947   4.300   0.671   5.027 -0.7899  0.9312 -1.6843
12486TIP3   OH258948   3.868   6.015   2.877  0.1270 -0.5813  0.4026
12486TIP3    H158949   3.847   5.970   2.959  1.4027  2.4260  2.4727
12486TIP3    H258950   3.957   5.985   2.855 -0.2689 -1.4941  0.0329
12487TIP3   OH258951   2.011   0.381  16.210  0.0005 -0.0716 -0.2491
12487TIP3    H158952   1.925   0.349  16.183  0.5104 -0.1360 -1.8551
12487TIP3    H258953   1.998   0.474  16.227 -0.5279 -0.2182  0.1372
12488TIP3   OH258954   2.905   5.188   0.106  0.0925 -0.0461 -0.4622
12488TIP3    H158955   2.891   5.277   0.137  0.8917  0.0031 -0.2181
12488TIP3    H258956   2.862   5.132   0.171  0.2220  0.1308 -0.2254
12489TIP3   OH258957   5.045   0.685  16.514  0.0426 -0.7941 -0.5377
12489TIP3    H158958   4.969   0.744  16.515  1.1262  0.6252  0.6138
12489TIP3    H258959   5.120   0.744  16.503  1.0792 -2.0535 -0.2661
12490TIP3   OH258960   1.142   4.685   0.364 -0.2782  0.3168  0.2604
12490TIP3    H158961   1.156   4.655   0.453  0.3527 -0.4558 -0.1028
12490TIP3    H258962   1.197   4.629   0.310  0.9835  2.1602 -0.4156
12491TIP3   OH258963   1.884   6.785  12.351 -0.0708 -0.0757  0.4173
12491TIP3    H158964   1.872   6.708  12.406  0.3952  0.6561  1.5786
12491TIP3    H258965   1.800   6.830  12.353 -0.4647 -0.7650 -0.5946
12492TIP3   OH258966   5.180   4.409   6.001  0.3673 -0.2392 -0.0437
12492TIP3    H158967   5.144   4.437   6.086  0.8483 -0.3733  0.2060
12492TIP3    H258968   5.169   4.485   5.944 -2.2381 -0.9458 -0.5588
12493TIP3   OH258969   0.818   6.088  10.865  0.0274  0.1744 -0.0197
12493TIP3    H158970   0.829   6.183  10.874 -0.0041  0.0716  1.1652
12493TIP3    H258971   0.789   6.075  10.775 -1.2277  1.3959  0.1982
12494TIP3   OH258972   1.819   2.129   2.812 -0.3488  0.4569  0.4454
12494TIP3    H158973   1.813   2.192   2.883 -1.2112 -1.5624  2.2253
12494TIP3    H258974   1.873   2.058   2.846 -0.3905 -0.3320 -1.0618
12495TIP3   OH258975   0.932   5.818  16.970  0.2412  0.1121  0.1084
12495TIP3    H158976   0.930   5.797  16.877  1.0596  0.3967  0.0182
12495TIP3    H258977   0.868   5.888  16.981  0.6997  0.6175 -0.3852
12496TIP3   OH258978   4.282   5.824   5.253  0.0792 -0.2162 -0.5633
12496TIP3    H158979   4.316   5.886   5.188 -0.3426  0.8648  0.2293
12496TIP3    H258980   4.273   5.876   5.332 -0.1643 -1.3397  0.1502
12497TIP3   OH258981   2.412   1.810  16.755 -0.1807 -0.3763  0.2023
12497TIP3    H158982   2.458   1.769  16.682  0.4963  1.5691 -0.5219
12497TIP3    H258983   2.410   1.743  16.824 -0.2521 -2.0053 -1.3696
12498TIP3   OH258984   3.124   1.236  16.740 -0.0745  0.1517 -0.5797
12498TIP3    H158985   3.056   1.281  16.690  0.8354  1.6684 -0.4928
12498TIP3    H258986   3.144   1.295  16.812  1.1998 -0.3634 -0.4942
12499TIP3   OH258987   0.001   4.607  11.144 -0.1289  0.3910 -0.3563
12499TIP3    H158988  -0.005   4.528  11.198  0.0524  0.1898 -0.6316
12499TIP3    H258989   0.010   4.575  11.054  0.0304  0.7237 -0.4610
12500TIP3   OH258990   2.416   3.505  14.545 -0.2155 -0.6088 -0.5462
12500TIP3    H158991   2.355   3.576  14.566 -1.1597 -1.4662 -0.3711
12500TIP3    H258992   2.464   3.537  14.468  0.4296  0.8415  0.4537
12501TIP3   OH258993   3.371   3.048   6.425  0.1612 -0.3502 -0.1815
12501TIP3    H158994   3.393   2.960   6.397 -1.8277 -0.8245 -0.3514
12501TIP3    H258995   3.446   3.076   6.477 -0.2232 -3.0916  1.9758
12502TIP3   OH258996   3.658   3.902   3.109 -0.6129  0.0998  0.3300
12502TIP3    H158997   3.652   3.838   3.180 -0.1891  0.4434  0.6788
12502TIP3    H258998   3.741   3.883   3.067  0.6912  1.9905  1.9745
12503TIP3   OH258999   3.173   4.049   1.988 -0.4003  0.2073  0.2049
12503TIP3    H159000   3.240   4.015   2.047  0.0073  0.6044 -0.0319
12503TIP3    H259001   3.102   3.984   1.993 -0.6986  0.6287  1.7203
12504TIP3   OH259002   4.715   0.799   4.570 -0.4091  0.5281 -0.1888
12504TIP3    H159003   4.739   0.830   4.657 -0.4031 -0.0993  0.0402
12504TIP3    H259004   4.704   0.878   4.518 -1.6066  0.9732  0.6989
12505TIP3   OH259005   2.648   0.371  15.389  0.1125  0.3164 -0.3002
12505TIP3    H159006   2.671   0.291  15.436  0.5463  0.6178 -0.0035
12505TIP3    H259007   2.657   0.347  15.296  0.2696  0.0282 -0.2115
12506TIP3   OH259008   1.901   6.514  11.148  0.5030 -0.1465 -0.3563
12506TIP3    H159009   1.992   6.517  11.178  0.3763 -0.4338  0.0466
12506TIP3    H259010   1.901   6.449  11.077  0.3851 -0.9799  0.4011
12507TIP3   OH259011   3.360   1.261  15.035  0.4840 -0.3353  0.3785
12507TIP3    H159012   3.402   1.347  15.033  0.6680 -0.4533 -1.5552
12507TIP3    H259013   3.395   1.215  14.959 -0.0597 -1.9190  1.0590
12508TIP3   OH259014   5.952   3.319   3.666 -0.1343 -0.3702 -0.4545
12508TIP3    H159015   5.881   3.318   3.601 -0.4907  0.8175 -0.1094
12508TIP3    H259016   5.906   3.323   3.751  0.3263 -1.8461 -0.1328
12509TIP3   OH259017   5.366   3.593   4.483 -0.3129  0.2440  0.2604
12509TIP3    H159018   5.446   3.605   4.432 -0.4024  0.5279  0.1863
12509TIP3    H259019   5.316   3.527   4.435  0.8702 -1.5845  1.4779
12510TIP3   OH259020   3.061   5.238  15.625 -0.4030  0.1747  0.1388
12510TIP3    H159021   3.156   5.236  15.621 -0.3083 -0.6184  2.0273
12510TIP3    H259022   3.040   5.322  15.665 -0.3437 -0.8000  2.2864
12511TIP3   OH259023   4.761   6.717  11.866  0.3461  0.2486  0.7049
12511TIP3    H159024   4.695   6.780  11.835 -0.3051 -0.5409  0.4523
12511TIP3    H259025   4.843   6.747  11.827 -0.0049  0.7936  0.3733
12512TIP3   OH259026   3.228   2.002  11.790 -0.0047  0.3394 -0.3839
12512TIP3    H159027   3.207   2.095  11.777  2.2358  0.6917 -1.8325
12512TIP3    H259028   3.158   1.969  11.845 -1.2442  2.7304 -0.4573
12513TIP3   OH259029   3.747   4.391   2.261 -0.6453  0.0879 -0.2560
12513TIP3    H159030   3.725   4.349   2.344 -0.2193 -0.6063 -0.4907
12513TIP3    H259031   3.735   4.484   2.278 -0.9619 -0.0760  0.4643
12514TIP3   OH259032   4.567   1.554  14.936 -0.1793  0.3950 -0.5294
12514TIP3    H159033   4.504   1.495  14.979  1.6247 -0.8869  0.3849
12514TIP3    H259034   4.544   1.641  14.971 -1.2521 -0.0872  0.0228
12515TIP3   OH259035   1.202   0.530   3.264  0.0611 -0.1221  0.0885
12515TIP3    H159036   1.211   0.542   3.358  0.5969  1.8364 -0.1753
12515TIP3    H259037   1.245   0.607   3.226 -0.4795 -0.6893 -1.7364
12516TIP3   OH259038   4.940   6.599  14.218  0.2138  0.2690  0.0264
12516TIP3    H159039   4.940   6.695  14.220 -0.1436  0.3305 -1.8936
12516TIP3    H259040   4.862   6.577  14.166  0.6488 -1.0434 -0.0609
12517TIP3   OH259041   6.096   5.035   4.125  0.2426 -0.2341  0.1421
12517TIP3    H159042   6.137   4.999   4.204  0.3029 -0.8917 -0.1932
12517TIP3    H259043   6.007   5.001   4.127 -0.5881  1.8761  1.3242
12518TIP3   OH259044   4.315   0.939  10.773 -0.2900  0.4091 -0.0883
12518TIP3    H159045   4.333   0.853  10.735  0.6496  1.3488 -1.8665
12518TIP3    H259046   4.364   0.940  10.855  0.9198 -0.2329 -0.7798
12519TIP3   OH259047   2.919   4.868  16.998  0.3003  0.2955  0.2130
12519TIP3    H159048   2.885   4.779  17.003  0.5684  0.1648 -0.2290
12519TIP3    H259049   2.880   4.913  17.073 -0.9493  0.1770 -0.3448
12520TIP3   OH259050   1.696   6.209  15.168 -0.6475  0.6237 -0.5116
12520TIP3    H159051   1.725   6.213  15.077 -0.5466  0.2059 -0.4981
12520TIP3    H259052   1.758   6.265  15.215 -0.6339  0.7527 -0.6837
12521TIP3   OH259053   2.553   6.440   1.953 -0.2260 -0.0530 -0.0233
12521TIP3    H159054   2.510   6.486   2.025  0.1915  0.0013  0.1896
12521TIP3    H259055   2.647   6.454   1.967 -0.1156 -0.5505 -0.2328
12522TIP3   OH259056   5.644   4.449   0.229 -0.3346 -0.0065 -0.3376
12522TIP3    H159057   5.728   4.429   0.187 -0.2474 -0.4618  0.0621
12522TIP3    H259058   5.580   4.443   0.158  0.1438  1.7023 -0.9553
12523TIP3   OH259059   4.103   5.030   6.764 -0.1924 -0.1493 -0.5240
12523TIP3    H159060   4.054   4.972   6.705 -0.5560  2.4635 -2.9185
12523TIP3    H259061   4.038   5.095   6.792  0.8166  0.6322  0.0096
12524TIP3   OH259062   5.035   5.836  14.896 -0.0488  0.1992 -0.4275
12524TIP3    H159063   5.103   5.772  14.874  0.6468  0.3456  1.2533
12524TIP3    H259064   4.955   5.784  14.907  0.4812 -0.3641  0.7908
12525TIP3   OH259065   0.805   4.885   4.596  0.0192  0.0137  0.5389
12525TIP3    H159066   0.839   4.806   4.553 -2.1657 -1.4654  1.4702
12525TIP3    H259067   0.821   4.871   4.689 -0.6770  0.5252  0.7386
12526TIP3   OH259068   2.084   0.090  12.091 -0.4918  0.3899 -0.1956
12526TIP3    H159069   2.054   0.148  12.161  0.6082 -0.3370  0.9089
12526TIP3    H259070   2.064   0.002  12.123  0.0040  0.0533 -0.8046
12527TIP3   OH259071   4.463   5.191  13.822  0.1274  0.4996  0.1861
12527TIP3    H159072   4.421   5.116  13.863  0.0652  1.0781  1.2145
12527TIP3    H259073   4.545   5.202  13.871  0.3341  0.8503 -0.2288
12528TIP3   OH259074   4.799   1.412   2.828  0.1680  0.1819  0.3879
12528TIP3    H159075   4.787   1.372   2.742 -1.3028 -1.0424  1.1222
12528TIP3    H259076   4.854   1.488   2.812 -1.1780  0.7414 -1.8595
12529TIP3   OH259077   3.415   1.580   6.828  0.0849  0.4962  0.0629
12529TIP3    H159078   3.371   1.540   6.753 -1.3303  1.5367  0.3164
12529TIP3    H259079   3.419   1.511   6.893 -0.7378  0.2574 -0.1417
12530TIP3   OH259080   2.740   6.601  14.145  0.4838  0.3712 -0.4478
12530TIP3    H159081   2.688   6.678  14.126  2.3256  1.2472 -2.1463
12530TIP3    H259082   2.731   6.588  14.239 -2.1925  0.8855 -0.5940
12531TIP3   OH259083   5.404   5.963  12.680 -0.2862  0.6744  0.3217
12531TIP3    H159084   5.425   6.056  12.691 -0.2694  0.6145  0.8206
12531TIP3    H259085   5.464   5.933  12.612 -1.0758  1.2914 -0.6574
12532TIP3   OH259086   0.791   5.351  14.205 -0.1750  0.2055  0.3443
12532TIP3    H159087   0.854   5.298  14.253 -0.8551 -0.4587  0.5147
12532TIP3    H259088   0.827   5.358  14.117 -0.8287 -1.8209 -0.0945
12533TIP3   OH259089   1.901   1.471   5.357  0.0907 -0.5243 -0.3385
12533TIP3    H159090   1.922   1.472   5.263  0.6332 -2.0828 -0.2499
12533TIP3    H259091   1.962   1.534   5.395  0.7105 -0.7771 -0.8846
12534TIP3   OH259092   1.194   6.007   0.067  0.3912 -0.3454 -0.0253
12534TIP3    H159093   1.125   5.948   0.037 -0.6570  0.8865 -0.0491
12534TIP3    H259094   1.232   6.041  -0.014  0.3151 -0.1987  0.0010
12535TIP3   OH259095   0.031   0.722  13.548  0.1999  0.5754 -0.3111
12535TIP3    H159096   0.106   0.721  13.607 -0.0439 -1.8665  0.0248
12535TIP3    H259097   0.040   0.641  13.497 -1.9751  0.4410 -0.5267
12536TIP3   OH259098   0.950   3.503  17.247  0.0313  0.6178  0.4344
12536TIP3    H159099   0.993   3.432  17.294  1.7930  0.2941 -1.6019
12536TIP3    H259100   0.958   3.579  17.304  1.5816  0.0923  0.9308
12537TIP3   OH259101   4.762   6.290  10.599  0.3011  0.7562  0.7356
12537TIP3    H159102   4.699   6.295  10.670  0.2484 -0.7942  0.8073
12537TIP3    H259103   4.847   6.302  10.642  0.1445  1.8653  0.7662
12538TIP3   OH259104   2.549   4.580  14.409 -0.0429  0.6389 -0.2812
12538TIP3    H159105   2.512   4.602  14.324  0.3929  0.7295 -0.4501
12538TIP3    H259106   2.486   4.521  14.449  0.3126 -0.3439 -1.1554
12539TIP3   OH259107   1.256   5.099  12.083  0.0832 -0.0408  0.8567
12539TIP3    H159108   1.306   5.018  12.091  0.6500  0.1918 -0.2019
12539TIP3    H259109   1.189   5.080  12.017  0.2252  0.3522  0.5952
12540TIP3   OH259110   4.463   0.986  11.017 -0.5866  0.2239 -0.2398
12540TIP3    H159111   4.529   0.917  11.016  0.0366  0.7834 -2.9376
12540TIP3    H259112   4.481   1.036  11.096  0.1112 -1.5843  0.7805
12541TIP3   OH259113   0.946   5.868   2.313 -0.3409 -0.3458 -0.4953
12541TIP3    H159114   1.016   5.812   2.349 -1.4527 -1.0552  0.5876
12541TIP3    H259115   0.865   5.822   2.335 -1.1719  0.6050 -1.5218
12542TIP3   OH259116   2.326   6.023  15.531  0.0880  0.1147 -0.0848
12542TIP3    H159117   2.246   6.014  15.479  0.2164  1.1274 -0.4570
12542TIP3    H259118   2.395   6.034  15.467  0.5727 -1.0508  0.2298
12543TIP3   OH259119   1.708   6.032   3.822  0.2306  0.5164  0.2962
12543TIP3    H159120   1.657   5.951   3.821 -1.9846  1.8405  2.2400
12543TIP3    H259121   1.763   6.026   3.900 -0.0440  0.9509  0.5260
12544TIP3   OH259122   2.550   1.209  13.901  0.0610 -0.2295 -0.5131
12544TIP3    H159123   2.623   1.265  13.873  0.0441 -0.3427 -0.7834
12544TIP3    H259124   2.583   1.120  13.890  0.0360 -0.2730 -0.2211
12545TIP3   OH259125   3.687   3.221   5.555  0.8180 -0.5768 -0.1470
12545TIP3    H159126   3.674   3.239   5.462 -0.5686 -2.6842 -0.4035
12545TIP3    H259127   3.666   3.303   5.599  0.5684  0.1649 -1.6126
12546TIP3   OH259128   5.571   2.457   5.918  0.1380 -0.1281 -0.3215
12546TIP3    H159129   5.621   2.462   5.836 -0.9651  0.0532 -0.9933
12546TIP3    H259130   5.525   2.541   5.923  0.0352 -0.2266  0.3778
12547TIP3   OH259131   0.587   2.479   5.340  0.5519 -0.2117 -0.1957
12547TIP3    H159132   0.504   2.453   5.380  1.5170  0.1046  2.0703
12547TIP3    H259133   0.615   2.402   5.289  0.4788 -1.5103  1.6834
12548TIP3   OH259134   0.849   3.979   2.598 -0.5491  0.1036 -0.1184
12548TIP3    H159135   0.889   3.942   2.520  1.2693 -0.4792  1.0680
12548TIP3    H259136   0.903   4.054   2.620 -0.0615 -0.6903  1.5030
12549TIP3   OH259137   1.056   6.577  16.372 -0.2488  0.4836  0.6957
12549TIP3    H159138   1.089   6.648  16.317  0.7516 -1.6313 -1.5643
12549TIP3    H259139   0.961   6.581  16.361 -0.2587  1.8983  1.1652
12550TIP3   OH259140   2.239   2.252   0.372 -0.3967 -0.0558  0.2715
12550TIP3    H159141   2.264   2.304   0.448 -2.8724  0.2189  0.9328
12550TIP3    H259142   2.230   2.163   0.406  0.0328 -0.2261 -0.0486
12551TIP3   OH259143   0.060   0.999  16.437 -0.4052 -0.2634 -0.3560
12551TIP3    H159144   0.143   0.957  16.460 -0.2791  0.0569 -0.2250
12551TIP3    H259145  -0.004   0.963  16.499 -0.4148 -0.7059 -0.6242
12552TIP3   OH259146   0.376   4.221   2.690  0.3117 -0.2788 -0.1590
12552TIP3    H159147   0.465   4.211   2.655  1.5358  0.0517  2.6792
12552TIP3    H259148   0.381   4.301   2.743 -1.6924 -0.2698  0.0318
12553TIP3   OH259149   2.167   1.012  13.734  0.0304  0.6583 -0.2819
12553TIP3    H159150   2.231   1.049  13.673  0.3393  1.3848  0.4736
12553TIP3    H259151   2.164   1.074  13.807  0.5096 -0.7547  0.9766
12554TIP3   OH259152   5.175   4.682   5.549  0.0847 -0.4093 -0.1100
12554TIP3    H159153   5.128   4.611   5.592  0.1205 -0.5111 -0.2394
12554TIP3    H259154   5.264   4.649   5.538  1.0828  0.9773  3.0918
12555TIP3   OH259155   3.068   5.070   0.580 -0.3274 -0.5882 -0.0117
12555TIP3    H159156   3.145   5.023   0.613 -1.0394 -1.8499 -0.1273
12555TIP3    H259157   3.088   5.086   0.488 -0.3306 -1.1976 -0.1222
12556TIP3   OH259158   0.273   5.920   0.264 -0.3692  0.3235  0.2327
12556TIP3    H159159   0.319   5.973   0.198  0.9521  0.5013  1.2788
12556TIP3    H259160   0.200   5.881   0.216  1.8681 -1.3969 -1.9230
12557TIP3   OH259161   4.084   0.732  14.192  0.2149  0.1093 -0.0575
12557TIP3    H159162   4.172   0.710  14.222  0.2323 -0.5478 -0.5646
12557TIP3    H259163   4.026   0.695  14.259  0.2967 -0.2167 -0.1651
12558TIP3   OH259164   2.368   5.053  10.480  0.7232 -0.3288 -0.4839
12558TIP3    H159165   2.415   4.979  10.442 -1.2270 -1.2031 -1.2083
12558TIP3    H259166   2.347   5.109  10.406 -0.0386 -0.3193 -0.2666
12559TIP3   OH259167   6.094   6.266  14.238 -0.5771  0.3176 -0.1302
12559TIP3    H159168   6.040   6.197  14.199 -0.1707 -0.2199  0.2437
12559TIP3    H259169   6.181   6.251  14.202 -0.3950  0.3701  0.2899
12560TIP3   OH259170   6.674   6.795   3.930 -0.0707 -0.8519 -0.1236
12560TIP3    H159171   6.665   6.757   3.842 -0.1328 -2.4136  0.5381
12560TIP3    H259172   6.588   6.782   3.970 -1.0525  2.6808 -0.8738
12561TIP3   OH259173   0.974   5.374   5.526  0.0003  0.2248  0.2775
12561TIP3    H159174   0.898   5.424   5.497 -0.9970 -1.5613 -0.2951
12561TIP3    H259175   1.025   5.359   5.446  1.0968  1.6205  0.6973
12562TIP3   OH259176   5.147   1.175   5.562  0.2010 -0.3039  0.2572
12562TIP3    H159177   5.072   1.233   5.574  1.0676  1.0826 -0.8651
12562TIP3    H259178   5.117   1.112   5.496 -0.4906 -0.6946  0.9350
12563TIP3   OH259179   1.601   2.880   4.755 -0.0379  0.1194 -0.2406
12563TIP3    H159180   1.539   2.888   4.828 -0.2732  0.8225 -0.5077
12563TIP3    H259181   1.569   2.805   4.705  1.8977 -2.2834  2.0361
12564TIP3   OH259182   6.785   1.975  16.096  0.2647  0.2350  0.4760
12564TIP3    H159183   6.767   1.895  16.046 -1.2269  0.8505 -0.0050
12564TIP3    H259184   6.735   2.043  16.051  1.6034  1.4770  0.8103
12565TIP3   OH259185   6.576   1.378  12.326  0.0970  0.7400  0.2415
12565TIP3    H159186   6.628   1.298  12.323 -1.4172 -0.2378 -0.6844
12565TIP3    H259187   6.639   1.447  12.347  2.0539 -0.1481 -2.4843
12566TIP3   OH259188   4.613   6.370   5.336  1.2680 -0.1634  0.7510
12566TIP3    H159189   4.591   6.446   5.283 -1.0575 -1.4593 -0.2085
12566TIP3    H259190   4.546   6.368   5.404  1.8955 -0.7897  1.3569
12567TIP3   OH259191   3.563   2.317  14.095  0.2125  0.6322 -0.5240
12567TIP3    H159192   3.514   2.290  14.173 -0.2301  2.1250 -0.2567
12567TIP3    H259193   3.648   2.275  14.104  0.0424  0.5150  0.6053
12568TIP3   OH259194   0.109   4.388  13.361  0.6589 -0.7368  0.2974
12568TIP3    H159195   0.158   4.322  13.410  0.6279 -1.2933 -0.4119
12568TIP3    H259196   0.147   4.472  13.388  0.8080 -1.0472  1.0794
12569TIP3   OH259197   3.967   5.253  11.317 -0.0267  0.1073 -0.4572
12569TIP3    H159198   3.964   5.290  11.405 -1.7970 -0.0511 -0.4326
12569TIP3    H259199   4.040   5.298  11.274 -0.1706  1.3358  0.5662
12570TIP3   OH259200   0.392   5.431   2.091  0.0599  0.3194 -0.0932
12570TIP3    H159201   0.451   5.414   2.164 -0.9427 -0.8173  0.4674
12570TIP3    H259202   0.450   5.461   2.020  1.1646  0.3374  0.8057
12571TIP3   OH259203   0.529   5.158   2.525  0.0792 -0.3142 -0.0076
12571TIP3    H159204   0.446   5.127   2.561 -0.5719 -1.4370 -2.3747
12571TIP3    H259205   0.592   5.146   2.596 -1.7343  0.4162  1.7594
12572TIP3   OH259206   5.708   1.438   0.006 -0.4636 -0.0629 -0.2544
12572TIP3    H159207   5.722   1.513  -0.052 -0.4987  0.8121  0.8376
12572TIP3    H259208   5.719   1.474   0.094  1.3747 -1.7422  0.2520
12573TIP3   OH259209   1.374   1.463   1.483  0.0403  0.3999  0.1204
12573TIP3    H159210   1.405   1.422   1.563 -0.5042  0.1100  0.1900
12573TIP3    H259211   1.392   1.399   1.414 -0.0086  0.4091  0.0986
12574TIP3   OH259212   5.916   2.468   2.271 -0.0453  0.4675 -0.2208
12574TIP3    H159213   5.980   2.426   2.213  1.7966  0.3491  1.8043
12574TIP3    H259214   5.867   2.396   2.309  0.1775  0.4009 -0.0552
12575TIP3   OH259215   0.810   4.796  15.381  0.0381  0.2272  0.5570
12575TIP3    H159216   0.759   4.733  15.432  0.6207  0.4893  1.4859
12575TIP3    H259217   0.746   4.838  15.323 -0.6972  0.1295  1.2879
12576TIP3   OH259218   3.197   5.443  17.203 -0.1934 -0.1642 -0.5823
12576TIP3    H159219   3.271   5.499  17.181 -0.3970  0.5791  0.5808
12576TIP3    H259220   3.190   5.383  17.129  1.6153 -0.2946 -0.6742
12577TIP3   OH259221   6.602   0.572   0.779  0.8603 -0.2787  0.1092
12577TIP3    H159222   6.644   0.541   0.698  0.9723 -0.9011  0.4036
12577TIP3    H259223   6.591   0.493   0.832 -0.2526 -0.0460  0.2379
12578TIP3   OH259224   3.682   6.260   5.944 -0.2691  0.0242 -0.1037
12578TIP3    H159225   3.738   6.191   5.909 -2.0337 -2.3582  1.6116
12578TIP3    H259226   3.682   6.246   6.038 -1.9921  1.3311  0.1235
12579TIP3   OH259227   4.068   2.016   1.543 -0.8222  0.2684  0.4415
12579TIP3    H159228   4.053   1.924   1.567 -0.6362  0.0154 -0.3932
12579TIP3    H259229   4.051   2.065   1.623  0.7174 -0.6377  1.3457
12580TIP3   OH259230   0.027   6.222  15.441  0.0444  0.0510 -0.0759
12580TIP3    H159231   0.047   6.176  15.523 -0.7062  2.2913  1.4012
12580TIP3    H259232  -0.068   6.233  15.442  0.2970  2.4235  0.0396
12581TIP3   OH259233   4.826   3.916  15.342 -0.1544  0.3971 -0.6815
12581TIP3    H159234   4.808   3.908  15.248  1.1254 -0.3880 -0.8670
12581TIP3    H259235   4.754   3.869  15.384 -0.5878  0.5279 -1.2667
12582TIP3   OH259236   1.409   3.217   2.868 -0.1343  0.3900 -0.2163
12582TIP3    H159237   1.330   3.256   2.906  0.1404 -0.3163  1.0772
12582TIP3    H259238   1.391   3.215   2.774 -1.2545  1.1335 -0.0304
12583TIP3   OH259239   3.623   5.475   3.501 -0.0862 -0.7305 -0.0607
12583TIP3    H159240   3.684   5.486   3.575 -0.2525 -0.6534  0.0646
12583TIP3    H259241   3.669   5.515   3.427 -1.4524  2.6258  0.7767
12584TIP3   OH259242   5.740   1.427   6.353  0.9783  0.4903  0.2084
12584TIP3    H159243   5.824   1.456   6.317 -0.0429  2.4516 -0.6278
12584TIP3    H259244   5.698   1.507   6.385 -0.5856 -0.4681  0.6016
12585TIP3   OH259245   0.485   5.485   2.635 -0.1443  0.1224  0.2202
12585TIP3    H159246   0.452   5.410   2.685  0.2994 -1.4214 -1.7291
12585TIP3    H259247   0.527   5.541   2.701  0.7636 -2.0453  1.5314
12586TIP3   OH259248   3.644   6.039  15.405  0.4260  0.4666 -0.1626
12586TIP3    H159249   3.683   6.012  15.321  1.3334  0.3160  0.3050
12586TIP3    H259250   3.638   6.134  15.399  2.6378  0.6762  0.5094
12587TIP3   OH259251   5.781   6.308   4.273 -0.0025 -0.4678 -0.3642
12587TIP3    H159252   5.797   6.399   4.301  0.4191 -0.7680  0.3732
12587TIP3    H259253   5.722   6.273   4.339  1.5649 -1.4025  0.5607
12588TIP3   OH259254   1.445   2.325   5.729 -0.4905  0.3056  0.2248
12588TIP3    H159255   1.389   2.309   5.806 -0.1892  1.5913  0.7223
12588TIP3    H259256   1.447   2.420   5.721  0.2372  0.2008 -0.8370
12589TIP3   OH259257   2.972   6.393   5.227  0.3719 -0.3524  1.4201
12589TIP3    H159258   3.060   6.383   5.261  0.0001  2.3719  3.4270
12589TIP3    H259259   2.921   6.423   5.302 -2.0883 -1.0877  0.1068
12590TIP3   OH259260   5.354   5.810   4.732 -0.3071 -0.3616  0.3330
12590TIP3    H159261   5.289   5.855   4.679 -0.3977 -0.1021  0.6667
12590TIP3    H259262   5.389   5.877   4.790 -0.8841 -0.8489  1.2546
12591TIP3   OH259263   2.200   3.484   3.028 -0.1121  0.1879 -0.2195
12591TIP3    H159264   2.198   3.471   2.934 -1.9415 -2.6961  0.1658
12591TIP3    H259265   2.123   3.538   3.046 -0.3067 -0.0729 -0.2682
12592TIP3   OH259266   6.194   3.603  11.417 -0.2543 -0.4007 -0.1223
12592TIP3    H159267   6.275   3.562  11.387 -0.6459 -1.4279  0.1865
12592TIP3    H259268   6.210   3.697  11.410  0.7865 -0.6039 -0.5242
12593TIP3   OH259269   1.824   5.712   3.633 -0.0168  0.1139 -0.0871
12593TIP3    H159270   1.753   5.688   3.693  1.1174  1.1687  1.7115
12593TIP3    H259271   1.782   5.717   3.547 -1.7837 -0.8731  0.6979
12594TIP3   OH259272   4.222   1.794  16.628 -0.1807  0.5731  0.1614
12594TIP3    H159273   4.197   1.786  16.536 -0.8224 -2.0573  0.5264
12594TIP3    H259274   4.154   1.848  16.667 -0.3854  0.9579 -0.7122
12595TIP3   OH259275   4.764   6.058  12.264 -0.2798 -0.5487  0.0571
12595TIP3    H159276   4.771   5.973  12.308 -0.6377 -0.8490 -0.4465
12595TIP3    H259277   4.854   6.089  12.257 -0.2760 -0.1731  1.6037
12596TIP3   OH259278   1.436   2.750   3.462  0.2195 -0.1040  0.5201
12596TIP3    H159279   1.515   2.759   3.514  1.5282  0.1095 -1.4518
12596TIP3    H259280   1.453   2.801   3.383 -2.4562  1.1393  0.6850
12597TIP3   OH259281   0.626   6.181   1.889 -0.2596 -0.1409 -0.3641
12597TIP3    H159282   0.710   6.181   1.842 -0.2602 -2.1655 -0.4025
12597TIP3    H259283   0.641   6.237   1.965  1.0386 -0.2340 -0.5388
12598TIP3   OH259284   1.928   6.721  16.921  0.1858  0.3372 -0.2687
12598TIP3    H159285   1.879   6.734  16.839  0.1780 -1.9035 -0.6511
12598TIP3    H259286   1.946   6.627  16.923  1.4723  0.6092  1.5947
12599TIP3   OH259287   1.201   6.547  15.861 -0.2791 -0.5790 -0.0032
12599TIP3    H159288   1.243   6.523  15.943  1.0944  0.8743 -0.2552
12599TIP3    H259289   1.271   6.547  15.796 -0.6548  1.7778 -0.4512
12600TIP3   OH259290   0.021   6.222   3.700  0.2706 -0.3445 -0.6561
12600TIP3    H159291  -0.001   6.173   3.620  2.5141 -2.1624 -0.2181
12600TIP3    H259292   0.109   6.256   3.684  0.1463  0.5386  0.4623
12601TIP3   OH259293   2.703   3.054   0.497  0.0601 -0.3652  0.5550
12601TIP3    H159294   2.629   3.033   0.554  0.0024 -1.4288  0.1082
12601TIP3    H259295   2.686   3.143   0.467 -1.4651 -0.8969 -0.1908
12602TIP3   OH259296   5.114   1.239   1.983 -0.5900  0.2648 -0.2405
12602TIP3    H159297   5.204   1.229   1.953  0.6257 -0.9690  3.5315
12602TIP3    H259298   5.106   1.332   2.005 -0.2360  0.3657 -0.5347
12603TIP3   OH259299   1.551   5.180  16.549 -0.3001 -0.8528 -0.3171
12603TIP3    H159300   1.556   5.143  16.461  0.9906 -2.0035  0.2094
12603TIP3    H259301   1.638   5.215  16.566 -0.8442  0.3301  0.1088
12604TIP3   OH259302   5.732   2.559  12.665 -0.5712  0.1389 -0.3090
12604TIP3    H159303   5.769   2.472  12.654 -0.9143  0.0657 -0.9168
12604TIP3    H259304   5.804   2.619  12.647  0.0410 -0.0226  1.5260
12605TIP3   OH259305   2.315   1.809   6.465  0.3274 -0.5098  0.8078
12605TIP3    H159306   2.221   1.800   6.446  0.3648  1.2825 -0.3437
12605TIP3    H259307   2.323   1.784   6.557 -1.2089 -1.0671  0.8132
12606TIP3   OH259308   4.100   3.141  12.823  0.3003 -0.7216 -0.2326
12606TIP3    H159309   4.163   3.108  12.758  0.6099 -0.5960  0.0006
12606TIP3    H259310   4.119   3.234  12.830 -0.6828 -0.4564 -1.0080
12607TIP3   OH259311   0.884   0.552   3.300  0.0242  0.0887 -0.1486
12607TIP3    H159312   0.858   0.504   3.222  0.1049  1.6429 -1.1492
12607TIP3    H259313   0.823   0.625   3.306  0.7126  0.6204  0.5983
12608TIP3   OH259314   2.388   6.062  12.717  0.1512 -0.5004 -0.8747
12608TIP3    H159315   2.307   6.041  12.669 -0.4418 -0.6732  0.1799
12608TIP3    H259316   2.412   5.980  12.760  0.5457 -0.2804 -0.6781
12609TIP3   OH259317   3.442   3.490   1.126  0.1869  0.4283 -0.0470
12609TIP3    H159318   3.392   3.565   1.155  1.8831  1.3999  0.4527
12609TIP3    H259319   3.530   3.524   1.110  0.6457 -1.1741 -1.1249
12610TIP3   OH259320   2.574   4.277  12.195  0.2851 -0.4227  0.3611
12610TIP3    H159321   2.558   4.244  12.283  0.1773 -0.4527  0.3325
12610TIP3    H259322   2.537   4.209  12.138  0.8761 -0.6798  0.2796
12611TIP3   OH259323   6.374   1.326  10.367  0.2096  0.1450 -0.1044
12611TIP3    H159324   6.419   1.403  10.401  1.2086 -0.1859 -0.6674
12611TIP3    H259325   6.444   1.265  10.344 -0.5591 -0.7635 -0.0603
12612TIP3   OH259326   6.159   2.158  15.112  0.0458 -0.1809  0.1205
12612TIP3    H159327   6.157   2.249  15.142  1.5962 -0.3929  0.9068
12612TIP3    H259328   6.252   2.136  15.106 -0.2897 -2.3262  1.9286
12613TIP3   OH259329   1.604   4.237  11.788  0.2769 -0.5763  0.1974
12613TIP3    H159330   1.566   4.299  11.726  0.1879 -0.7167  0.1103
12613TIP3    H259331   1.698   4.252  11.784  0.1876  0.1575  0.8229
12614TIP3   OH259332   4.051   5.976  14.075 -0.3576  0.6067  0.3983
12614TIP3    H159333   4.045   5.950  14.167  0.6849 -0.3652  0.2138
12614TIP3    H259334   4.010   5.904  14.027  0.3122  0.4613  0.0293
12615TIP3   OH259335   0.408   6.129  13.022  0.1787 -0.2794  0.2574
12615TIP3    H159336   0.469   6.179  12.968 -0.5123 -0.6764 -0.9105
12615TIP3    H259337   0.412   6.170  13.108  1.3822  0.2861 -0.0639
12616TIP3   OH259338   2.233   4.983  10.682  0.3267 -0.8633  0.3012
12616TIP3    H159339   2.268   5.013  10.598 -0.1427  0.3373  0.5297
12616TIP3    H259340   2.310   4.952  10.730  0.6916 -0.8842 -0.2994
12617TIP3   OH259341   5.742   1.184  15.164 -0.1748 -0.7469  0.4549
12617TIP3    H159342   5.691   1.217  15.238  0.5768 -0.5349  0.8814
12617TIP3    H259343   5.735   1.252  15.097 -0.4466 -0.7174  0.5143
12618TIP3   OH259344   2.899   0.591   5.778 -0.5437 -0.3335  0.2265
12618TIP3    H159345   2.890   0.656   5.708  1.5546 -0.4649 -0.1863
12618TIP3    H259346   2.892   0.506   5.733  1.6696 -0.4271  0.0279
12619TIP3   OH259347   2.183   4.719   2.244  0.0324  0.1118  0.3044
12619TIP3    H159348   2.240   4.758   2.310 -0.4111 -0.5463  1.0813
12619TIP3    H259349   2.175   4.627   2.270 -2.0695  0.3758  0.7131
12620TIP3   OH259350   4.691   6.017   2.086  0.1700 -0.5839  0.2066
12620TIP3    H159351   4.625   5.959   2.122  0.3140 -2.2115 -2.0318
12620TIP3    H259352   4.752   6.032   2.158 -1.4545 -0.8018  1.6653
12621TIP3   OH259353   3.195   2.518  14.552 -0.2597 -0.1579  0.2505
12621TIP3    H159354   3.262   2.486  14.492  0.5128 -0.4045  1.2323
12621TIP3    H259355   3.206   2.465  14.631 -1.8001 -0.3985  0.3196
12622TIP3   OH259356   2.018   2.556  13.309  0.4390 -0.2652  0.1956
12622TIP3    H159357   1.941   2.507  13.337  1.7100 -2.9340 -0.8374
12622TIP3    H259358   1.984   2.641  13.280 -2.0786 -1.3915 -0.2051
12623TIP3   OH259359   5.167   5.784  17.246  0.0290  0.0705 -0.0068
12623TIP3    H159360   5.188   5.729  17.322 -0.2811 -0.9755 -0.6691
12623TIP3    H259361   5.239   5.770  17.185  1.4552  2.6667  0.9947
12624TIP3   OH259362   1.893   0.982  11.721  0.5833  0.6109  0.5026
12624TIP3    H159363   1.816   1.031  11.694 -0.2208 -0.3286  1.0619
12624TIP3    H259364   1.866   0.890  11.716  1.7778  0.2560  0.3555
12625TIP3   OH259365   1.433   0.326   5.835 -0.1851  0.3874  0.2495
12625TIP3    H159366   1.486   0.398   5.869  0.7325  0.2733 -0.9231
12625TIP3    H259367   1.471   0.306   5.750 -1.4716 -0.3897 -0.1574
12626TIP3   OH259368   1.057   2.952   1.078 -0.3231 -0.0138  0.3176
12626TIP3    H159369   1.098   2.896   1.011 -0.6761  0.1167 -0.0120
12626TIP3    H259370   1.041   2.893   1.151 -0.4671 -0.2909  0.0646
12627TIP3   OH259371   2.924   0.933   2.061  0.1828  0.4109  0.0200
12627TIP3    H159372   2.877   0.960   1.983 -2.0197  0.5166  1.3399
12627TIP3    H259373   2.891   0.990   2.131  0.4151 -1.1668  1.4708
12628TIP3   OH259374   0.193   0.924   0.635 -0.5379 -0.1311 -0.2345
12628TIP3    H159375   0.168   0.867   0.563  1.3248 -1.0138 -0.2069
12628TIP3    H259376   0.227   0.865   0.702 -2.7931  0.6092  1.6542
12629TIP3   OH259377   3.026   4.622   0.682  0.1981  0.8496  0.3139
12629TIP3    H159378   3.117   4.600   0.704  0.8759  0.2253 -2.8795
12629TIP3    H259379   3.032   4.678   0.605 -2.1121  1.1075  0.2812
12630TIP3   OH259380   5.900   5.083  12.922 -0.2532  0.1005 -0.3833
12630TIP3    H159381   5.908   5.163  12.973  1.1709  0.6809 -1.4858
12630TIP3    H259382   5.807   5.060  12.928 -0.0298 -0.2150  2.9278
12631TIP3   OH259383   5.565   2.322  16.651 -0.3562  0.3312 -0.4050
12631TIP3    H159384   5.540   2.278  16.732  1.5543  1.0401  0.5778
12631TIP3    H259385   5.550   2.256  16.583 -2.6489 -0.0435  0.3951
12632TIP3   OH259386   4.677   6.373  16.408  0.2812 -0.4554 -0.1056
12632TIP3    H159387   4.661   6.460  16.445  2.0540  0.7761 -2.1439
12632TIP3    H259388   4.589   6.337  16.394 -0.4653  0.3021  2.2539
12633TIP3   OH259389   5.358   2.276  11.883  0.3523  0.3494  0.2651
12633TIP3    H159390   5.322   2.253  11.969  0.6903 -1.2926 -0.0139
12633TIP3    H259391   5.325   2.364  11.867 -0.6905  0.2257  1.5590
12634TIP3   OH259392   5.288   6.738   5.104 -0.1318 -0.4651 -0.2885
12634TIP3    H159393   5.348   6.812   5.093 -1.3891  0.7214  0.6907
12634TIP3    H259394   5.301   6.685   5.025  0.5422  0.9627 -1.1574
12635TIP3   OH259395   3.849   6.411  11.167  0.5850 -0.2077 -0.0563
12635TIP3    H159396   3.813   6.392  11.254 -0.2522 -1.4083 -0.6472
12635TIP3    H259397   3.942   6.389  11.175  0.5390 -0.1920  0.5766
12636TIP3   OH259398   1.869   2.992  13.961  0.0088  0.3366 -0.3888
12636TIP3    H159399   1.854   3.085  13.977 -0.2942  0.2054  0.1238
12636TIP3    H259400   1.799   2.966  13.902 -0.6283  0.1636  0.4383
12637TIP3   OH259401   3.471   3.278   5.877 -0.1357 -0.8291  0.9328
12637TIP3    H159402   3.388   3.295   5.922  0.7990  1.6863  1.7818
12637TIP3    H259403   3.536   3.323   5.930  1.4459 -0.6242 -1.1320
12638TIP3   OH259404   5.704   2.489  10.743 -0.3308  0.0576 -0.1673
12638TIP3    H159405   5.692   2.398  10.767 -1.1139  0.1613 -0.1614
12638TIP3    H259406   5.746   2.485  10.657 -0.4819 -0.3082 -0.2257
12639TIP3   OH259407   0.626   1.330   6.270 -0.4259  0.0293  0.1743
12639TIP3    H159408   0.617   1.408   6.325  1.0155  0.6630 -0.4513
12639TIP3    H259409   0.720   1.314   6.267 -0.6512 -1.2813 -0.3641
12640TIP3   OH259410   3.989   3.096   0.715 -0.7652 -0.4387 -0.2273
12640TIP3    H159411   4.003   3.060   0.803  1.7574  0.3555 -0.2631
12640TIP3    H259412   4.076   3.096   0.675 -1.0263  3.5040 -1.0512
12641TIP3   OH259413   0.370   1.703   2.315 -0.2248  0.3721 -0.2756
12641TIP3    H159414   0.277   1.727   2.314 -0.1845  0.5674  0.9859
12641TIP3    H259415   0.415   1.784   2.339  0.3011  0.3450 -1.1592
12642TIP3   OH259416   0.080   4.008  14.730 -0.4947  0.1821 -0.0619
12642TIP3    H159417   0.004   4.055  14.696  0.4035 -0.5421 -3.2834
12642TIP3    H259418   0.154   4.047  14.684  0.7574 -1.1618  0.7776
12643TIP3   OH259419   2.210   5.460  15.445 -0.3103 -0.5040 -0.0297
12643TIP3    H159420   2.125   5.495  15.417  0.9774  2.7688 -0.0744
12643TIP3    H259421   2.190   5.409  15.524 -2.0748  1.8046  1.0650
12644TIP3   OH259422   0.741   3.328   1.719 -0.0592 -0.2631 -0.5301
12644TIP3    H159423   0.702   3.348   1.634  1.3225  1.1035 -0.8744
12644TIP3    H259424   0.835   3.335   1.704  0.1645  1.4894  1.4590
12645TIP3   OH259425   1.037   6.222  15.069  0.1853 -0.2263 -0.1834
12645TIP3    H159426   1.090   6.259  15.139  1.4494  0.1794 -1.3323
12645TIP3    H259427   1.093   6.157  15.028 -0.9613 -1.3024 -0.0921
12646TIP3   OH259428   0.495   2.048  16.820 -0.0847  0.0984 -0.4290
12646TIP3    H159429   0.491   2.032  16.726 -3.4286  0.1207 -0.3467
12646TIP3    H259430   0.445   1.977  16.859  2.2841 -0.5792  1.4536
12647TIP3   OH259431   4.577   6.364  15.689  0.6114  0.2925 -0.0851
12647TIP3    H159432   4.543   6.339  15.774  1.7109 -0.7545  0.0571
12647TIP3    H259433   4.590   6.281  15.643 -1.1922  0.8958 -1.7679
12648TIP3   OH259434   5.434   2.435   1.200 -0.3624  0.1841  0.7201
12648TIP3    H159435   5.453   2.379   1.276 -2.3458 -0.4021  0.8165
12648TIP3    H259436   5.505   2.499   1.199  1.1053 -1.3877  1.5257
12649TIP3   OH259437   1.170   5.695  12.779  0.6965 -0.1428  0.1177
12649TIP3    H159438   1.260   5.696  12.748  0.4504 -2.3787 -0.7697
12649TIP3    H259439   1.155   5.783  12.815  2.5713  0.8615 -1.5264
12650TIP3   OH259440   2.388   2.326   2.343 -0.9006 -0.0779 -0.2473
12650TIP3    H159441   2.480   2.299   2.352 -1.4054 -1.3990  1.1741
12650TIP3    H259442   2.369   2.314   2.249  0.3497  0.1230 -0.5370
12651TIP3   OH259443   2.728   4.441  14.110  0.6848  0.0323  0.3590
12651TIP3    H159444   2.668   4.436  14.036 -0.4431 -0.3628  1.2779
12651TIP3    H259445   2.793   4.507  14.085  0.0165  0.2711 -0.7527
12652TIP3   OH259446   5.717   4.990   5.610  0.0489 -0.3659 -0.2642
12652TIP3    H159447   5.760   4.906   5.621  1.0543  0.3110  1.1504
12652TIP3    H259448   5.744   5.041   5.686 -0.3724  1.3115 -1.2122
12653TIP3   OH259449   0.066   2.345   0.761 -0.2721  0.0588 -0.1610
12653TIP3    H159450  -0.000   2.322   0.827  0.2371  1.0609  0.7151
12653TIP3    H259451   0.102   2.428   0.792 -0.5631  0.9422 -2.1227
12654TIP3   OH259452   4.847   5.336  12.983 -0.2649 -0.2146 -0.2006
12654TIP3    H159453   4.923   5.338  13.041 -1.3847  0.1863  1.2771
12654TIP3    H259454   4.809   5.424  12.989  0.8025  0.5041 -3.2018
12655TIP3   OH259455   4.056   3.950  17.067  0.0079  0.0605 -0.4763
12655TIP3    H159456   4.117   4.012  17.107 -0.4271  0.4568 -0.4228
12655TIP3    H259457   4.025   3.995  16.988  2.3389 -1.4921 -2.3321
12656TIP3   OH259458   3.465   2.816   1.652 -0.4330  0.1154 -0.1828
12656TIP3    H159459   3.542   2.864   1.622 -0.0438 -0.9552 -0.9363
12656TIP3    H259460   3.450   2.750   1.585 -1.3804 -0.3670  0.4866
12657TIP3   OH259461   4.636   2.003   3.610 -0.0833  0.0057  0.2474
12657TIP3    H159462   4.609   1.992   3.519 -0.2912 -1.1174  0.4409
12657TIP3    H259463   4.725   1.968   3.614  1.2744  3.1684 -0.2568
12658TIP3   OH259464   5.147   4.389  12.892 -0.2243 -0.0525  0.0400
12658TIP3    H159465   5.240   4.378  12.912 -0.2337 -0.2590 -0.0232
12658TIP3    H259466   5.145   4.434  12.807 -0.1845  0.7624  0.4737
12659TIP3   OH259467   6.159   2.112  13.745 -0.1179 -0.2353 -0.2892
12659TIP3    H159468   6.184   2.170  13.817  2.2303 -2.0155  0.3987
12659TIP3    H259469   6.223   2.129  13.676 -0.4352 -0.8017 -0.7342
12660TIP3   OH259470   1.549   3.928   2.458  0.5578 -0.0396 -0.2993
12660TIP3    H159471   1.580   3.997   2.399 -1.3430  1.3290  0.2458
12660TIP3    H259472   1.490   3.973   2.518  0.0875 -1.9738  0.7286
12661TIP3   OH259473   6.013   0.796   4.065  0.1895 -0.3697  0.1960
12661TIP3    H159474   5.953   0.774   4.137 -2.5755 -1.9821 -2.4820
12661TIP3    H259475   5.999   0.890   4.051  0.0760 -0.2310  1.1752
12662TIP3   OH259476   6.433   0.779   3.508  0.2130  0.6563 -0.2253
12662TIP3    H159477   6.387   0.820   3.435 -0.9765 -0.6786 -0.2559
12662TIP3    H259478   6.503   0.729   3.467  1.1696  1.9957 -0.2456
12663TIP3   OH259479   5.457   2.362  16.021  0.3089 -0.2523 -0.0870
12663TIP3    H159480   5.394   2.308  16.069 -1.1311  0.6427 -0.9415
12663TIP3    H259481   5.540   2.346  16.065 -0.9023  0.2370  2.5106
12664TIP3   OH259482   2.415   6.789   4.369  0.0923  0.1728  0.3640
12664TIP3    H159483   2.504   6.812   4.395 -0.0079  1.2211 -0.1959
12664TIP3    H259484   2.426   6.710   4.316  0.6187 -0.0700  0.8248
12665TIP3   OH259485   3.491   0.153   5.194  0.7733  0.4515  0.6247
12665TIP3    H159486   3.479   0.183   5.104 -0.3834 -0.5714  0.4250
12665TIP3    H259487   3.440   0.214   5.247  0.3024  0.2129  0.4468
12666TIP3   OH259488   6.309   1.147  16.456  0.3724  0.0722  0.0775
12666TIP3    H159489   6.282   1.056  16.448 -0.2256  0.1207  1.5027
12666TIP3    H259490   6.401   1.148  16.428  0.2550 -0.8850 -0.3401
12667TIP3   OH259491   1.039   4.404   0.749 -0.0904 -0.0380  0.8380
12667TIP3    H159492   1.119   4.442   0.786  1.3263 -1.3580 -0.7860
12667TIP3    H259493   1.003   4.350   0.820  1.3470 -0.7188  1.0761
12668TIP3   OH259494   5.549   4.564   1.964  0.1781  0.3210  0.6504
12668TIP3    H159495   5.527   4.494   1.902 -1.3415  1.8857 -0.6453
12668TIP3    H259496   5.491   4.548   2.039 -0.0034  0.0584  0.4566
12669TIP3   OH259497   4.893   4.324   4.596 -0.7076  0.1655 -0.2697
12669TIP3    H159498   4.825   4.343   4.661 -0.4171  0.1731  0.0307
12669TIP3    H259499   4.975   4.344   4.640 -0.5012  0.0377 -0.5928
12670TIP3   OH259500   4.901   0.516  13.650  0.5181  0.3212  0.0869
12670TIP3    H159501   4.964   0.542  13.583  0.0428  1.9738  0.2375
12670TIP3    H259502   4.860   0.599  13.676 -2.8684 -0.8555 -1.1734
12671TIP3   OH259503   2.571   3.442  13.558  0.5879 -0.2988 -0.1635
12671TIP3    H159504   2.574   3.507  13.488  0.7978 -0.7596 -0.5825
12671TIP3    H259505   2.516   3.372  13.525 -3.3459  1.6225  2.0018
12672TIP3   OH259506   1.109   2.098  10.385 -0.2789  0.1961  0.5669
12672TIP3    H159507   1.145   2.105  10.473  0.6286  0.0114  0.2161
12672TIP3    H259508   1.084   2.006  10.376  0.4211  0.0238  0.3343
12673TIP3   OH259509   3.386   3.555   6.247 -0.6615  0.0978 -0.1293
12673TIP3    H159510   3.424   3.595   6.169 -2.9005  1.5618 -0.4961
12673TIP3    H259511   3.292   3.571   6.240 -1.1697 -1.8152  1.7067
12674TIP3   OH259512   0.958   4.391   0.502  0.7051 -0.5946 -0.1397
12674TIP3    H159513   0.954   4.381   0.597  0.1194 -1.0214 -0.2083
12674TIP3    H259514   1.040   4.348   0.477  1.4141  0.4798  0.2913
12675TIP3   OH259515   1.371   4.817  16.248  0.0848  0.1893  0.4911
12675TIP3    H159516   1.426   4.740  16.261 -0.0581 -0.0799 -0.5445
12675TIP3    H259517   1.357   4.822  16.154 -0.5001  1.0719  0.6208
12676TIP3   OH259518   1.122   6.427   0.805  0.1099 -0.6972 -0.1641
12676TIP3    H159519   1.095   6.357   0.864 -0.5238 -1.4683 -1.3414
12676TIP3    H259520   1.197   6.467   0.847 -0.7455 -0.8010  1.4876
12677TIP3   OH259521   1.856   4.246   4.909  0.7493 -0.7768 -0.0958
12677TIP3    H159522   1.794   4.296   4.856  0.3319 -0.8212  0.3586
12677TIP3    H259523   1.942   4.283   4.884  0.3901  0.7189  0.8141
12678TIP3   OH259524   4.039   6.012  11.899  0.1825  0.7357  0.1228
12678TIP3    H159525   4.107   5.945  11.895  0.9896  1.6011 -0.9876
12678TIP3    H259526   4.038   6.051  11.812 -0.4230  2.0332  0.6949
12679TIP3   OH259527   2.379   6.556   2.144 -0.4285 -0.1752  0.3424
12679TIP3    H159528   2.430   6.605   2.208 -1.3090  1.5294 -0.2233
12679TIP3    H259529   2.288   6.571   2.169 -0.7541 -0.2398 -0.7479
12680TIP3   OH259530   0.128   0.124   3.425  0.0109 -0.0076  0.1020
12680TIP3    H159531   0.167   0.066   3.359 -1.1937 -0.8042  0.0742
12680TIP3    H259532   0.180   0.109   3.504  0.9619  0.3604 -0.4516
12681TIP3   OH259533   5.973   1.168   5.419 -0.1777  0.9623  0.0252
12681TIP3    H159534   6.046   1.142   5.476 -0.7422 -0.2086  0.2428
12681TIP3    H259535   5.896   1.132   5.461 -0.6983  0.7757 -1.0591
12682TIP3   OH259536   0.298   3.129  11.064  0.4387 -0.0891  0.1901
12682TIP3    H159537   0.259   3.049  11.029  0.3239 -0.3499  0.9057
12682TIP3    H259538   0.366   3.153  11.000 -0.9892  0.4701 -1.1451
12683TIP3   OH259539   2.752   4.075  11.516  0.4310 -0.8192  0.0063
12683TIP3    H159540   2.814   4.059  11.445  0.0336  0.0068 -0.5274
12683TIP3    H259541   2.792   4.145  11.567 -0.1741 -0.1076 -0.4837
12684TIP3   OH259542   1.162   6.182  11.919  0.8437 -0.2091  0.0761
12684TIP3    H159543   1.210   6.253  11.962 -1.4862  1.3039  0.2791
12684TIP3    H259544   1.132   6.126  11.992 -1.7571  1.4937  0.3789
12685TIP3   OH259545   0.676   3.599   0.308  0.3197 -0.3022  0.5626
12685TIP3    H159546   0.658   3.586   0.215 -3.1129 -0.6506  1.1966
12685TIP3    H259547   0.765   3.566   0.320 -0.4310 -3.5635 -1.9609
12686TIP3   OH259548   2.856   0.989   2.607 -0.3304  0.5322 -0.1390
12686TIP3    H159549   2.784   0.949   2.559 -1.0091  0.0810  1.2157
12686TIP3    H259550   2.934   0.966   2.558 -1.1655  1.6001 -2.0029
12687TIP3   OH259551   0.648   4.708  10.946  0.4130  0.0976  0.3714
12687TIP3    H159552   0.686   4.633  10.902 -1.1786 -0.0958 -0.7445
12687TIP3    H259553   0.652   4.779  10.881 -3.0399 -0.5037 -0.6159
12688TIP3   OH259554   1.793   5.017   2.190  0.2055 -0.2703  0.1017
12688TIP3    H159555   1.885   4.991   2.190  0.4695  0.6560 -0.3646
12688TIP3    H259556   1.756   4.970   2.115  0.7866  1.0430 -1.0188
12689TIP3   OH259557   2.457   4.266   5.619  0.0570 -0.0502  0.2157
12689TIP3    H159558   2.391   4.317   5.572  1.3138  0.9341 -0.5083
12689TIP3    H259559   2.420   4.255   5.707 -0.2578  2.1218  0.3924
12690TIP3   OH259560   2.457   4.841   0.944  0.3976  0.3949 -0.1990
12690TIP3    H159561   2.552   4.857   0.943  0.9118 -2.4175 -1.4268
12690TIP3    H259562   2.435   4.834   1.037  1.4701  0.6336  0.0776
12691TIP3   OH259563   5.568   1.809  13.848  0.7932  0.2833  0.0566
12691TIP3    H159564   5.540   1.826  13.758  1.6203 -0.4701 -0.3486
12691TIP3    H259565   5.645   1.753  13.839  1.4319  0.9706  1.2144
12692TIP3   OH259566   4.590   1.584   6.448 -0.5589 -0.3849  0.2162
12692TIP3    H159567   4.662   1.612   6.392 -1.1490  0.7184 -0.0003
12692TIP3    H259568   4.602   1.489   6.456  0.7044 -0.2620 -0.1021
12693TIP3   OH259569   5.706   0.527   0.421  0.2658 -0.5522 -0.0432
12693TIP3    H159570   5.637   0.537   0.486 -0.2759 -0.1281 -0.6832
12693TIP3    H259571   5.661   0.532   0.337  1.1577  0.3381 -0.4737
12694TIP3   OH259572   4.225   3.737   4.979 -0.1389 -0.2017 -0.4112
12694TIP3    H159573   4.268   3.668   5.029 -1.8354 -2.1719 -1.6174
12694TIP3    H259574   4.273   3.742   4.897 -0.1147 -0.0468 -0.3887
12695TIP3   OH259575   0.102   4.334   0.227 -0.3248 -0.3781  0.1405
12695TIP3    H159576   0.052   4.376   0.158 -2.4411  0.2332  1.9849
12695TIP3    H259577   0.040   4.324   0.299  1.6637 -1.5024  1.7527
12696TIP3   OH259578   6.055   6.215  17.166  0.3807  0.0056  0.6550
12696TIP3    H159579   5.980   6.273  17.175  1.8774  1.8934  1.2388
12696TIP3    H259580   6.032   6.138  17.219 -1.3029  0.3808  0.4933
12697TIP3   OH259581   3.593   3.601  12.100  0.1775  0.4937  0.2061
12697TIP3    H159582   3.524   3.668  12.095 -0.3420  0.0075  0.8633
12697TIP3    H259583   3.629   3.612  12.188 -0.6930 -0.8615  0.7465
12698TIP3   OH259584   0.915   4.100  14.014 -0.5182 -0.1043  0.2252
12698TIP3    H159585   0.990   4.085  13.957 -0.8799 -0.5623 -0.1277
12698TIP3    H259586   0.842   4.056  13.971 -1.1340  0.8909  0.2387
12699TIP3   OH259587   1.616   4.296   3.998 -0.0650  0.0991 -0.0813
12699TIP3    H159588   1.583   4.375   3.955  0.6764  1.0831  1.0835
12699TIP3    H259589   1.695   4.326   4.044 -1.0981 -0.7780  2.3499
12700TIP3   OH259590   6.057   1.269   0.873  0.1613  0.1358  0.3912
12700TIP3    H159591   6.117   1.195   0.878 -1.0871 -0.8359  1.2298
12700TIP3    H259592   5.977   1.233   0.834 -0.1223  1.2703 -0.1134
12701TIP3   OH259593   1.646   1.062   2.312 -0.1832 -0.0908 -0.5152
12701TIP3    H159594   1.682   1.138   2.266 -0.2551 -0.8035 -1.7618
12701TIP3    H259595   1.721   1.026   2.360  0.4563 -0.7139 -1.9514
12702TIP3   OH259596   2.197   4.025  11.189  0.3883  0.7699  0.0872
12702TIP3    H159597   2.179   3.939  11.227 -0.9442  0.5499 -0.9726
12702TIP3    H259598   2.268   4.009  11.127 -0.5766  0.1978 -0.8929
12703TIP3   OH259599   2.729   0.281  15.968  0.3621 -0.4325  0.0735
12703TIP3    H159600   2.816   0.307  15.998  0.4990 -0.0150 -0.6733
12703TIP3    H259601   2.680   0.364  15.963  0.0331 -0.6214  0.1348
12704TIP3   OH259602   0.906   5.537   2.713 -0.1891 -0.0113  0.4023
12704TIP3    H159603   0.965   5.610   2.700  0.3376 -0.4178  0.4839
12704TIP3    H259604   0.961   5.467   2.748 -1.3813  0.8024  4.1635
12705TIP3   OH259605   5.137   4.412  14.059  0.3276  0.4282 -0.2749
12705TIP3    H159606   5.218   4.458  14.084  0.6856 -0.9163  1.1019
12705TIP3    H259607   5.107   4.458  13.980  2.8041  0.5253 -1.2122
12706TIP3   OH259608   0.094   3.974  12.141  0.0333 -0.0682  0.0972
12706TIP3    H159609  -0.000   3.990  12.152 -0.3559 -2.1384 -0.0575
12706TIP3    H259610   0.135   4.023  12.212 -0.9424  2.9603 -1.3375
12707TIP3   OH259611   4.334   5.634  10.180 -0.3787 -0.0029 -0.1351
12707TIP3    H159612   4.426   5.608  10.192 -0.6604 -0.1949  1.9129
12707TIP3    H259613   4.288   5.552  10.162 -0.1760  0.0720 -1.0047
12708TIP3   OH259614   0.392   4.163  11.919  0.1718 -0.7716 -0.0569
12708TIP3    H159615   0.383   4.137  12.010 -0.4669  1.1029  0.4254
12708TIP3    H259616   0.486   4.161  11.902  0.3364 -0.4811  0.8166
12709TIP3   OH259617   1.872   1.725   0.828 -0.7541 -0.1686 -0.5201
12709TIP3    H159618   1.951   1.774   0.853 -0.7150 -1.0241  1.0689
12709TIP3    H259619   1.818   1.725   0.906 -1.1598 -1.8700 -0.7874
12710TIP3   OH259620   4.759   3.349  15.071 -0.3041  0.1470 -0.1617
12710TIP3    H159621   4.726   3.437  15.088  0.5190  0.4036  0.1327
12710TIP3    H259622   4.775   3.346  14.977 -0.7208  0.1675 -0.2370
12711TIP3   OH259623   0.635   2.635   4.634  0.4453  0.5452 -0.1941
12711TIP3    H159624   0.592   2.703   4.685  1.4935  1.3054 -0.3125
12711TIP3    H259625   0.564   2.596   4.582 -1.1355 -1.8630  3.5214
12712TIP3   OH259626   1.681   6.514   0.341  0.2103  0.2260  0.4840
12712TIP3    H159627   1.698   6.520   0.435 -0.3254  1.0145  0.5333
12712TIP3    H259628   1.672   6.420   0.325 -0.0622  0.1103  1.2833
12713TIP3   OH259629   6.506   2.749   2.789  0.3719  0.7088  0.6382
12713TIP3    H159630   6.587   2.698   2.793  0.7447  1.2455 -0.0425
12713TIP3    H259631   6.493   2.781   2.879 -0.1833 -1.0532  1.2077
12714TIP3   OH259632   2.445   0.494  11.490 -0.7631  0.1442  0.2700
12714TIP3    H159633   2.512   0.439  11.451 -0.0412  0.8913  0.4528
12714TIP3    H259634   2.388   0.520  11.417  1.5345  2.9246 -0.6270
12715TIP3   OH259635   2.121   4.920  11.183 -0.1861  0.4185 -0.2864
12715TIP3    H159636   2.109   4.979  11.257 -1.4898 -0.6528  0.3792
12715TIP3    H259637   2.050   4.942  11.123 -1.5010 -1.3585  0.5756
12716TIP3   OH259638   1.950   3.737   4.210 -0.3870 -0.2067 -0.0653
12716TIP3    H159639   1.884   3.668   4.207 -2.0730  1.2840  1.2368
12716TIP3    H259640   1.923   3.800   4.143 -0.1180  0.2388  0.2362
12717TIP3   OH259641   0.122   3.317   4.339 -0.7088  0.1389  0.0229
12717TIP3    H159642   0.212   3.338   4.317 -0.2344 -1.7069  0.1401
12717TIP3    H259643   0.128   3.253   4.410 -2.0832 -0.7001 -0.5839
12718TIP3   OH259644   2.801   3.935  14.652  0.5457  0.0448 -0.3758
12718TIP3    H159645   2.819   4.020  14.692 -0.2744 -0.2553  0.6468
12718TIP3    H259646   2.881   3.914  14.604  1.6946  0.2452  1.4025
12719TIP3   OH259647   2.379   1.549   1.341  0.1045  0.3245 -0.2539
12719TIP3    H159648   2.447   1.489   1.371  0.4106  0.2777 -1.0256
12719TIP3    H259649   2.409   1.579   1.255  0.9727  3.2127  1.0084
12720TIP3   OH259650   3.304   6.512   3.131 -0.6380 -0.2073 -0.5868
12720TIP3    H159651   3.270   6.534   3.218  2.8640 -0.2304  0.8536
12720TIP3    H259652   3.315   6.417   3.134  0.6538 -0.0609 -0.6073
12721TIP3   OH259653   3.729   4.730   1.930 -0.2398 -0.2969 -0.2448
12721TIP3    H159654   3.658   4.777   1.972  0.4331  0.6823 -0.1773
12721TIP3    H259655   3.808   4.761   1.975  0.3302 -0.5103 -1.0813
12722TIP3   OH259656   0.990   4.739   4.216 -0.0525  0.9760  0.0754
12722TIP3    H159657   0.926   4.810   4.210  0.7339  1.5029 -2.4249
12722TIP3    H259658   1.067   4.771   4.169  1.0549 -0.7553  0.6465
12723TIP3   OH259659   6.250   6.627  12.491 -0.8078  0.2182  0.2637
12723TIP3    H159660   6.331   6.577  12.484 -1.5923 -0.6810 -3.3840
12723TIP3    H259661   6.254   6.690  12.419 -2.4835  1.4768  1.2191
12724TIP3   OH259662   1.064   6.662   4.515  0.0268  0.4503 -0.3636
12724TIP3    H159663   0.995   6.596   4.518  0.4573  0.0111 -0.0746
12724TIP3    H259664   1.020   6.741   4.485 -0.1439 -0.3938 -2.3787
12725TIP3   OH259665   1.330   3.442  17.062  0.2236 -0.5008  0.3789
12725TIP3    H159666   1.333   3.355  17.100  1.6746 -0.3459  0.6284
12725TIP3    H259667   1.400   3.443  16.996  0.7875  0.7432  0.9794
12726TIP3   OH259668   6.201   2.822   4.234  0.3152 -0.2912 -0.5325
12726TIP3    H159669   6.110   2.799   4.253  0.7765 -2.0490 -0.4324
12726TIP3    H259670   6.209   2.808   4.139  0.2156  0.8214 -0.7102
12727TIP3   OH259671   1.238   4.989   5.383 -0.1319  0.2780  0.0083
12727TIP3    H159672   1.175   4.937   5.433 -1.6914  1.8362 -0.2792
12727TIP3    H259673   1.294   5.029   5.449 -2.3789  2.5780  0.6068
12728TIP3   OH259674   1.349   5.282  12.276  0.3167  0.1953 -0.4995
12728TIP3    H159675   1.290   5.256  12.347  0.9991  2.7723  1.0520
12728TIP3    H259676   1.348   5.207  12.216  0.5917 -2.5101  2.7484
12729TIP3   OH259677   6.687   3.300  12.907  0.3413  0.1322 -0.3373
12729TIP3    H159678   6.671   3.296  13.001 -1.8507  2.4206 -0.5550
12729TIP3    H259679   6.778   3.329  12.899 -0.3891  3.0146  1.1431
12730TIP3   OH259680   5.492   0.864   1.964 -0.4288 -0.1437 -0.0572
12730TIP3    H159681   5.559   0.838   2.028 -0.6517 -1.2124 -0.2453
12730TIP3    H259682   5.413   0.876   2.016  0.0174  1.6764  0.2492
12731TIP3   OH259683   4.990   4.017   5.567 -0.6937 -1.2442  0.3590
12731TIP3    H159684   4.945   4.098   5.591  0.2093  0.1657 -2.4941
12731TIP3    H259685   5.070   4.018   5.620 -0.1395  0.3408 -0.4663
12732TIP3   OH259686   3.039   0.491  12.560  0.3966  0.0274  0.5838
12732TIP3    H159687   2.973   0.423  12.541  0.7073 -0.0360 -0.3332
12732TIP3    H259688   3.012   0.529  12.643  0.3343 -1.3795  1.2279
12733TIP3   OH259689   5.290   4.813  17.250 -0.5373  1.0154 -0.6565
12733TIP3    H159690   5.232   4.889  17.240  1.7655  2.8148 -0.8943
12733TIP3    H259691   5.376   4.852  17.271  0.4451 -1.5785  0.2856
12734TIP3   OH259692   6.283   3.937   0.757 -0.4280  0.5755  0.2450
12734TIP3    H159693   6.288   4.018   0.808 -2.2330  0.1098  1.2159
12734TIP3    H259694   6.329   3.873   0.811 -1.4155  0.3267  0.8023
12735TIP3   OH259695   3.630   6.302   0.580  0.1318 -0.0184 -0.0477
12735TIP3    H159696   3.602   6.298   0.489  0.9034  0.5085 -0.3135
12735TIP3    H259697   3.724   6.282   0.577 -0.1463 -1.5302  0.7995
12736TIP3   OH259698   0.740   4.860  16.173 -0.2439  0.3574 -0.1694
12736TIP3    H159699   0.696   4.925  16.119  0.4010  0.7466 -0.2361
12736TIP3    H259700   0.789   4.911  16.237  0.6046 -0.0401 -0.4893
12737TIP3   OH259701   4.869   2.987  13.097 -0.0840 -0.2131  0.4311
12737TIP3    H159702   4.861   2.952  13.008  0.9360  0.5910  0.0095
12737TIP3    H259703   4.806   3.059  13.099  0.2158  0.0617  0.1968
12738TIP3   OH259704   2.469   1.323   5.872  0.5404  0.0482  0.2395
12738TIP3    H159705   2.415   1.392   5.910  0.3553  0.3469 -0.5575
12738TIP3    H259706   2.526   1.294   5.944 -0.3082  0.0982  0.9361
12739TIP3   OH259707   1.234   6.771   5.602 -0.0250 -0.4631 -0.3138
12739TIP3    H159708   1.176   6.699   5.578 -2.3626  1.8337 -1.8271
12739TIP3    H259709   1.282   6.791   5.522  0.0478  0.1856 -0.1127
12740TIP3   OH259710   4.269   3.748  12.055 -0.4177 -0.1630 -0.4070
12740TIP3    H159711   4.271   3.654  12.071 -1.6436 -0.2003 -0.4258
12740TIP3    H259712   4.335   3.762  11.987  0.1357 -0.9333 -0.0326
12741TIP3   OH259713   3.825   6.044   4.939  0.3704  0.5616  0.5508
12741TIP3    H159714   3.906   6.062   4.986  1.8673  0.4942 -1.9390
12741TIP3    H259715   3.796   5.960   4.973  0.0153  1.6845  3.1829
12742TIP3   OH259716   4.043   5.698  16.389 -0.1286  0.4048 -0.3380
12742TIP3    H159717   4.008   5.609  16.395  0.4903  0.0863 -1.2936
12742TIP3    H259718   4.128   5.692  16.432  0.0724  0.4428 -0.7282
12743TIP3   OH259719   1.392   6.314  14.445  0.4912 -0.0138 -0.3418
12743TIP3    H159720   1.440   6.285  14.523 -0.5129 -0.9392 -0.0522
12743TIP3    H259721   1.367   6.233  14.400 -2.1115  0.3445  0.3344
12744TIP3   OH259722   5.486   0.843   3.710 -0.3248 -0.2182  0.6271
12744TIP3    H159723   5.459   0.826   3.619 -0.2618  1.4646  0.2867
12744TIP3    H259724   5.406   0.870   3.755 -0.4616 -1.5615  1.2231
12745TIP3   OH259725   4.994   0.611  14.615  0.5945 -0.3119  1.3704
12745TIP3    H159726   4.930   0.636  14.681  1.5117  2.6491  1.2083
12745TIP3    H259727   5.072   0.663  14.636  1.4279 -0.5155 -1.0491
12746TIP3   OH259728   6.217   0.880   3.379 -0.1200 -0.7042  0.3177
12746TIP3    H159729   6.172   0.911   3.300 -0.7303 -0.7903  0.6268
12746TIP3    H259730   6.154   0.822   3.421 -0.7026  1.1550  2.0987
12747TIP3   OH259731   6.366   2.195  15.347  0.1998 -0.2379  0.4105
12747TIP3    H159732   6.331   2.119  15.394  0.9030 -0.3471  0.7731
12747TIP3    H259733   6.354   2.268  15.408  0.6054 -0.2768  0.5368
12748TIP3   OH259734   5.989   6.577  12.576  0.2791 -0.5272 -0.1638
12748TIP3    H159735   6.084   6.581  12.569  0.2218 -1.7727 -1.9117
12748TIP3    H259736   5.971   6.497  12.625  0.1025 -0.9656 -0.9329
12749TIP3   OH259737   0.808   5.452  12.635 -0.1060 -0.1592 -0.2320
12749TIP3    H159738   0.727   5.489  12.599 -1.0312  0.0670  1.9779
12749TIP3    H259739   0.823   5.501  12.715  0.9487 -1.7881  0.5962
12750TIP3   OH259740   1.049   3.306  15.689  0.6056  0.3363 -0.1261
12750TIP3    H159741   1.089   3.325  15.775  0.1141  0.9440 -0.0298
12750TIP3    H259742   0.956   3.300  15.707  0.5305  0.1845 -0.5744
12751TIP3   OH259743   0.988   4.657   5.909 -0.4484  0.4592 -0.0040
12751TIP3    H159744   1.040   4.622   5.836  0.4440  1.3942  0.1630
12751TIP3    H259745   0.989   4.752   5.895  0.5981  0.7338  1.7771
12752TIP3   OH259746   5.629   4.976   0.812  0.3022 -0.1901  0.7641
12752TIP3    H159747   5.569   4.946   0.880 -0.1105  0.7314  0.8159
12752TIP3    H259748   5.693   4.905   0.804 -0.6816 -1.1060  0.8376
12753TIP3   OH259749   3.100   1.085  13.096  0.4364 -0.5447 -0.1509
12753TIP3    H159750   3.055   1.036  13.165  0.7904 -1.9559 -0.8954
12753TIP3    H259751   3.157   1.020  13.055  1.0323  0.5506 -1.0581
12754TIP3   OH259752   1.341   5.847   3.503 -0.7132  0.1608  0.2427
12754TIP3    H159753   1.268   5.908   3.515 -1.2082 -0.1358 -1.1657
12754TIP3    H259754   1.395   5.887   3.435 -1.3425 -1.2394 -1.0950
12755TIP3   OH259755   2.687   0.900   3.266 -0.0853 -0.1170 -0.2497
12755TIP3    H159756   2.696   0.920   3.359 -2.8586 -0.9482  0.2459
12755TIP3    H259757   2.632   0.971   3.232  0.2613 -0.2425 -1.0856
12756TIP3   OH259758   5.043   2.272   1.797  0.1850 -0.0625  0.2834
12756TIP3    H159759   5.047   2.225   1.881 -1.5293 -1.3574 -0.3230
12756TIP3    H259760   5.086   2.214   1.735  0.8716  0.6024  0.1371
12757TIP3   OH259761   5.065   5.991   3.412  0.1103 -0.1678  0.1075
12757TIP3    H159762   4.980   5.966   3.374  0.9346 -0.1352 -1.8378
12757TIP3    H259763   5.112   5.909   3.422  0.4498 -0.0355 -0.3607
12758TIP3   OH259764   5.513   2.968  16.466  0.3992 -0.0868 -0.6403
12758TIP3    H159765   5.501   3.041  16.404 -0.9618 -0.0990 -0.4091
12758TIP3    H259766   5.544   3.010  16.546 -0.1576  0.2126 -0.5814
12759TIP3   OH259767   5.648   0.605   2.471 -0.4382 -0.2498 -0.2939
12759TIP3    H159768   5.700   0.536   2.513 -0.4881 -0.1792 -0.1144
12759TIP3    H259769   5.690   0.618   2.386 -0.3145 -0.3693 -0.2521
12760TIP3   OH259770   3.140   6.416  16.633 -0.5196 -0.1876 -0.0072
12760TIP3    H159771   3.165   6.395  16.722  0.1960  1.2467  0.1596
12760TIP3    H259772   3.200   6.365  16.578 -1.2829 -1.4445  0.3131
12761TIP3   OH259773   5.138   5.225  13.893 -0.0846 -0.0763 -0.1964
12761TIP3    H159774   5.217   5.172  13.903 -0.6992 -1.1774 -0.9060
12761TIP3    H259775   5.068   5.160  13.886 -0.8052  0.8356 -1.5616
12762TIP3   OH259776   5.622   5.271  12.859 -0.7696  0.0315  0.3831
12762TIP3    H159777   5.689   5.320  12.907  0.0110 -0.2671 -0.3925
12762TIP3    H259778   5.643   5.179  12.876 -1.3104 -0.0548  0.5846
12763TIP3   OH259779   5.447   3.325   0.286  0.1588 -0.1471 -0.3367
12763TIP3    H159780   5.368   3.274   0.302  0.5872 -0.8584 -0.4532
12763TIP3    H259781   5.502   3.268   0.232  1.2103 -0.1010  0.6632
12764TIP3   OH259782   1.331   3.096  11.945 -0.3564 -0.2049 -0.2818
12764TIP3    H159783   1.389   3.055  11.880  3.3349  1.2158  1.9566
12764TIP3    H259784   1.301   3.023  11.999  1.4006 -0.7103  0.0538
12765TIP3   OH259785   6.783   6.299   4.459 -0.1931  0.7657 -0.4051
12765TIP3    H159786   6.754   6.329   4.372 -1.4371 -0.6071 -0.4842
12765TIP3    H259787   6.877   6.290   4.451  0.0486  3.1705 -0.8267
12766TIP3   OH259788   4.772   0.400  13.273  0.0953 -0.0228  0.1589
12766TIP3    H159789   4.864   0.402  13.248  0.1540 -0.1624  0.3637
12766TIP3    H259790   4.750   0.491  13.292  0.5346 -0.1504  1.3577
12767TIP3   OH259791   6.010   4.589  15.347 -0.0263 -0.2655  0.0487
12767TIP3    H159792   6.057   4.617  15.268 -0.6127 -1.0288 -0.5755
12767TIP3    H259793   5.991   4.671  15.392 -2.0236  0.4279 -1.9429
12768TIP3   OH259794   2.290   5.773   0.462 -0.2470 -0.3600  0.3496
12768TIP3    H159795   2.220   5.768   0.528 -1.9583 -0.5739 -1.4077
12768TIP3    H259796   2.243   5.782   0.379  1.8650  0.1609 -0.8182
12769TIP3   OH259797   5.543   3.195   1.090  0.2280 -0.0702 -0.4571
12769TIP3    H159798   5.633   3.227   1.090 -0.1781  1.0990  0.6450
12769TIP3    H259799   5.493   3.265   1.131 -1.2280 -0.6126 -1.2856
12770TIP3   OH259800   1.280   5.686   0.911 -0.2034  0.3345 -0.4378
12770TIP3    H159801   1.222   5.626   0.866 -0.2502  0.8310 -1.0455
12770TIP3    H259802   1.267   5.667   1.004 -1.3954  0.4883 -0.5629
12771TIP3   OH259803   4.319   4.741   2.508  0.4237  0.1670 -0.5717
12771TIP3    H159804   4.227   4.764   2.507  0.0884 -1.0474  1.0337
12771TIP3    H259805   4.341   4.724   2.416 -1.4020 -1.3460 -0.7313
12772TIP3   OH259806   0.200   5.771  15.837  0.1033 -0.3210 -0.6189
12772TIP3    H159807   0.109   5.776  15.808 -0.1031 -0.5646 -0.0287
12772TIP3    H259808   0.246   5.728  15.764 -0.5232 -1.4960 -0.3340
12773TIP3   OH259809   5.952   5.361   1.854 -0.3546  0.4384  0.0522
12773TIP3    H159810   5.904   5.387   1.776 -0.0959 -1.2375 -0.6648
12773TIP3    H259811   5.910   5.280   1.883  0.2879  0.4335  1.0047
12774TIP3   OH259812   0.395   4.963   4.139 -0.4222  0.2166 -0.0684
12774TIP3    H159813   0.388   5.048   4.184  1.2700  0.7737 -0.8067
12774TIP3    H259814   0.407   4.900   4.210  0.4475  0.8650  0.3749
12775TIP3   OH259815   1.573   1.113  11.232  0.2254 -0.7033 -0.4300
12775TIP3    H159816   1.592   1.057  11.156 -0.8376 -1.8783  0.1429
12775TIP3    H259817   1.511   1.178  11.200  2.6246  1.1360 -1.4899
12776TIP3   OH259818   2.040   1.063   1.386  0.1887  0.3538 -0.3446
12776TIP3    H159819   2.011   1.044   1.476 -1.6260 -0.9653 -1.1755
12776TIP3    H259820   2.009   1.152   1.369  0.7991  0.7213  0.4312
12777TIP3   OH259821   6.043   2.909  14.932  0.0012  0.1570 -0.0150
12777TIP3    H159822   6.052   2.960  14.851  2.6799 -0.7970 -0.3678
12777TIP3    H259823   6.016   2.822  14.903  0.0985  0.0659  0.1660
12778TIP3   OH259824   0.235   4.307  15.280 -0.2706 -0.0136 -0.4079
12778TIP3    H159825   0.299   4.301  15.351 -0.3721 -0.2176 -0.3308
12778TIP3    H259826   0.286   4.290  15.200 -0.0532  0.7701 -0.4384
12779TIP3   OH259827   6.444   5.620  12.826 -0.0525  0.6832  0.1624
12779TIP3    H159828   6.486   5.587  12.905  0.4185  1.7263  0.3625
12779TIP3    H259829   6.504   5.597  12.755  0.1200  0.8223  0.2619
12780TIP3   OH259830   6.375   2.955   0.648  0.5171  0.3120  0.8438
12780TIP3    H159831   6.375   2.904   0.729 -1.7953 -0.1142  0.5937
12780TIP3    H259832   6.409   3.040   0.673  0.8637 -0.1664  2.0215
12781TIP3   OH259833   6.188   4.340   2.177 -0.0560  0.3001 -0.2232
12781TIP3    H159834   6.279   4.370   2.181 -0.5582  2.0121 -0.9308
12781TIP3    H259835   6.163   4.353   2.085 -0.3841 -2.1545 -0.5229
12782TIP3   OH259836   2.640   3.241  16.472  0.0708  0.2290  0.1324
12782TIP3    H159837   2.564   3.211  16.523 -0.0238  0.9471  0.4150
12782TIP3    H259838   2.712   3.241  16.535  0.1333  0.3286  0.0614
12783TIP3   OH259839   0.932   2.403   5.018  0.7010 -0.4109 -0.1782
12783TIP3    H159840   0.958   2.412   4.926  0.1637  0.5175 -0.2482
12783TIP3    H259841   1.005   2.356   5.059  0.8259 -1.0596 -1.1319
12784TIP3   OH259842   0.845   1.847   4.300 -0.2631  0.3962  0.2938
12784TIP3    H159843   0.827   1.780   4.235 -0.0833 -0.2069  0.8559
12784TIP3    H259844   0.933   1.826   4.332  0.9532  2.5318 -1.5073
12785TIP3   OH259845   1.393   0.739  17.221  0.0082  0.1148 -0.0792
12785TIP3    H159846   1.329   0.680  17.181 -0.0937 -1.2571  2.0378
12785TIP3    H259847   1.357   0.827  17.205 -1.3307 -0.5382 -0.7636
12786TIP3   OH259848   3.455   2.794  15.978  0.0409  0.3054 -0.1094
12786TIP3    H159849   3.544   2.765  15.994  0.2773  0.5385 -0.9731
12786TIP3    H259850   3.465   2.872  15.923 -0.5838  1.8182  1.8640
12787TIP3   OH259851   6.664   1.231  15.687 -0.3683 -1.1164  0.0872
12787TIP3    H159852   6.598   1.282  15.641  0.7886  0.4982  0.1615
12787TIP3    H259853   6.698   1.171  15.621 -0.1927 -0.2493 -0.6271
12788TIP3   OH259854   3.484   3.565   3.648  0.3060  0.2542 -0.4879
12788TIP3    H159855   3.480   3.646   3.699  0.5673 -0.0612  0.0370
12788TIP3    H259856   3.482   3.496   3.714 -0.8318 -0.1929 -0.9785
12789TIP3   OH259857   6.083   6.336  15.183  0.5757 -0.0769  0.5626
12789TIP3    H159858   6.153   6.271  15.178 -0.1652 -0.9274  1.0249
12789TIP3    H259859   6.003   6.284  15.195  0.2768  0.9931  3.8395
12790TIP3   OH259860   1.604   2.241  16.874  0.7323  0.0204 -0.0932
12790TIP3    H159861   1.621   2.298  16.798  0.4982 -0.3383 -0.4134
12790TIP3    H259862   1.669   2.268  16.939  1.3386 -0.0850 -0.6460
12791TIP3   OH259863   5.715   0.340  12.226  0.0111 -0.3624 -0.6245
12791TIP3    H159864   5.722   0.371  12.316  1.2035 -1.7377 -0.2297
12791TIP3    H259865   5.622   0.352  12.204  0.0027  1.3198  0.2764
12792TIP3   OH259866   4.177   1.913  14.594  0.0828 -0.9470 -0.5623
12792TIP3    H159867   4.164   1.978  14.526 -0.6462  0.5809  1.0060
12792TIP3    H259868   4.136   1.833  14.559 -0.1155 -0.2415 -1.9729
12793TIP3   OH259869   4.671   6.489  11.303 -0.5606 -0.0523 -0.6916
12793TIP3    H159870   4.620   6.569  11.319  0.1898  0.1398  0.7948
12793TIP3    H259871   4.627   6.422  11.356  0.2762 -0.0559  0.0019
12794TIP3   OH259872   1.065   3.057   1.918 -0.3178 -0.5529  0.2616
12794TIP3    H159873   1.102   3.121   1.979 -0.4139 -0.9266  0.7186
12794TIP3    H259874   1.044   3.107   1.840 -1.0139  0.1075  0.8583
12795TIP3   OH259875   0.309   4.669  15.041  0.7468 -0.3899 -0.3453
12795TIP3    H159876   0.225   4.623  15.049  0.6305 -0.2629 -0.8366
12795TIP3    H259877   0.301   4.743  15.102 -0.2337  0.7161 -1.7980
12796TIP3   OH259878   4.810   3.792   4.816 -0.5221 -0.0668  0.1479
12796TIP3    H159879   4.798   3.705   4.853 -0.3235 -0.8117 -1.4827
12796TIP3    H259880   4.756   3.792   4.737  0.2466  0.9502 -0.3863
12797TIP3   OH259881   6.359   0.030   0.675 -0.1090 -0.1694  0.2760
12797TIP3    H159882   6.361  -0.003   0.585  0.2140 -1.3093  0.6961
12797TIP3    H259883   6.434   0.089   0.679  0.0644 -0.3537 -0.1184
12798TIP3   OH259884   1.872   2.195  14.677  0.3507 -0.4879 -0.0504
12798TIP3    H159885   1.886   2.288  14.697 -1.7861 -0.4049  1.3264
12798TIP3    H259886   1.785   2.176  14.714  0.6754 -2.9864 -0.4793
12799TIP3   OH259887   5.724   0.367  13.853  0.2893  0.3817 -0.3775
12799TIP3    H159888   5.750   0.426  13.924 -0.3955 -0.4370  0.5578
12799TIP3    H259889   5.777   0.395  13.778 -0.2960  2.4309 -0.0478
12800TIP3   OH259890   3.539   2.027  11.430  0.1919 -0.1110  0.1336
12800TIP3    H159891   3.621   2.019  11.381  0.0294 -0.3885 -0.0966
12800TIP3    H259892   3.480   1.965  11.387 -0.5080  0.9608 -0.4795
12801TIP3   OH259893   3.895   1.517  16.243 -0.2457  0.5528 -0.0603
12801TIP3    H159894   3.817   1.526  16.188 -0.0176 -0.5409 -0.5794
12801TIP3    H259895   3.893   1.593  16.301 -1.2091  1.0072 -0.6862
12802TIP3   OH259896   0.315   4.698  10.271  0.1256  0.3265  0.8549
12802TIP3    H159897   0.318   4.670  10.363  1.3564 -2.0466  0.1555
12802TIP3    H259898   0.266   4.628  10.227 -0.2135  1.3069 -0.3406
12803TIP3   OH259899   5.001   4.361  12.576 -0.4166 -0.3535  0.3720
12803TIP3    H159900   5.026   4.270  12.559  0.9612  0.3082 -1.2393
12803TIP3    H259901   4.906   4.357  12.587 -0.5682 -1.7818 -1.2073
12804TIP3   OH259902   1.975   6.125  15.493  0.4486  0.1873  0.2791
12804TIP3    H159903   2.045   6.148  15.432  0.7031 -2.1794 -0.3677
12804TIP3    H259904   1.947   6.209  15.531  2.8857  1.2718 -0.2483
12805TIP3   OH259905   2.373   3.311  13.390  0.1940  0.0682  0.9024
12805TIP3    H159906   2.304   3.377  13.387  0.7131  0.7481  3.0690
12805TIP3    H259907   2.341   3.246  13.453  0.2079 -1.1342 -0.3308
12806TIP3   OH259908   4.243   1.942   6.296 -0.2108 -0.2377 -0.6264
12806TIP3    H159909   4.315   1.913   6.352 -0.0195  0.7170 -0.3711
12806TIP3    H259910   4.285   1.994   6.228 -0.7731  1.4189  0.2614
12807TIP3   OH259911   2.606   2.124   6.546 -0.7179 -0.3571 -0.0728
12807TIP3    H159912   2.681   2.079   6.509 -1.6962 -3.7911  1.9469
12807TIP3    H259913   2.642   2.205   6.582  2.0283 -1.9621  0.8965
12808TIP3   OH259914   3.324   1.441  10.806 -0.1124 -0.0764  0.0402
12808TIP3    H159915   3.287   1.392  10.733  0.5689 -0.5546  0.0116
12808TIP3    H259916   3.248   1.483  10.847 -0.8527 -1.9011  0.6330
12809TIP3   OH259917   0.407   2.584   4.021 -0.6623  0.5976 -0.2114
12809TIP3    H159918   0.353   2.608   3.945 -0.7240  0.4115 -0.2258
12809TIP3    H259919   0.346   2.543   4.082 -0.5258  0.3318 -0.2545
12810TIP3   OH259920   1.848   0.637   1.753 -1.1157  0.1544 -0.1080
12810TIP3    H159921   1.915   0.705   1.758  2.4348 -3.2051  0.7853
12810TIP3    H259922   1.866   0.592   1.671 -0.5553 -2.4107  1.3708
12811TIP3   OH259923   6.551   2.954  14.065  0.3382 -0.1394 -0.8707
12811TIP3    H159924   6.476   2.980  14.011 -0.9116  1.5381  1.5495
12811TIP3    H259925   6.538   2.861  14.082 -1.5721  0.2868  0.0746
12812TIP3   OH259926   2.979   1.196  13.797 -0.4472  0.4396  0.0091
12812TIP3    H159927   2.967   1.289  13.814 -2.5411  0.3282 -0.7458
12812TIP3    H259928   3.001   1.158  13.882  2.1100  1.8374  0.0411
12813TIP3   OH259929   0.048   1.844  16.825  0.9280  0.0982 -0.7627
12813TIP3    H159930  -0.016   1.879  16.888  1.1079  1.6693 -1.4214
12813TIP3    H259931   0.020   1.754  16.810 -1.3061  0.8109 -1.2060
12814TIP3   OH259932   5.978   3.421   6.445  0.1585 -0.3449 -0.1880
12814TIP3    H159933   6.066   3.444   6.475 -0.1784 -0.1042  0.6107
12814TIP3    H259934   5.934   3.505   6.432 -0.7164 -0.4873  1.6864
12815TIP3   OH259935   5.636   2.137  13.175 -0.5558  0.3404  0.3170
12815TIP3    H159936   5.711   2.181  13.135 -0.4143 -1.2736 -1.2456
12815TIP3    H259937   5.594   2.204  13.229 -0.3836  2.3896 -2.0360
12816TIP3   OH259938   2.849   6.122   2.593  0.1752  0.1692 -0.0046
12816TIP3    H159939   2.860   6.195   2.532  0.3940 -1.0835 -1.4755
12816TIP3    H259940   2.814   6.051   2.540 -1.1651 -0.4469  1.6646
12817TIP3   OH259941   0.619   1.337  16.853 -0.1983 -0.4711  0.7862
12817TIP3    H159942   0.607   1.248  16.886 -1.6900  0.4485  2.8372
12817TIP3    H259943   0.530   1.371  16.840  0.3350 -0.0461 -2.2557
12818TIP3   OH259944   0.325   3.657   4.768  0.7443 -0.2910 -0.1943
12818TIP3    H159945   0.359   3.612   4.846  1.5496 -0.7881 -0.8306
12818TIP3    H259946   0.265   3.593   4.729 -0.1489  0.1984  0.3604
12819TIP3   OH259947   5.051   6.711   2.582 -0.1222  0.2088  0.4516
12819TIP3    H159948   4.998   6.776   2.535 -0.6525 -1.0356 -0.7163
12819TIP3    H259949   4.996   6.632   2.582  0.8020 -0.4348  1.2350
12820TIP3   OH259950   0.247   3.941   3.685 -0.0117  0.1312  0.1751
12820TIP3    H159951   0.256   3.861   3.632  1.2628  0.5198 -0.1923
12820TIP3    H259952   0.336   3.968   3.704 -0.4510  0.6491  1.5746
12821TIP3   OH259953   3.315   1.092   3.631 -0.8060 -0.1536 -0.4430
12821TIP3    H159954   3.398   1.124   3.597 -0.1205 -1.6012 -0.1754
12821TIP3    H259955   3.329   1.085   3.726 -0.2359 -3.1563 -0.6961
12822TIP3   OH259956   3.239   5.189   3.476 -0.2833  0.5649 -0.7999
12822TIP3    H159957   3.326   5.217   3.505 -1.9775  3.4126  1.9168
12822TIP3    H259958   3.217   5.248   3.404 -0.1917  0.2390 -1.0942
12823TIP3   OH259959   5.240   2.929  12.837 -0.4481  0.2149 -0.8925
12823TIP3    H159960   5.155   2.907  12.799 -0.6222 -1.2879  0.3205
12823TIP3    H259961   5.219   2.968  12.921  0.0452  0.3450 -0.8288
12824TIP3   OH259962   6.605   0.089  14.219 -0.2325  0.6091 -0.2357
12824TIP3    H159963   6.607  -0.001  14.252 -0.8881  0.7985  0.3287
12824TIP3    H259964   6.571   0.081  14.130 -2.9035  0.5701  0.7588
12825TIP3   OH259965   3.267   0.282   5.376 -0.0691 -0.4579 -0.2612
12825TIP3    H159966   3.213   0.222   5.428  1.5388  0.5373  2.6583
12825TIP3    H259967   3.210   0.307   5.303 -3.0335 -0.5648  1.9014
12826TIP3   OH259968   4.920   6.691   1.513  0.0331 -0.0649  0.7593
12826TIP3    H159969   4.993   6.748   1.535 -0.0393 -0.2058  1.3604
12826TIP3    H259970   4.842   6.739   1.541 -0.0188 -0.5162  1.4108
12827TIP3   OH259971   0.483   6.462  12.241  0.4896 -0.0450  0.0249
12827TIP3    H159972   0.549   6.414  12.290  0.8258 -0.2846 -0.6570
12827TIP3    H259973   0.490   6.428  12.151  0.0644  0.5688 -0.2452
12828TIP3   OH259974   0.210   3.022   6.314  0.1812  0.4916 -0.6451
12828TIP3    H159975   0.241   3.098   6.264 -0.3678  1.7608  0.8794
12828TIP3    H259976   0.274   2.954   6.297  2.5052  2.3087  0.5077
12829TIP3   OH259977   0.594   1.748   0.477  0.2457 -0.4368  0.5240
12829TIP3    H159978   0.631   1.668   0.441 -1.2479 -1.3237  0.9144
12829TIP3    H259979   0.614   1.815   0.411  0.7210 -1.3025 -0.2279
12830TIP3   OH259980   3.868   0.866   6.424 -0.2641 -0.5058  0.1261
12830TIP3    H159981   3.939   0.922   6.454  0.7070 -1.5498 -0.1865
12830TIP3    H259982   3.911   0.783   6.400 -1.7358 -1.5618  1.0644
12831TIP3   OH259983   6.430   2.433   5.217  0.3759 -0.4657  0.6459
12831TIP3    H159984   6.376   2.487   5.275 -0.1670  0.3119 -0.5642
12831TIP3    H259985   6.373   2.360   5.193  0.1470 -0.0900  0.0410
12832TIP3   OH259986   2.993   6.413   1.425 -0.8034  0.6412  0.4248
12832TIP3    H159987   2.921   6.382   1.369  0.0777  1.8151 -1.4060
12832TIP3    H259988   3.069   6.414   1.367  0.7271 -0.6715  2.3705
12833TIP3   OH259989   5.397   3.597   2.273  0.1333 -0.0706 -0.3978
12833TIP3    H159990   5.384   3.692   2.276  2.6331  0.2617  2.5202
12833TIP3    H259991   5.342   3.563   2.343 -0.3272 -0.7391 -1.0777
12834TIP3   OH259992   0.855   0.208   2.909 -0.5129 -0.2128  0.2801
12834TIP3    H159993   0.849   0.160   2.992 -1.7018  0.9848  0.8950
12834TIP3    H259994   0.930   0.266   2.920 -1.4629  0.8888  1.0236
12835TIP3   OH259995   0.950   4.354  14.495  0.4294 -0.1043  0.6804
12835TIP3    H159996   0.944   4.402  14.412  1.5561  0.7320  1.0833
12835TIP3    H259997   0.864   4.311  14.504 -0.0942  0.7186 -0.3558
12836TIP3   OH259998   3.373   6.382  15.625 -0.3748 -0.0679  0.3024
12836TIP3    H159999   3.451   6.412  15.670 -0.0887 -2.0627  1.1756
12836TIP3    H260000   3.348   6.301  15.671 -1.9549 -0.3662 -1.0352
12837TIP3   OH260001   6.625   5.610  15.256  0.1549 -0.0914 -0.2686
12837TIP3    H160002   6.537   5.586  15.285  0.7180 -1.2305  0.5508
12837TIP3    H260003   6.656   5.533  15.209  0.7704  0.2448 -0.4089
12838TIP3   OH260004   1.284   2.372  12.472  0.1164  0.1045  0.0247
12838TIP3    H160005   1.375   2.374  12.500  0.4271  1.8083 -1.0401
12838TIP3    H260006   1.281   2.426  12.393 -1.4351 -1.5900 -1.1430
12839TIP3   OH260007   3.824   1.102  11.426 -0.5399 -0.1917  0.9422
12839TIP3    H160008   3.745   1.139  11.387 -2.0174 -0.2220  3.8091
12839TIP3    H260009   3.800   1.012  11.448  0.0684 -0.0041  2.4290
12840TIP3   OH260010   0.009   0.559  10.556 -0.3312  0.0451 -0.1920
12840TIP3    H160011  -0.001   0.545  10.462  0.1749 -0.8638 -0.1171
12840TIP3    H260012  -0.076   0.591  10.584 -0.0281  1.8180 -1.2188
12841TIP3   OH260013   2.712   6.261  11.429  0.0706  0.0569 -0.1605
12841TIP3    H160014   2.632   6.272  11.378  0.8406  0.6843 -1.2677
12841TIP3    H260015   2.691   6.296  11.516 -1.0530 -0.4179 -0.2331
12842TIP3   OH260016   6.364   6.740   2.944 -0.5926  0.3367 -0.1992
12842TIP3    H160017   6.408   6.732   3.028 -2.1621 -0.8610  0.5401
12842TIP3    H260018   6.385   6.658   2.899 -0.5635  0.5558 -0.5851
12843TIP3   OH260019   2.618   0.939   2.410  0.0007  0.4287  0.6918
12843TIP3    H160020   2.561   0.930   2.334  1.6114 -0.3233 -0.4558
12843TIP3    H260021   2.628   1.033   2.422  0.6705  0.5524 -0.7580
12844TIP3   OH260022   6.530   0.561   3.801  0.2405  0.3616 -1.0355
12844TIP3    H160023   6.449   0.519   3.770 -1.0999  1.2337  1.1263
12844TIP3    H260024   6.531   0.646   3.757 -1.6823  1.6216  1.2416
12845TIP3   OH260025   4.048   2.840  12.242 -0.6175 -0.5646 -0.0236
12845TIP3    H160026   4.059   2.800  12.156 -3.1143  0.0341 -0.6645
12845TIP3    H260027   3.959   2.817  12.268  0.1631 -0.9008  2.5094
12846TIP3   OH260028   5.484   3.850  17.255  0.2230 -0.1060 -0.3034
12846TIP3    H160029   5.393   3.843  17.285 -0.2202  1.0814 -1.3202
12846TIP3    H260030   5.523   3.918  17.309  0.2350  0.0473 -0.5032
12847TIP3   OH260031   0.029   1.773   0.790  0.2807 -0.0160 -0.3966
12847TIP3    H160032   0.002   1.846   0.734 -0.3992 -0.5060 -0.7088
12847TIP3    H260033   0.124   1.780   0.793  0.2291  0.8009 -0.5442
12848TIP3   OH260034   4.745   4.851   3.645 -0.1537 -0.1058  0.6219
12848TIP3    H160035   4.751   4.783   3.577 -0.6820  0.3442  0.1251
12848TIP3    H260036   4.798   4.923   3.611  0.1283 -0.1391  0.9952
12849TIP3   OH260037   0.250   3.125  12.705 -0.2032 -0.0635  0.2912
12849TIP3    H160038   0.293   3.085  12.629 -2.5949 -0.8977 -0.6902
12849TIP3    H260039   0.278   3.071  12.779  0.0253 -0.9225 -0.4033
12850TIP3   OH260040   3.242   5.962   1.085  0.5328 -0.3639  0.1373
12850TIP3    H160041   3.330   5.927   1.101  0.0580 -1.8303 -0.3854
12850TIP3    H260042   3.184   5.889   1.103 -0.3191 -0.7001 -3.7287
12851TIP3   OH260043   6.756   2.705   4.521 -0.7548  0.2860  0.2289
12851TIP3    H160044   6.774   2.658   4.602 -1.4580  1.5644  1.1408
12851TIP3    H260045   6.675   2.667   4.488  0.3381 -1.2982 -0.7069
12852TIP3   OH260046   1.336   4.019  11.511  0.8042 -0.1096 -0.7116
12852TIP3    H160047   1.420   3.995  11.471  0.0278 -1.8259 -1.3264
12852TIP3    H260048   1.271   4.005  11.442 -0.2591 -0.8137  0.4214
12853TIP3   OH260049   1.876   4.124   5.579  0.6071  0.1633 -0.2683
12853TIP3    H160050   1.860   4.032   5.555 -0.1053 -0.0070  0.8282
12853TIP3    H260051   1.804   4.172   5.539 -0.0052  0.0107  0.6304
12854TIP3   OH260052   4.725   4.780   1.817 -0.0759  0.5817  0.0549
12854TIP3    H160053   4.742   4.712   1.883  0.7859  0.2191 -0.5336
12854TIP3    H260054   4.644   4.821   1.846  0.5090  0.7127  1.5900
12855TIP3   OH260055   4.206   3.379  16.520 -0.0851 -0.2177  0.4484
12855TIP3    H160056   4.251   3.315  16.576  0.3589  0.5215  0.9555
12855TIP3    H260057   4.186   3.451  16.579 -0.2146  0.2886 -0.2137
12856TIP3   OH260058   0.686   3.805  12.966 -0.3300  0.2147 -0.2979
12856TIP3    H160059   0.610   3.759  13.003 -0.5760 -0.3585 -1.4993
12856TIP3    H260060   0.647   3.868  12.905  0.0173  1.8309  1.0921
12857TIP3   OH260061   5.113   5.494  16.548 -0.3374  0.3935  0.1072
12857TIP3    H160062   5.162   5.577  16.551 -0.1545  0.3120 -0.4898
12857TIP3    H260063   5.026   5.520  16.518 -0.2254  0.3462 -0.2597
12858TIP3   OH260064   6.023   1.057   4.704 -0.7799  0.0572 -0.1189
12858TIP3    H160065   6.020   1.064   4.609  0.3456 -0.2925 -0.1924
12858TIP3    H260066   6.094   0.994   4.721 -0.7952  0.3174  0.9523
12859TIP3   OH260067   1.683   0.879   2.726 -0.1214 -0.2310 -0.0291
12859TIP3    H160068   1.604   0.860   2.676 -0.4243 -1.1220  0.7897
12859TIP3    H260069   1.750   0.822   2.688  0.0329  0.2214 -0.4448
12860TIP3   OH260070   3.292   1.468  13.016 -0.0772 -0.0605  0.5547
12860TIP3    H160071   3.330   1.537  13.069  0.5706 -0.2670  0.3619
12860TIP3    H260072   3.271   1.511  12.933  0.8926 -0.2316  0.2143
12861TIP3   OH260073   5.966   1.355   5.737 -0.0042 -0.3146 -0.0953
12861TIP3    H160074   5.898   1.409   5.777  1.2154  1.4960 -0.4023
12861TIP3    H260075   6.018   1.323   5.810  2.0539  2.7637 -0.1381
12862TIP3   OH260076   5.506   3.498  12.701 -0.4571  0.0708  0.0453
12862TIP3    H160077   5.445   3.444  12.651  0.2789 -0.9733  0.2417
12862TIP3    H260078   5.523   3.574  12.644 -0.5729 -0.4960 -0.7617
12863TIP3   OH260079   4.782   6.727   3.138  0.3395 -0.2500 -0.2598
12863TIP3    H160080   4.786   6.666   3.212  1.7324 -1.2223 -1.1325
12863TIP3    H260081   4.783   6.672   3.061 -2.0277  0.7181 -1.0414
12864TIP3   OH260082   6.203   0.978  16.783  0.4070  0.1846 -0.4056
12864TIP3    H160083   6.143   0.989  16.857  0.7710  0.1675 -0.1050
12864TIP3    H260084   6.148   0.989  16.706 -0.3128 -1.5576 -0.1620
12865TIP3   OH260085   0.299   1.682  11.201 -0.0247  0.1658  0.6072
12865TIP3    H160086   0.356   1.690  11.277 -0.8703 -1.2370  1.4076
12865TIP3    H260087   0.217   1.645  11.235  0.2081 -2.1969 -1.2295
12866TIP3   OH260088   2.470   2.537  14.882  0.3790 -0.3407 -0.2580
12866TIP3    H160089   2.516   2.467  14.835  0.1289 -0.4647 -0.3162
12866TIP3    H260090   2.413   2.577  14.817  0.0878 -0.4652 -0.0771
12867TIP3   OH260091   4.003   1.818   2.760 -0.0233  0.4313  0.0678
12867TIP3    H160092   4.012   1.745   2.699 -0.7784 -1.6288  2.2972
12867TIP3    H260093   3.948   1.882   2.715  1.2179 -0.0599 -2.1995
12868TIP3   OH260094   5.464   0.410  11.202 -0.0121 -0.2718  0.0698
12868TIP3    H160095   5.448   0.479  11.138  0.8245  1.0394  1.2488
12868TIP3    H260096   5.453   0.453  11.287  2.6871 -1.0088  0.8430
12869TIP3   OH260097   3.635   4.908   3.780  0.4156 -0.3087 -0.9954
12869TIP3    H160098   3.566   4.852   3.817  1.5304 -0.5586  0.7884
12869TIP3    H260099   3.681   4.851   3.719  0.8640 -1.0486  0.0068
12870TIP3   OH260100   3.879   1.667   3.584  0.5704 -0.2922 -0.0996
12870TIP3    H160101   3.817   1.730   3.547  2.1543  0.7449 -1.0915
12870TIP3    H260102   3.844   1.646   3.670  0.7587  3.0987  0.8748
12871TIP3   OH260103   0.763   0.279   0.549 -0.4179 -0.0861  0.6826
12871TIP3    H160104   0.717   0.351   0.506 -1.2193 -0.5418  0.7514
12871TIP3    H260105   0.855   0.295   0.531 -0.7247 -0.2115 -1.1250
12872TIP3   OH260106   1.201   2.004   5.436  0.0231  0.3577  0.0660
12872TIP3    H160107   1.196   1.980   5.529  0.7409 -1.9667 -0.4693
12872TIP3    H260108   1.252   2.086   5.435  0.7342 -0.0473  1.6500
12873TIP3   OH260109   4.423   6.007   0.758  0.4139  0.1234 -0.0801
12873TIP3    H160110   4.440   5.974   0.670 -0.1626 -0.4415  0.0141
12873TIP3    H260111   4.500   5.982   0.809 -0.3460 -1.8012  0.1794
12874TIP3   OH260112   4.232   0.436  13.987 -0.0091 -0.5099 -0.3959
12874TIP3    H160113   4.243   0.504  14.053 -0.7591 -1.2991  0.5495
12874TIP3    H260114   4.308   0.447  13.929 -0.4312  1.5043 -0.6128
12875TIP3   OH260115   5.661   1.197   1.411 -0.0105  0.0278  0.1238
12875TIP3    H160116   5.720   1.270   1.392 -1.2629  1.6455  2.1140
12875TIP3    H260117   5.718   1.125   1.435  1.1986  1.1777  0.7573
12876TIP3   OH260118   3.831   2.363   3.323  0.0500 -0.4920 -0.4986
12876TIP3    H160119   3.862   2.330   3.239 -0.1319 -0.1631 -0.6936
12876TIP3    H260120   3.817   2.456   3.309  1.5841 -0.1112  0.3408
12877TIP3   OH260121   1.390   1.019  11.428 -0.0717 -0.0027  0.3715
12877TIP3    H160122   1.404   1.065  11.511  2.4193 -0.1439  0.0615
12877TIP3    H260123   1.455   1.056  11.368  0.4003 -2.2294 -0.5508
12878TIP3   OH260124   3.369   1.945   2.594 -0.1605 -0.2767  0.2858
12878TIP3    H160125   3.373   1.864   2.645 -1.5579 -0.7050 -0.2645
12878TIP3    H260126   3.277   1.971   2.598 -0.1443  0.0833 -1.4140
12879TIP3   OH260127   3.620   1.062  13.685  0.0874 -0.3718  0.1383
12879TIP3    H160128   3.702   1.076  13.638 -0.7450  1.0126 -0.9229
12879TIP3    H260129   3.568   1.006  13.628  0.1822 -1.0695  0.7169
12880TIP3   OH260130   4.300   2.856  14.856 -0.2920 -0.0372 -0.0753
12880TIP3    H160131   4.318   2.928  14.916 -0.8244  3.3037 -3.6959
12880TIP3    H260132   4.220   2.815  14.890  0.2292  0.8136  2.2519
12881TIP3   OH260133   2.439   1.082  13.036 -0.0101 -0.3126 -0.0105
12881TIP3    H160134   2.402   1.115  13.118 -0.2624  0.6083 -0.4872
12881TIP3    H260135   2.533   1.086  13.049 -0.0081  1.3454 -0.3251
12882TIP3   OH260136   2.082   1.455  11.861  0.3305  0.0731 -0.0506
12882TIP3    H160137   2.000   1.463  11.812  0.3877  0.8602 -0.0219
12882TIP3    H260138   2.144   1.510  11.812  1.4238 -2.2206 -1.3211
12883TIP3   OH260139   4.908   1.681  10.788 -0.6493  0.1097 -0.3174
12883TIP3    H160140   4.942   1.714  10.705  0.0208 -0.3108 -0.2135
12883TIP3    H260141   4.882   1.591  10.770  2.3978 -1.0309  0.6613
12884TIP3   OH260142   0.389   3.183   1.596  0.6008  0.3697  0.0837
12884TIP3    H160143   0.320   3.239   1.562  1.6346  0.2349 -2.3641
12884TIP3    H260144   0.356   3.152   1.681 -2.1457  0.6228 -0.8546
12885TIP3   OH260145   1.826   1.903  17.157  0.5380  0.4252 -0.1622
12885TIP3    H160146   1.854   1.917  17.067 -0.2048 -2.5993 -0.9388
12885TIP3    H260147   1.749   1.958  17.169  1.1353  1.4579 -1.1128
12886TIP3   OH260148   1.676   4.933   1.368  0.2529 -0.1605 -0.0185
12886TIP3    H160149   1.708   4.933   1.458  1.3516 -1.1816 -0.3885
12886TIP3    H260150   1.615   4.859   1.365  1.3236 -1.0417 -0.4724
12887TIP3   OH260151   1.939   5.662  16.902  0.1280  0.0894  0.3391
12887TIP3    H160152   1.995   5.585  16.905 -0.1430 -0.1195  0.0594
12887TIP3    H260153   1.996   5.732  16.870 -0.1123 -0.4344 -1.2935
12888TIP3   OH260154   1.433   3.769   1.216  0.2029 -0.3222 -0.5155
12888TIP3    H160155   1.414   3.815   1.298 -0.3351  0.3782 -1.0295
12888TIP3    H260156   1.521   3.735   1.228  1.0705  1.8058 -0.5466
12889TIP3   OH260157   0.249   2.948  12.918  0.4019  0.1421 -0.6148
12889TIP3    H160158   0.154   2.953  12.929  0.2670 -0.4729 -1.4525
12889TIP3    H260159   0.277   2.885  12.985  0.3315  0.9502  0.1905
12890TIP3   OH260160   1.892   2.899  16.695 -0.5588 -0.0429 -0.1324
12890TIP3    H160161   1.860   2.963  16.758 -1.3765 -1.3026  0.7604
12890TIP3    H260162   1.865   2.815  16.731 -0.5538 -0.8153 -1.8854
12891TIP3   OH260163   3.819   6.024   2.071 -0.1957 -0.0010 -0.6915
12891TIP3    H160164   3.763   6.039   1.995  0.8246 -1.0245 -1.6465
12891TIP3    H260165   3.907   6.047   2.041  0.2682 -0.7831  0.0643
12892TIP3   OH260166   2.836   1.917  11.574  0.8122  0.1845 -0.0057
12892TIP3    H160167   2.824   1.832  11.616 -0.2786 -0.1483 -0.9537
12892TIP3    H260168   2.919   1.909  11.527 -0.4737 -1.2670 -2.1537
12893TIP3   OH260169   6.379   2.142   1.043  0.0254  0.3065 -0.1691
12893TIP3    H160170   6.285   2.158   1.030  0.0436  0.9973  0.5583
12893TIP3    H260171   6.414   2.134   0.954 -0.4735  1.5154 -0.4858
12894TIP3   OH260172   3.928   3.658   1.299 -0.0622 -0.3453  0.3329
12894TIP3    H160173   3.938   3.704   1.216 -0.0587 -0.9502 -0.0024
12894TIP3    H260174   3.996   3.695   1.355  0.3418 -0.3863 -0.1279
12895TIP3   OH260175   2.619   6.777  15.319  0.8044  0.0694 -0.3808
12895TIP3    H160176   2.539   6.796  15.271  1.5204 -0.0926 -1.6455
12895TIP3    H260177   2.678   6.740  15.254  2.4585  1.6278  0.1988
12896TIP3   OH260178   0.974   2.253   2.822 -0.4173  0.3757  0.6063
12896TIP3    H160179   0.904   2.311   2.853  0.7284  1.3858  1.3057
12896TIP3    H260180   1.002   2.291   2.739  0.7183  1.1512  1.3376
12897TIP3   OH260181   3.498   4.879   4.848  0.1728 -0.2160  0.1349
12897TIP3    H160182   3.543   4.800   4.876  0.6776 -0.1541 -0.4926
12897TIP3    H260183   3.453   4.911   4.927  1.2177 -0.2739  0.7594
12898TIP3   OH260184   4.663   3.639   2.400  0.0625 -0.5166  0.5043
12898TIP3    H160185   4.610   3.565   2.431  0.4070 -1.2258 -0.5513
12898TIP3    H260186   4.646   3.642   2.306  0.8825  0.0848  0.3762
12899TIP3   OH260187   6.177   6.133  12.207  0.3602  0.1163  0.2630
12899TIP3    H160188   6.154   6.084  12.285  1.6527 -0.0652  0.5372
12899TIP3    H260189   6.253   6.088  12.171 -0.3670  0.0413 -1.2539
12900TIP3   OH260190   2.111   2.095   3.731  0.0673 -0.1734 -0.2278
12900TIP3    H160191   2.201   2.128   3.722  0.6509 -1.5255  0.5683
12900TIP3    H260192   2.087   2.115   3.821 -0.0420 -0.7467 -0.1275
12901TIP3   OH260193   6.501   2.807   3.887  0.3887 -0.2802 -0.3396
12901TIP3    H160194   6.589   2.773   3.901  0.5071  0.9182  2.0198
12901TIP3    H260195   6.472   2.765   3.806  2.4591 -2.0014 -0.2389
12902TIP3   OH260196   6.285   2.547   2.232 -0.4814 -0.4505  0.6295
12902TIP3    H160197   6.204   2.497   2.238  0.0560 -1.3915  0.1812
12902TIP3    H260198   6.263   2.632   2.270 -1.3909 -1.0367  1.4571
12903TIP3   OH260199   3.750   5.042  15.396 -0.1802 -0.4777  0.1055
12903TIP3    H160200   3.728   5.105  15.327 -0.6163 -1.3227 -0.5355
12903TIP3    H260201   3.845   5.033  15.391 -0.2356 -0.7273 -0.5578
12904TIP3   OH260202   2.225   3.442  10.921  0.5997 -0.0949 -0.4646
12904TIP3    H160203   2.253   3.533  10.909 -2.1269  0.7090 -1.1208
12904TIP3    H260204   2.218   3.408  10.831  1.7062 -1.0039 -0.2173
12905TIP3   OH260205   1.445   5.570  15.848 -0.0994  0.0419 -0.1486
12905TIP3    H160206   1.373   5.619  15.888 -0.7340  0.1605 -1.4204
12905TIP3    H260207   1.483   5.631  15.785  1.7264  0.3111  1.1674
12906TIP3   OH260208   3.781   2.791   3.031 -1.0236  0.0436 -0.0164
12906TIP3    H160209   3.694   2.770   2.996 -0.9689  0.2354 -0.2692
12906TIP3    H260210   3.766   2.868   3.086 -0.8727  0.5648 -0.7052
12907TIP3   OH260211   6.495   2.439   4.355 -0.2185 -0.2703  0.0608
12907TIP3    H160212   6.428   2.375   4.378 -0.6742  0.3825  0.5559
12907TIP3    H260213   6.467   2.473   4.270 -1.1998  0.9018  0.8307
12908TIP3   OH260214   2.565   2.515   5.554  0.0925 -0.4377 -0.0012
12908TIP3    H160215   2.577   2.554   5.467  0.7583  0.0390  0.2982
12908TIP3    H260216   2.474   2.533   5.576  0.2544  0.5217 -0.0797
12909TIP3   OH260217   0.781   3.109   2.763  0.6486  0.5370 -0.1018
12909TIP3    H160218   0.691   3.085   2.785  1.2787 -1.1786  0.6619
12909TIP3    H260219   0.786   3.100   2.668 -0.1637  1.3367 -0.2353
12910TIP3   OH260220   0.817   1.860   1.021  0.0291 -0.2819 -0.3670
12910TIP3    H160221   0.849   1.834   1.108 -0.7398  0.5926  0.1807
12910TIP3    H260222   0.897   1.868   0.968  0.4039 -2.2154 -0.1488
12911TIP3   OH260223   0.973   3.224   1.019  0.6650  0.1440 -0.0451
12911TIP3    H160224   0.975   3.267   1.105  2.2647  1.5250 -0.7345
12911TIP3    H260225   1.012   3.138   1.035 -0.5758 -0.2558  0.9247
12912TIP3   OH260226   6.524   4.794   4.311  0.3972 -0.6632  0.3240
12912TIP3    H160227   6.529   4.889   4.296  1.2807 -0.8868 -0.7862
12912TIP3    H260228   6.511   4.756   4.224 -0.4615 -1.5351  0.8230
12913TIP3   OH260229   2.116   2.392  14.667  0.2398  0.2852  0.3693
12913TIP3    H160230   2.193   2.448  14.660 -1.3401  2.1503 -3.3801
12913TIP3    H260231   2.049   2.447  14.707 -1.0566  0.8730 -2.5043
12914TIP3   OH260232   3.671   3.264  11.699  0.2924  0.1139 -0.4603
12914TIP3    H160233   3.707   3.352  11.702  0.0522  0.2381 -1.1461
12914TIP3    H260234   3.667   3.242  11.605 -0.1643 -0.4036 -0.3277
12915TIP3   OH260235   1.461   3.909   4.245  0.0576 -0.1594  0.0768
12915TIP3    H160236   1.413   3.991   4.256  0.5503  0.2130 -0.4978
12915TIP3    H260237   1.507   3.896   4.328 -0.4002 -0.1056  0.3424
12916TIP3   OH260238   3.180   0.193   5.671 -0.6439  0.3541  0.4367
12916TIP3    H160239   3.244   0.122   5.676  0.8516  1.5895 -0.5708
12916TIP3    H260240   3.097   0.153   5.698  0.3518 -1.5182  0.8100
12917TIP3   OH260241   4.119   4.022   4.539  0.0083 -0.5681  0.0134
12917TIP3    H160242   4.040   3.971   4.557  1.1387 -2.1465  0.6372
12917TIP3    H260243   4.179   3.959   4.498  0.9485  0.6127 -0.4543
12918TIP3   OH260244   6.799   5.466  17.130  0.1392  0.0003  0.4026
12918TIP3    H160245   6.818   5.488  17.038 -0.0450  1.4498  0.6988
12918TIP3    H260246   6.805   5.549  17.176 -1.6699 -0.3781  1.3912
12919TIP3   OH260247   3.515   0.126   0.701 -0.4088  0.2332 -0.0425
12919TIP3    H160248   3.449   0.119   0.631  1.2142 -0.2898 -1.5438
12919TIP3    H260249   3.519   0.038   0.738  1.4077 -0.4605 -1.7987
12920TIP3   OH260250   3.357   3.833   3.145  0.1572  0.1170 -0.0237
12920TIP3    H160251   3.277   3.854   3.193  1.3670  0.8126  1.7004
12920TIP3    H260252   3.428   3.864   3.200  1.5965  0.7775 -2.1654
12921TIP3   OH260253   5.901   5.847   5.447 -0.1945 -0.6352 -0.4959
12921TIP3    H160254   5.893   5.762   5.490  0.4969 -0.1089  0.6938
12921TIP3    H260255   5.953   5.829   5.368  1.0383 -1.0889  0.4115
12922TIP3   OH260256   5.552   0.389   3.230 -0.4047 -0.0186  0.6225
12922TIP3    H160257   5.582   0.467   3.276  0.9703  1.6601 -2.9831
12922TIP3    H260258   5.467   0.414   3.193  0.3619  0.0636 -1.1341
12923TIP3   OH260259   3.330   1.084   6.792  0.4566  0.1000  0.5422
12923TIP3    H160260   3.341   1.161   6.737  2.0313  1.0876  2.2230
12923TIP3    H260261   3.236   1.067   6.791  0.3181  0.8199 -1.4392
12924TIP3   OH260262   3.008   3.968  12.215 -0.3787  0.2000 -0.4588
12924TIP3    H160263   2.937   4.007  12.163 -0.0429  0.7563 -0.4997
12924TIP3    H260264   3.046   4.042  12.262 -0.4421 -0.2508  0.2928
12925TIP3   OH260265   6.169   2.636   5.694 -0.4471  0.5294  0.1329
12925TIP3    H160266   6.168   2.577   5.769  1.5568 -1.3519 -1.2450
12925TIP3    H260267   6.100   2.602   5.636 -0.3800  0.5290  0.0539
12926TIP3   OH260268   6.013   5.076  10.357  0.1418  0.6240  0.6226
12926TIP3    H160269   6.072   5.143  10.391  1.4450 -1.1852  2.1166
12926TIP3    H260270   5.930   5.090  10.402  0.6924  0.6730  1.6257
12927TIP3   OH260271   6.603   2.571  13.862  0.3763 -0.5479  0.0677
12927TIP3    H160272   6.692   2.547  13.889  1.0247  1.6380 -0.0419
12927TIP3    H260273   6.590   2.526  13.779  0.8144 -2.0530  0.7873
12928TIP3   OH260274   3.198   3.530   5.712  0.4466 -0.7841 -0.1967
12928TIP3    H160275   3.212   3.465   5.780  0.7272  0.5304  1.0227
12928TIP3    H260276   3.261   3.507   5.643  0.3276 -1.9698  0.0866
12929TIP3   OH260277   4.143   6.684   4.059  0.3516  0.3659 -0.4323
12929TIP3    H160278   4.165   6.629   3.984 -0.2704 -1.0636  0.4142
12929TIP3    H260279   4.228   6.707   4.097  0.6262  0.2568 -0.9667
12930TIP3   OH260280   6.311   1.405  12.293  0.2848  0.6383  1.0592
12930TIP3    H160281   6.268   1.351  12.226  0.0779  1.7073  0.3109
12930TIP3    H260282   6.405   1.391  12.278  0.2635 -2.4320  3.2947
12931TIP3   OH260283   6.321   5.042  16.223 -0.0808  0.8700 -0.0807
12931TIP3    H160284   6.264   4.998  16.285  0.2638 -0.1209 -0.4579
12931TIP3    H260285   6.355   5.118  16.270 -0.3004  0.4648  0.7267
12932TIP3   OH260286   0.627   0.774   1.481 -0.0965 -0.4864 -0.9455
12932TIP3    H160287   0.586   0.830   1.415 -0.1106 -0.5845 -1.0202
12932TIP3    H260288   0.717   0.762   1.450 -0.2192 -0.8722 -1.1654
12933TIP3   OH260289   3.699   0.980  13.920  0.4563 -0.4365  0.9264
12933TIP3    H160290   3.673   0.995  13.829 -2.0264  0.6443  1.7668
12933TIP3    H260291   3.700   0.885  13.929 -1.4251 -0.5332  0.3201
12934TIP3   OH260292   5.777   4.438   5.768 -0.3687 -0.3424  0.4839
12934TIP3    H160293   5.796   4.508   5.706 -0.6840 -0.2322  0.5117
12934TIP3    H260294   5.857   4.385   5.770  0.1312  0.4141  0.9922
12935TIP3   OH260295   6.140   3.506  11.680  0.3797 -0.1992 -0.1163
12935TIP3    H160296   6.173   3.533  11.594  0.3362 -1.1540 -0.4421
12935TIP3    H260297   6.087   3.579  11.709  0.7860  0.3343 -0.6928
12936TIP3   OH260298   3.957   5.758   0.908  0.0124 -0.6371 -0.5607
12936TIP3    H160299   3.982   5.704   0.983  1.3307  0.1707 -0.4083
12936TIP3    H260300   4.040   5.780   0.865 -0.5672  0.6562 -1.0377
12937TIP3   OH260301   1.380   1.911   0.215  0.4374  0.6304  0.1341
12937TIP3    H160302   1.452   1.856   0.244  1.9319  2.3670 -0.1844
12937TIP3    H260303   1.413   2.001   0.224 -1.4255  1.4345 -0.7011
12938TIP3   OH260304   3.125   2.916   4.840  0.1663 -0.3484 -0.7097
12938TIP3    H160305   3.133   2.834   4.889  1.3608  1.6923  2.6520
12938TIP3    H260306   3.094   2.980   4.903 -0.9352  1.8174 -3.3188
12939TIP3   OH260307   1.628   3.453  17.190  0.6162  0.4705 -0.3340
12939TIP3    H160308   1.677   3.490  17.263 -1.1278  1.7843  0.2204
12939TIP3    H260309   1.576   3.383  17.230  1.9406 -0.8524 -0.8982
12940TIP3   OH260310   3.336   0.037   0.111 -0.2765 -0.0309 -0.1303
12940TIP3    H160311   3.399   0.075   0.173 -0.9827  0.7708  0.0945
12940TIP3    H260312   3.306   0.110   0.058  0.8929 -0.8332 -1.9740
12941TIP3   OH260313   0.559   1.478   2.010 -0.1973  0.8457  0.2180
12941TIP3    H160314   0.590   1.512   1.926 -1.1438  0.2934 -0.3574
12941TIP3    H260315   0.464   1.477   2.002 -0.1843 -2.4557  0.0049
12942TIP3   OH260316   5.041   6.164  14.487 -0.8588 -0.0309  0.2390
12942TIP3    H160317   4.970   6.223  14.513 -0.6617  0.9078 -1.2931
12942TIP3    H260318   5.117   6.195  14.536 -0.8202  0.8594 -0.3589
12943TIP3   OH260319   2.655   4.110  12.752 -0.2559 -0.1097  0.1557
12943TIP3    H160320   2.694   4.084  12.835  0.6235 -1.0381 -0.5399
12943TIP3    H260321   2.561   4.114  12.769 -0.0989 -0.6020  1.1067
12944TIP3   OH260322   1.108   1.599  14.781 -0.6036  0.2874  0.1032
12944TIP3    H160323   1.157   1.525  14.817  1.1059  0.9076 -0.8995
12944TIP3    H260324   1.136   1.674  14.833 -0.5052  0.6423 -0.4599
12945TIP3   OH260325   5.836   6.653   3.132 -0.3465 -0.1056  0.1798
12945TIP3    H160326   5.845   6.624   3.222 -1.4291  0.6396  0.5245
12945TIP3    H260327   5.890   6.732   3.127  1.1958 -1.1656 -0.3125
12946TIP3   OH260328   4.143   1.502   2.929 -0.6611 -0.2985  0.4662
12946TIP3    H160329   4.082   1.461   2.867 -3.0282  2.0311  1.1680
12946TIP3    H260330   4.087   1.536   2.999  1.2890  3.2727  0.3907
12947TIP3   OH260331   1.110   0.545   1.080 -0.0189  0.3082 -0.1105
12947TIP3    H160332   1.052   0.521   1.153  0.3492 -1.5819 -0.4016
12947TIP3    H260333   1.181   0.480   1.084  1.0961  1.4603 -0.8922
12948TIP3   OH260334   4.118   3.697  17.002 -0.4246  0.4302  0.3711
12948TIP3    H160335   4.095   3.790  17.009 -1.3898  0.3025 -1.0469
12948TIP3    H260336   4.210   3.697  16.977 -0.4937  1.0026  0.1100
12949TIP3   OH260337   1.783   4.051  12.887 -0.4652  0.1681  0.0817
12949TIP3    H160338   1.719   4.118  12.862  0.6978  0.9271 -0.8924
12949TIP3    H260339   1.859   4.100  12.918  0.2951 -0.7094 -0.3822
12950TIP3   OH260340   4.367   4.728   5.136  0.0751  0.2496  0.0708
12950TIP3    H160341   4.278   4.729   5.172 -0.1151  0.7676 -0.4086
12950TIP3    H260342   4.380   4.638   5.107 -0.5818  0.3540 -0.5593
12951TIP3   OH260343   0.722   3.193  13.315 -0.4900  0.7052  0.3111
12951TIP3    H160344   0.641   3.142  13.317  0.1148 -0.3035 -0.2268
12951TIP3    H260345   0.770   3.158  13.240  0.1607  1.7270  0.2480
12952TIP3   OH260346   5.550   0.182   2.629 -0.1132 -0.3728  0.1018
12952TIP3    H160347   5.534   0.200   2.537  0.4577  1.5132  0.3389
12952TIP3    H260348   5.638   0.145   2.632 -0.7990 -2.1038 -0.2610
12953TIP3   OH260349   3.289   3.267  15.591  0.0728 -0.1652  0.2205
12953TIP3    H160350   3.344   3.271  15.513  0.1199 -0.5099  0.2392
12953TIP3    H260351   3.349   3.284  15.664 -0.1486  1.1699  0.1035
12954TIP3   OH260352   1.314   3.410  14.021 -0.2522 -0.1740  0.3808
12954TIP3    H160353   1.302   3.328  13.972 -0.8354 -1.9372  3.3275
12954TIP3    H260354   1.225   3.440  14.039 -0.0358  1.1448 -0.7017
12955TIP3   OH260355   1.913   6.222   4.088 -0.1376 -0.3324  0.1040
12955TIP3    H160356   1.825   6.207   4.123  0.1469 -0.5419  0.7375
12955TIP3    H260357   1.965   6.246   4.165  0.1126  0.8677 -0.4348
12956TIP3   OH260358   6.449   6.204   3.649 -0.5287 -0.2215 -0.2687
12956TIP3    H160359   6.498   6.202   3.731  0.0948  1.1281 -0.6041
12956TIP3    H260360   6.414   6.115   3.640 -1.7765 -0.0058  2.1546
12957TIP3   OH260361   3.770   6.766   0.685  0.2006  0.5317 -0.0511
12957TIP3    H160362   3.824   6.798   0.757  2.6340 -0.5442 -1.3215
12957TIP3    H260363   3.711   6.702   0.725  0.8380  0.6703  1.1281
12958TIP3   OH260364   0.511   0.783   1.063  0.4970  0.4477 -0.3244
12958TIP3    H160365   0.533   0.855   1.123  0.5319  1.1816 -1.1929
12958TIP3    H260366   0.419   0.798   1.042  0.1080 -0.6001  0.5990
12959TIP3   OH260367   0.148   2.174  14.678  0.2002 -0.4028 -0.1912
12959TIP3    H160368   0.071   2.213  14.638  0.7919  0.6221 -0.3367
12959TIP3    H260369   0.119   2.087  14.708 -1.1330  0.1858  0.2258
12960TIP3   OH260370   5.505   0.305  12.891  0.6363 -0.7026  0.6836
12960TIP3    H160371   5.575   0.370  12.887  0.0887 -0.1865 -1.5844
12960TIP3    H260372   5.466   0.307  12.803 -1.4692 -1.7975  1.5568
12961TIP3   OH260373   5.399   3.946  12.078  0.1400 -0.1946 -0.3457
12961TIP3    H160374   5.319   3.989  12.110  0.2411 -0.6587  0.5418
12961TIP3    H260375   5.367   3.884  12.012 -0.1991 -0.1396 -0.2362
12962TIP3   OH260376   6.086   3.565  14.316  0.3131 -0.2242 -0.7061
12962TIP3    H160377   6.146   3.504  14.273 -2.3998 -3.5165  0.0004
12962TIP3    H260378   6.011   3.571  14.257 -1.4080 -1.1603  1.3231
12963TIP3   OH260379   6.281   3.049   4.973 -0.1727 -0.5573 -0.0867
12963TIP3    H160380   6.340   3.106   5.023 -1.4058  0.5632  0.1153
12963TIP3    H260381   6.235   2.997   5.039 -1.3176  0.4526 -0.0615
12964TIP3   OH260382   0.582   3.543   5.097  0.3331  0.0465  0.1161
12964TIP3    H160383   0.506   3.493   5.067  1.0261 -0.9969  0.0994
12964TIP3    H260384   0.608   3.595   5.021 -0.2350  0.2538  0.0592
12965TIP3   OH260385   4.687   5.989   1.280 -0.3886  0.8042 -0.4405
12965TIP3    H160386   4.706   6.053   1.349 -0.8357  1.0362 -0.5305
12965TIP3    H260387   4.614   6.028   1.231 -0.9615  0.0154 -0.2224
12966TIP3   OH260388   2.609   5.884  11.192  0.0417 -0.4141 -0.2233
12966TIP3    H160389   2.553   5.853  11.263  1.9335 -0.5158  1.2587
12966TIP3    H260390   2.612   5.979  11.204 -0.9514 -0.2407 -1.1898
12967TIP3   OH260391   2.974   3.138   0.866  0.4302  0.0485  0.6572
12967TIP3    H160392   3.028   3.124   0.944 -0.5282 -0.0877  1.3100
12967TIP3    H260393   2.958   3.050   0.833 -0.2653  0.0148  1.0738
12968TIP3   OH260394   0.804   0.068  13.696 -0.1727 -0.1923 -0.2589
12968TIP3    H160395   0.779   0.117  13.774 -1.1887  0.4803 -0.9895
12968TIP3    H260396   0.787   0.129  13.623  3.5658  0.3260 -0.8457
12969TIP3   OH260397   3.724   1.989   5.294 -0.2495  0.3783 -0.4730
12969TIP3    H160398   3.728   2.085   5.283  1.1776  0.2330 -1.4402
12969TIP3    H260399   3.722   1.955   5.204  0.9531 -0.5515 -0.1558
12970TIP3   OH260400   1.797   5.396  15.632 -0.5863 -0.1339 -0.1348
12970TIP3    H160401   1.881   5.350  15.632  1.0611  2.7400  0.8755
12970TIP3    H260402   1.763   5.383  15.543  0.8243 -1.5323 -0.4979
12971TIP3   OH260403   3.224   3.977  16.954  0.6758 -0.4201  0.0549
12971TIP3    H160404   3.235   3.927  16.873 -0.6986  0.8913 -0.9741
12971TIP3    H260405   3.271   4.059  16.937  0.6636 -0.2758  0.7132
12972TIP3   OH260406   6.695   5.164  12.130  0.4343 -0.2052 -0.5509
12972TIP3    H160407   6.786   5.137  12.120 -0.3554 -2.6978 -1.2161
12972TIP3    H260408   6.673   5.208  12.048  1.2208  1.0619 -0.1067
12973TIP3   OH260409   0.113   0.039   6.121 -0.2882  0.3462  0.1437
12973TIP3    H160410   0.053   0.108   6.147 -0.8264  0.3239 -0.9996
12973TIP3    H260411   0.183   0.084   6.074  0.5466  0.3630  1.3963
12974TIP3   OH260412   5.841   3.213   1.085 -0.4727 -0.2784  0.2094
12974TIP3    H160413   5.921   3.220   1.136 -0.2406 -0.5572 -0.1176
12974TIP3    H260414   5.869   3.178   1.000 -0.4693  2.6338 -1.0546
12975TIP3   OH260415   2.786   4.085  12.982 -0.2478  0.2007  0.1936
12975TIP3    H160416   2.808   4.033  13.059  0.2109  0.4132  0.2074
12975TIP3    H260417   2.843   4.162  12.988 -1.0202  0.7741  0.2579
12976TIP3   OH260418   6.297   5.724  15.440  0.1901  0.0954  0.1653
12976TIP3    H160419   6.317   5.778  15.363  1.9799 -1.1854 -0.3198
12976TIP3    H260420   6.318   5.779  15.515  1.0531  0.4220 -0.3094
12977TIP3   OH260421   6.144   3.291   6.146  0.1506 -0.7010 -0.2113
12977TIP3    H160422   6.231   3.313   6.179 -1.2669  2.1765  1.7701
12977TIP3    H260423   6.141   3.330   6.059  1.4485 -2.3464 -1.0131
12978TIP3   OH260424   4.024   3.442  12.219  0.1730 -0.0631 -0.1249
12978TIP3    H160425   3.968   3.435  12.296 -1.1266  0.7168 -0.9711
12978TIP3    H260426   3.963   3.444  12.145  1.3933 -0.7395 -1.1736
12979TIP3   OH260427   3.199   3.217  14.983 -0.4863 -0.1337 -0.4533
12979TIP3    H160428   3.267   3.210  14.917 -2.0428  0.9947 -2.2390
12979TIP3    H260429   3.245   3.246  15.062  1.0898  0.6786 -1.6433
12980TIP3   OH260430   1.934   5.419   1.478 -1.3344  0.1758  0.0005
12980TIP3    H160431   1.860   5.467   1.441  0.2996  2.8463  0.0936
12980TIP3    H260432   1.958   5.355   1.410 -3.1768 -0.1542 -0.3602
12981TIP3   OH260433   2.466   1.803  14.577 -0.5133 -0.5862  0.1280
12981TIP3    H160434   2.410   1.783  14.652 -0.5913 -0.9944 -0.0405
12981TIP3    H260435   2.420   1.768  14.501 -0.4528 -0.1377 -0.1209
12982TIP3   OH260436   1.450   2.645   5.049 -0.1816  0.1557  0.3041
12982TIP3    H160437   1.499   2.724   5.024 -1.0364  0.8917  0.9475
12982TIP3    H260438   1.483   2.624   5.136 -0.4993  0.2418  0.4447
12983TIP3   OH260439   2.689   0.940  13.109  0.4519 -0.1303  0.5013
12983TIP3    H160440   2.724   0.851  13.114 -1.7143 -1.2265 -2.1439
12983TIP3    H260441   2.650   0.956  13.195  0.8166 -1.7831  0.9807
12984TIP3   OH260442   6.647   0.455   4.024  0.2006 -0.3992 -0.3681
12984TIP3    H160443   6.619   0.507   3.949  0.5838 -0.3849 -0.5007
12984TIP3    H260444   6.570   0.450   4.079 -0.0202 -0.2217 -0.6579
12985TIP3   OH260445   2.179   5.243  16.776  0.1799 -0.9909 -0.7831
12985TIP3    H160446   2.133   5.163  16.800  1.4301 -1.4712  0.0751
12985TIP3    H260447   2.177   5.244  16.680 -2.0272 -0.7372 -0.7653
12986TIP3   OH260448   1.679   3.048  16.213  0.3243 -0.3218  0.2745
12986TIP3    H160449   1.709   2.990  16.283  0.8206 -0.1659  0.1899
12986TIP3    H260450   1.743   3.119  16.211  0.9658 -0.9214 -1.1245
12987TIP3   OH260451   3.977   2.999   4.940 -0.1138  0.3406 -0.2477
12987TIP3    H160452   4.053   2.976   4.885  0.8268  2.2571  0.2247
12987TIP3    H260453   4.005   3.076   4.989 -2.5686  1.4150 -0.4510
12988TIP3   OH260454   3.913   2.770  14.220  0.9438 -0.0300  0.3157
12988TIP3    H160455   3.961   2.851  14.236  0.1703  0.4406  0.3257
12988TIP3    H260456   3.916   2.723  14.304 -0.2045  0.8621  0.8724
12989TIP3   OH260457   5.462   2.094   0.432 -0.6147  0.0042 -0.5110
12989TIP3    H160458   5.558   2.096   0.441 -0.6304 -0.3094 -0.2642
12989TIP3    H260459   5.448   2.067   0.341 -0.4681  0.3006 -0.6223
12990TIP3   OH260460   6.352   0.663   4.367 -1.1732 -0.0420 -0.2267
12990TIP3    H160461   6.356   0.617   4.451  0.2589 -1.3773 -1.0117
12990TIP3    H260462   6.443   0.680   4.344 -1.6151  1.7413 -0.7578
12991TIP3   OH260463   1.976   4.063  13.311 -0.5485  0.0597 -0.5357
12991TIP3    H160464   1.891   4.078  13.269  0.0355 -1.2931 -2.2558
12991TIP3    H260465   2.025   4.144  13.298 -0.9890  0.2556 -0.9686
12992TIP3   OH260466   0.428   3.212  16.963  0.1026 -0.4667  0.3867
12992TIP3    H160467   0.419   3.169  17.048 -2.3297 -2.4656 -0.7953
12992TIP3    H260468   0.354   3.273  16.958 -0.5737 -1.3458 -0.7885
12993TIP3   OH260469   4.306   3.267  16.008  0.0003  0.0693  0.2347
12993TIP3    H160470   4.273   3.303  16.090 -1.8143 -2.4789  0.6801
12993TIP3    H260471   4.270   3.325  15.941  0.0631  1.1515  1.1096
12994TIP3   OH260472   4.759   1.242   2.617  0.0697 -0.3696 -0.1763
12994TIP3    H160473   4.822   1.288   2.561  3.6011 -4.4809  0.1459
12994TIP3    H260474   4.695   1.205   2.556 -0.7729  1.9406 -0.7193
12995TIP3   OH260475   6.275   4.760   3.309 -0.6514  0.0871  0.7045
12995TIP3    H160476   6.341   4.691   3.317 -0.7957 -0.2818 -1.0571
12995TIP3    H260477   6.283   4.789   3.218  0.0062  3.0130  1.6583
12996TIP3   OH260478   1.571   2.391   6.049  0.2135 -0.5793 -0.2142
12996TIP3    H160479   1.607   2.317   6.001  2.0902  0.4843 -0.5324
12996TIP3    H260480   1.578   2.367   6.141  0.6131 -0.8869 -0.3262
12997TIP3   OH260481   1.793   1.670   4.484  0.4778  0.3551 -1.0172
12997TIP3    H160482   1.863   1.681   4.420  2.1765 -2.2407  0.3381
12997TIP3    H260483   1.835   1.684   4.568 -1.6829  3.5266 -0.3596
12998TIP3   OH260484   2.225   6.463   1.279 -0.3563 -0.0009  0.5112
12998TIP3    H160485   2.243   6.551   1.249 -0.5231 -0.1072  0.0988
12998TIP3    H260486   2.129   6.459   1.285 -0.3801 -0.3666 -0.1129
12999TIP3   OH260487   4.579   3.441  13.161 -0.1732  0.3904  0.1960
12999TIP3    H160488   4.589   3.361  13.213  0.9432  0.2421 -0.2239
12999TIP3    H260489   4.556   3.509  13.225 -0.6285 -0.1597  0.6206
13000TIP3   OH260490   2.066   3.416  14.350  0.4970  0.3356  0.3742
13000TIP3    H160491   2.015   3.460  14.418 -0.5822  1.7221 -1.3019
13000TIP3    H260492   2.100   3.487  14.295  0.1109 -0.8047 -1.4029
13001TIP3   OH260493   6.006   1.374  14.299  0.0699  0.2358 -0.4082
13001TIP3    H160494   6.053   1.457  14.291  0.0011  0.2198 -1.0549
13001TIP3    H260495   6.047   1.317  14.234 -1.6242  0.6029 -1.8733
13002TIP3   OH260496   3.321   2.615   4.182 -0.1748 -0.2180 -0.1623
13002TIP3    H160497   3.307   2.642   4.273 -0.7854  2.5786 -1.0478
13002TIP3    H260498   3.417   2.607   4.175 -0.0254  1.1245  0.2897
13003TIP3   OH260499   1.427   4.764   0.302 -0.0510  0.4400 -0.5359
13003TIP3    H160500   1.419   4.734   0.392  0.3961  0.0419 -0.6292
13003TIP3    H260501   1.426   4.859   0.308 -2.3372  0.4272 -0.3139
13004TIP3   OH260502   1.242   5.421   3.829 -0.1042  0.1024 -0.2507
13004TIP3    H160503   1.150   5.422   3.854 -0.3031 -0.1364 -0.9553
13004TIP3    H260504   1.274   5.509   3.850 -0.7539  0.5122 -0.9730
13005TIP3   OH260505   2.706   5.058  13.368  0.3388 -0.6942  0.7679
13005TIP3    H160506   2.651   5.109  13.309 -0.2177 -3.5514 -1.2569
13005TIP3    H260507   2.713   5.112  13.447 -2.3790  1.2949 -0.2910
13006TIP3   OH260508   5.847   6.369   3.482  0.1652  0.3150 -0.2245
13006TIP3    H160509   5.886   6.376   3.395 -0.8261  1.0368 -0.6301
13006TIP3    H260510   5.782   6.299   3.474 -0.6862  1.1174 -0.3642
13007TIP3   OH260511   6.641   5.144  15.449  0.0169 -0.7472 -0.4439
13007TIP3    H160512   6.674   5.097  15.525  0.9390 -0.0213 -0.3822
13007TIP3    H260513   6.556   5.178  15.477  0.6687  0.1226  0.5164
13008TIP3   OH260514   4.459   5.401  14.863  0.1522  0.3119 -0.2161
13008TIP3    H160515   4.515   5.479  14.860  0.0322  0.4135  0.1693
13008TIP3    H260516   4.437   5.391  14.955  0.1407 -0.1606 -0.2705
13009TIP3   OH260517   3.621   6.051   2.426  0.1116  0.7132 -0.0623
13009TIP3    H160518   3.540   6.011   2.395  0.0180  1.7801 -1.2760
13009TIP3    H260519   3.618   6.043   2.521 -0.8030 -0.4099 -0.1822
13010TIP3   OH260520   0.871   6.788   2.255 -0.0968 -0.2734  0.1175
13010TIP3    H160521   0.878   6.800   2.160  0.9842 -1.2524  0.0671
13010TIP3    H260522   0.927   6.857   2.292 -1.6372  1.0278  0.1075
13011TIP3   OH260523   5.449   5.685   4.086  0.3839 -0.1931  0.3635
13011TIP3    H160524   5.396   5.611   4.115  1.1660 -0.5557  0.8567
13011TIP3    H260525   5.389   5.760   4.087 -0.5280 -0.8962 -0.5665
13012TIP3   OH260526   6.690   5.602  11.007 -0.3610 -0.2895  0.0520
13012TIP3    H160527   6.747   5.662  10.959 -2.6066  1.7764 -0.1399
13012TIP3    H260528   6.641   5.556  10.940 -3.4428  2.5409  0.2497
13013TIP3   OH260529   1.585   6.796   2.737  0.1356  0.4622  0.3236
13013TIP3    H160530   1.491   6.784   2.720  0.1009  2.0710 -0.7304
13013TIP3    H260531   1.609   6.721   2.790 -1.4987 -0.6162 -0.4015
13014TIP3   OH260532   5.343   0.463   4.550  0.0480 -0.1966  0.4146
13014TIP3    H160533   5.354   0.390   4.611 -0.2358 -0.4092  0.2092
13014TIP3    H260534   5.290   0.428   4.479 -0.6551  0.4047  0.6367
13015TIP3   OH260535   2.206   6.285  13.392 -0.2348  0.4534  0.2800
13015TIP3    H160536   2.277   6.291  13.327 -0.1450  0.9393  0.4252
13015TIP3    H260537   2.251   6.286  13.476 -0.1978 -2.1142  0.3417
13016TIP3   OH260538   3.553   5.924   1.104  0.7477 -0.3157  0.3222
13016TIP3    H160539   3.539   5.981   1.028 -1.4706  0.4235  1.2760
13016TIP3    H260540   3.649   5.915   1.109  0.8936 -1.8589 -3.6237
13017TIP3   OH260541   4.286   3.223  15.074  0.2088 -0.5151  0.1165
13017TIP3    H160542   4.270   3.191  15.163  0.7484  1.4647  0.9583
13017TIP3    H260543   4.375   3.194  15.054  0.5849  0.1582  0.7574
13018TIP3   OH260544   0.349   5.224   4.241  1.1289 -0.3588 -0.2300
13018TIP3    H160545   0.336   5.258   4.153  2.3634  0.8240  0.0367
13018TIP3    H260546   0.277   5.261   4.292 -0.7471 -2.6352 -1.1465
13019TIP3   OH260547   5.105   5.216   6.135 -0.7210  0.1367  0.0184
13019TIP3    H160548   5.146   5.142   6.180 -1.0716  0.5088  0.9509
13019TIP3    H260549   5.039   5.249   6.196  1.0347  2.7246  0.5946
13020TIP3   OH260550   4.663   3.904   3.518  0.1940  0.5611  0.2110
13020TIP3    H160551   4.701   3.972   3.462  2.0824 -0.7418 -0.1685
13020TIP3    H260552   4.581   3.879   3.476  0.3365  1.4106 -0.5624
13021TIP3   OH260553   5.058   1.291  14.124 -0.7739 -0.6517  0.9054
13021TIP3    H160554   5.012   1.375  14.127 -0.1203 -0.2903  0.8030
13021TIP3    H260555   5.150   1.313  14.137 -0.7442 -1.4774  2.1658
13022TIP3   OH260556   4.458   3.953  15.095  0.3007  0.0902 -0.2208
13022TIP3    H160557   4.412   3.924  15.016  0.0948 -0.8388  0.2354
13022TIP3    H260558   4.389   3.966  15.160  0.5371  0.1754  0.0132
13023TIP3   OH260559   0.079   3.665   5.829 -0.0157 -0.9606  0.5438
13023TIP3    H160560   0.121   3.751   5.827  0.9777 -1.3896  2.1381
13023TIP3    H260561   0.040   3.655   5.742 -1.7664  1.8967  0.9313
13024TIP3   OH260562   5.386   4.256  13.224 -0.4651  0.4481  0.0764
13024TIP3    H160563   5.385   4.183  13.163  2.2070  0.2025  0.2805
13024TIP3    H260564   5.445   4.320  13.185  0.3780  0.7711  1.8269
13025TIP3   OH260565   5.988   6.682  13.463  0.8171  0.2207  0.2931
13025TIP3    H160566   5.906   6.671  13.414 -0.0540 -1.3621  2.0566
13025TIP3    H260567   6.055   6.641  13.409  0.6455  2.2776 -1.5751
13026TIP3   OH260568   3.467   3.101  13.186 -1.0432  0.1780 -0.5250
13026TIP3    H160569   3.419   3.021  13.205 -1.2775 -0.2189 -2.6861
13026TIP3    H260570   3.452   3.157  13.263  0.4588 -2.4275  1.7689
13027TIP3   OH260571   4.026   1.848  13.850  0.4568  0.0105  0.1441
13027TIP3    H160572   4.075   1.783  13.900 -1.5564 -1.7928 -0.1033
13027TIP3    H260573   3.985   1.797  13.779  0.7232  1.9792 -1.4630
13028TIP3   OH260574   2.637   4.664  15.000  0.7144 -0.0041  0.2816
13028TIP3    H160575   2.682   4.641  15.081  2.4156 -1.0658 -0.9266
13028TIP3    H260576   2.665   4.597  14.937 -0.6481  0.7448 -1.1510
13029TIP3   OH260577   2.319   0.763  11.607 -0.0312  0.0137 -0.3798
13029TIP3    H160578   2.360   0.773  11.521 -0.8221  1.6111 -0.5841
13029TIP3    H260579   2.390   0.733  11.664  0.9480  0.7761 -1.1810
13030TIP3   OH260580   6.666   0.475  12.168 -0.0474  0.0209 -0.1420
13030TIP3    H160581   6.733   0.524  12.120 -0.1523 -0.7412 -1.0830
13030TIP3    H260582   6.588   0.480  12.113 -0.0488 -1.2348 -0.2669
13031TIP3   OH260583   0.157   4.413  16.640  0.1673 -0.3609 -0.1367
13031TIP3    H160584   0.232   4.462  16.605 -0.5312  0.5824 -0.3276
13031TIP3    H260585   0.138   4.348  16.573  1.1035 -0.9057  0.1201
13032TIP3   OH260586   5.837   5.506   3.575 -0.0305  0.3172  0.5138
13032TIP3    H160587   5.910   5.550   3.531  0.1344 -0.1327  0.3373
13032TIP3    H260588   5.869   5.488   3.663 -1.2985  3.6803  1.7519
13033TIP3   OH260589   0.748   2.684  14.759 -0.1002 -0.5821 -0.2663
13033TIP3    H160590   0.806   2.723  14.694 -0.3639  0.0286 -0.1427
13033TIP3    H260591   0.679   2.642  14.709 -0.9666  0.9300 -0.3633
13034TIP3   OH260592   4.557   6.271  11.435  0.5995 -0.0736  0.0959
13034TIP3    H160593   4.651   6.261  11.422  0.6489 -0.3167  0.6230
13034TIP3    H260594   4.535   6.207  11.503  0.0150 -0.1808 -0.1824
13035TIP3   OH260595   1.754   6.008   1.788 -0.0831 -0.3639  0.1060
13035TIP3    H160596   1.677   5.956   1.809 -0.7505  1.1026  1.4444
13035TIP3    H260597   1.744   6.030   1.695 -0.7177 -1.1006  0.0013
13036TIP3   OH260598   3.718   5.772   2.604  0.5224 -0.4766  0.2609
13036TIP3    H160599   3.791   5.806   2.656 -0.4038  0.0334  1.2801
13036TIP3    H260600   3.753   5.761   2.516  1.5489  0.7465  0.5004
13037TIP3   OH260601   4.398   4.055   3.569 -0.4362 -0.4335  0.9384
13037TIP3    H160602   4.402   3.971   3.523  1.1470 -0.3486  0.8876
13037TIP3    H260603   4.421   4.034   3.660  1.3292  0.1350  0.6430
13038TIP3   OH260604   2.545   4.136   3.328  0.2355 -0.4742  0.3892
13038TIP3    H160605   2.493   4.106   3.253 -1.2300  0.3810  1.0480
13038TIP3    H260606   2.481   4.150   3.398  1.1025  2.3771  0.6598
13039TIP3   OH260607   2.501   6.677   6.401  0.1587 -0.1720 -0.1440
13039TIP3    H160608   2.410   6.679   6.431  0.4333 -0.0643  0.7057
13039TIP3    H260609   2.526   6.585   6.404  0.3841 -0.0916  0.5877
13040TIP3   OH260610   4.055   5.447   3.654 -0.3767  0.0153 -0.2228
13040TIP3    H160611   3.972   5.441   3.702  0.0930 -0.4228  0.5394
13040TIP3    H260612   4.102   5.519   3.695  0.9402 -1.7211  1.4388
13041TIP3   OH260613   4.634   6.318   3.777  0.2966  0.0848  0.1156
13041TIP3    H160614   4.691   6.358   3.712  1.2632 -0.1248  0.8229
13041TIP3    H260615   4.565   6.383   3.792 -0.5617 -0.3027 -1.8983
13042TIP3   OH260616   1.731   3.616   3.928 -0.3996 -0.2042  0.0048
13042TIP3    H160617   1.677   3.546   3.890 -0.8848  0.1576  0.0258
13042TIP3    H260618   1.680   3.695   3.915 -0.1319  0.0567  0.5557
13043TIP3   OH260619   4.060   1.721   5.088  0.0403  0.0412  0.4021
13043TIP3    H160620   4.031   1.746   5.175  1.6574 -0.1363  1.0116
13043TIP3    H260621   4.153   1.743   5.086  0.2137 -0.7153 -0.9882
13044TIP3   OH260622   3.438   2.321  16.284  0.2936  0.2419  0.5194
13044TIP3    H160623   3.430   2.387  16.353  1.5095  0.5739  0.3459
13044TIP3    H260624   3.348   2.308  16.254 -0.3019 -0.2082  2.4430
13045TIP3   OH260625   2.068   1.325  15.563 -0.3548  0.4788 -0.1192
13045TIP3    H160626   2.007   1.295  15.631  0.2020 -0.2189  0.0774
13045TIP3    H260627   2.144   1.357  15.612  1.0269 -2.1780 -0.4636
13046TIP3   OH260628   3.592   0.268   6.203 -0.0730  0.2731 -0.2018
13046TIP3    H160629   3.534   0.314   6.263 -0.6344 -2.2456  1.2404
13046TIP3    H260630   3.673   0.255   6.252 -0.1622 -0.8684 -0.3377
13047TIP3   OH260631   1.519   1.915   3.235 -0.3113  0.3315  0.0092
13047TIP3    H160632   1.614   1.914   3.231 -0.3878 -1.3949 -1.8671
13047TIP3    H260633   1.498   1.886   3.324  0.8832  0.0736  0.2047
13048TIP3   OH260634   3.725   4.229   5.368 -0.1326 -1.0649 -0.7399
13048TIP3    H160635   3.696   4.140   5.386  1.4148 -1.1716  1.4730
13048TIP3    H260636   3.685   4.282   5.436  0.6900 -0.4234 -0.7423
13049TIP3   OH260637   1.983   1.653  14.124  0.0650 -0.3091  0.4354
13049TIP3    H160638   1.970   1.665  14.030 -0.9899  2.5587  0.8939
13049TIP3    H260639   1.950   1.565  14.142 -1.9336  0.0058 -1.4787
13050TIP3   OH260640   4.549   0.181   0.887  0.5638  0.0645 -0.0339
13050TIP3    H160641   4.463   0.186   0.846  0.5378  1.8854  0.1952
13050TIP3    H260642   4.531   0.167   0.980  0.5383 -0.4006 -0.1079
13051TIP3   OH260643   4.815   3.126   1.829  0.0047  0.3444 -0.1589
13051TIP3    H160644   4.751   3.197   1.826 -0.7218 -0.3275 -0.7991
13051TIP3    H260645   4.899   3.169   1.815 -0.3026  1.2314  0.6887
13052TIP3   OH260646   0.352   5.282  14.019  0.1928  0.1179  0.3896
13052TIP3    H160647   0.303   5.217  13.967  0.2090 -0.1005  0.6518
13052TIP3    H260648   0.318   5.273  14.108 -1.2360  1.8213  0.0661
13053TIP3   OH260649   3.115   3.607  13.221 -0.0557  0.3582  0.4316
13053TIP3    H160650   3.125   3.559  13.303 -1.0828 -2.1367 -0.8169
13053TIP3    H260651   3.194   3.659  13.213  0.9901 -0.9432  2.0352
13054TIP3   OH260652   4.257   0.150   1.451  0.0064 -0.1943  0.1662
13054TIP3    H160653   4.268   0.069   1.500 -0.3359 -0.1869  0.2573
13054TIP3    H260654   4.172   0.184   1.479 -0.4841 -0.5047 -0.8932
13055TIP3   OH260655   1.287   2.857   4.597  0.0341 -0.1885  0.1372
13055TIP3    H160656   1.234   2.874   4.675 -2.8944  0.1715 -1.8589
13055TIP3    H260657   1.276   2.763   4.580  0.1746 -0.1433 -0.2067
13056TIP3   OH260658   6.440   0.712  15.967  0.3174 -0.1612 -0.0062
13056TIP3    H160659   6.441   0.783  15.903  1.4389 -0.4178 -0.2742
13056TIP3    H260660   6.424   0.633  15.915 -1.2391 -0.0859  0.3276
13057TIP3   OH260661   0.281   5.016   3.375  0.2317  0.3288 -0.6339
13057TIP3    H160662   0.321   5.088   3.326  2.0510  0.5978  1.1948
13057TIP3    H260663   0.228   5.060   3.442  0.9686 -0.0211  0.1827
13058TIP3   OH260664   0.224   0.442   6.204 -0.6178  0.5991 -0.6499
13058TIP3    H160665   0.297   0.381   6.212  0.9454  2.1517 -2.3815
13058TIP3    H260666   0.229   0.497   6.282 -0.1734  0.4409 -0.5666
13059TIP3   OH260667   2.416   5.503  12.175  0.1872  0.1385  0.1703
13059TIP3    H160668   2.365   5.437  12.222  1.2836 -1.4131 -0.7578
13059TIP3    H260669   2.507   5.485  12.200  0.4201  1.9488  0.6813
13060TIP3   OH260670   3.774   5.366   0.878 -0.0847  0.2256 -0.3686
13060TIP3    H160671   3.754   5.458   0.857  1.4278  0.3898 -1.2084
13060TIP3    H260672   3.777   5.323   0.792 -3.4830 -1.2277  0.1788
13061TIP3   OH260673   3.973   1.083   3.846 -0.0251 -0.3478  1.2080
13061TIP3    H160674   3.911   1.045   3.785  0.8286 -0.1526  0.2076
13061TIP3    H260675   3.980   1.018   3.916 -0.9703 -0.5901  1.0826
13062TIP3   OH260676   4.804   1.145   5.232 -0.5880  0.3577  0.7782
13062TIP3    H160677   4.731   1.082   5.237  0.2301 -0.6596  0.1278
13062TIP3    H260678   4.762   1.230   5.245 -2.2726  0.0221 -1.9939
13063TIP3   OH260679   6.775   5.191   3.366  1.3036  0.0063  0.1548
13063TIP3    H160680   6.793   5.285   3.365 -0.9340  0.4620 -0.0474
13063TIP3    H260681   6.797   5.163   3.455  1.3534  0.8403  0.4079
13064TIP3   OH260682   6.200   0.586  14.595  0.1036  0.3345 -0.1046
13064TIP3    H160683   6.242   0.520  14.650 -1.1196 -0.7767 -0.4797
13064TIP3    H260684   6.260   0.661  14.598  0.8958 -0.3310  1.3358
13065TIP3   OH260685   3.916   3.767   4.376  0.2368 -0.0410  0.2560
13065TIP3    H160686   3.842   3.806   4.422  0.0922  1.4663 -1.2037
13065TIP3    H260687   3.976   3.741   4.446 -0.1086  1.9237  1.3303
13066TIP3   OH260688   1.078   4.257   5.885  0.1153 -0.0392  0.0861
13066TIP3    H160689   1.032   4.201   5.948  1.3663  0.1634  1.1953
13066TIP3    H260690   1.084   4.342   5.929  0.4129  0.2819 -0.5772
13067TIP3   OH260691   1.466   4.993  12.377  0.4274 -0.5763  0.2677
13067TIP3    H160692   1.534   5.036  12.325 -0.0404 -0.4230 -0.2323
13067TIP3    H260693   1.415   5.066  12.414  2.0697 -0.6226  2.7683
13068TIP3   OH260694   2.786   2.816   3.271 -0.9310  0.0368 -0.9539
13068TIP3    H160695   2.840   2.892   3.294 -0.3456 -0.7536  0.2778
13068TIP3    H260696   2.739   2.844   3.192  0.5504  1.0736 -1.4908
13069TIP3   OH260697   4.353   5.425   3.491  0.5089 -0.1246 -0.2126
13069TIP3    H160698   4.362   5.386   3.578 -1.3004 -0.7467 -0.2690
13069TIP3    H260699   4.351   5.349   3.432  0.8333  0.2563 -0.7092
13070TIP3   OH260700   3.383   5.568  11.966 -0.1324 -0.2405 -0.2367
13070TIP3    H160701   3.309   5.531  11.918 -2.8473  1.7313  2.1840
13070TIP3    H260702   3.358   5.660  11.981  2.3120  0.1935  1.5787
13071TIP3   OH260703   3.127   2.061  16.368  0.2764  0.1461 -0.0090
13071TIP3    H160704   3.108   2.041  16.276  2.0565  2.1091 -0.8489
13071TIP3    H260705   3.209   2.015  16.386  0.6587  0.8916  0.1710
13072TIP3   OH260706   5.452   1.778  12.279 -0.2053 -0.5013  0.6592
13072TIP3    H160707   5.364   1.762  12.311 -1.0837  2.1966 -0.3158
13072TIP3    H260708   5.487   1.847  12.335  0.6267 -0.3143 -0.0746
13073TIP3   OH260709   0.755   3.695   6.322 -0.0923  0.1501  0.0574
13073TIP3    H160710   0.755   3.710   6.416 -0.9909  2.9043 -0.3345
13073TIP3    H260711   0.802   3.612   6.311  2.2561  1.0322  2.7130
13074TIP3   OH260712   0.979   2.723   4.962 -0.3432  0.1785 -0.3241
13074TIP3    H160713   0.983   2.638   5.007 -0.0504  0.5912  0.4305
13074TIP3    H260714   0.935   2.781   5.023 -0.5051  0.5848 -0.8239
13075TIP3   OH260715   5.356   5.448  11.514  0.0223  0.2716 -0.0455
13075TIP3    H160716   5.353   5.353  11.506  1.8896  0.2141 -0.3101
13075TIP3    H260717   5.407   5.464  11.594 -2.2241  1.0425  1.2845
13076TIP3   OH260718   1.187   3.733   0.564 -0.0202 -0.8873 -0.2180
13076TIP3    H160719   1.249   3.791   0.609 -1.3876  0.6404 -0.2459
13076TIP3    H260720   1.227   3.647   0.569  1.6194 -0.1043  0.6637
13077TIP3   OH260721   1.321   0.473  16.840 -0.1295  0.0619 -0.4504
13077TIP3    H160722   1.365   0.530  16.777 -2.8158  1.7608 -0.8977
13077TIP3    H260723   1.228   0.490  16.826 -0.8128  1.0223  4.4360
13078TIP3   OH260724   0.284   6.641  11.148 -0.3464 -0.7076 -0.1775
13078TIP3    H160725   0.243   6.704  11.089 -3.1319 -1.7472  0.5656
13078TIP3    H260726   0.312   6.694  11.223  0.5245  0.1643 -1.1029
13079TIP3   OH260727   2.640   4.357   4.622 -0.0873 -0.2301  1.0268
13079TIP3    H160728   2.553   4.323   4.606  0.4879 -0.7315 -1.1128
13079TIP3    H260729   2.689   4.339   4.542  1.8106  0.5969  1.9557
13080TIP3   OH260730   2.347   6.146   3.751  0.6515 -0.2662  0.2717
13080TIP3    H160731   2.253   6.150   3.769  0.6419  1.8408 -0.1167
13080TIP3    H260732   2.376   6.237   3.752  2.3137 -0.7281 -1.6380
13081TIP3   OH260733   2.078   2.848   4.706  0.1254  0.7875  0.1567
13081TIP3    H160734   2.029   2.904   4.767 -0.6102 -2.4625  2.6653
13081TIP3    H260735   2.157   2.899   4.687 -0.5454  2.7555  2.2812
13082TIP3   OH260736   1.096   4.395   5.537 -0.4532 -0.4380 -0.1430
13082TIP3    H160737   1.019   4.347   5.568 -0.9816 -1.4424 -2.8462
13082TIP3    H260738   1.119   4.352   5.454  0.0952  2.8638 -1.7939
13083TIP3   OH260739   2.457   6.537   2.708  0.0840 -0.0943 -0.4326
13083TIP3    H160740   2.462   6.630   2.733  1.8358 -0.3606  0.2570
13083TIP3    H260741   2.426   6.493   2.787 -3.0709  0.1721 -1.4641
13084TIP3   OH260742   6.127   4.673  13.888  0.1621 -0.0723  0.4110
13084TIP3    H160743   6.219   4.647  13.897 -0.1221 -2.5565 -3.1735
13084TIP3    H260744   6.078   4.592  13.898 -1.3673  0.5604 -1.8074
13085TIP3   OH260745   1.436   0.122  11.856 -0.8488  0.0493 -0.0267
13085TIP3    H160746   1.485   0.152  11.933  0.8235 -1.1829 -0.5686
13085TIP3    H260747   1.346   0.149  11.872 -0.2308  1.1944  1.6326
13086TIP3   OH260748   3.768   1.066  11.995  0.0930  0.6129 -0.2805
13086TIP3    H160749   3.811   1.151  11.992  0.4708  0.5549  2.0757
13086TIP3    H260750   3.675   1.087  12.008  0.5372  0.7156  3.3099
13087TIP3   OH260751   1.316   0.241  17.037  0.2779  0.7400 -0.1352
13087TIP3    H160752   1.401   0.244  17.081  0.5403  1.5527 -0.6895
13087TIP3    H260753   1.326   0.299  16.961 -1.1005  1.7107  0.3917
13088TIP3   OH260754   1.092   0.970  15.837  0.0565  0.1904 -0.5182
13088TIP3    H160755   1.004   1.006  15.837 -0.0825 -0.1438  0.0660
13088TIP3    H260756   1.138   1.017  15.768 -1.1319 -0.9845 -2.1372
13089TIP3   OH260757   5.870   1.404  16.407  0.0807 -0.7952 -0.1070
13089TIP3    H160758   5.965   1.394  16.415  0.2634 -0.3118 -1.4477
13089TIP3    H260759   5.834   1.365  16.486  1.5585  1.5368  1.7617
13090TIP3   OH260760   2.980   4.126  16.508 -0.5154  0.3061 -0.0196
13090TIP3    H160761   2.975   4.197  16.443 -2.8838  1.7731  1.7085
13090TIP3    H260762   3.045   4.157  16.571  0.8459 -0.5506 -0.9761
13091TIP3   OH260763   3.906   2.349  17.124 -0.5643 -0.3767  0.4398
13091TIP3    H160764   3.863   2.429  17.153  1.3579  0.6100  0.6545
13091TIP3    H260765   3.904   2.291  17.201 -1.7535 -0.4697  0.3510
13092TIP3   OH260766   2.800   4.238   0.652  0.2785  0.1119  0.0328
13092TIP3    H160767   2.841   4.159   0.616 -2.8363 -1.6362  0.1235
13092TIP3    H260768   2.783   4.216   0.744 -1.7057  0.3711 -0.2358
13093TIP3   OH260769   2.783   4.890  14.650 -0.5258 -0.0128 -0.4066
13093TIP3    H160770   2.875   4.915  14.644 -0.1030 -1.2367  0.7930
13093TIP3    H260771   2.737   4.958  14.601  1.0496  0.3753 -1.3961
13094TIP3   OH260772   5.579   6.606  14.375 -0.0976 -0.0757  0.1976
13094TIP3    H160773   5.665   6.647  14.364 -0.5723  1.2495  1.2963
13094TIP3    H260774   5.587   6.520  14.333  1.0425  0.9862 -1.8419
13095TIP3   OH260775   4.144   3.393  15.824  0.1189 -0.1953  0.2730
13095TIP3    H160776   4.113   3.337  15.752  0.1206 -0.3624  0.4011
13095TIP3    H260777   4.125   3.482  15.795  3.3460 -0.0088 -1.5113
13096TIP3   OH260778   1.618   4.922  13.489  0.9368  0.3146 -0.2901
13096TIP3    H160779   1.561   4.951  13.418  1.1782  0.0805 -0.5790
13096TIP3    H260780   1.573   4.951  13.569 -0.7477 -1.8670 -0.3991
13097TIP3   OH260781   4.755   1.101   4.442  0.0034 -0.3442  0.1364
13097TIP3    H160782   4.748   1.052   4.360  1.5724 -4.0741  2.1033
13097TIP3    H260783   4.842   1.078   4.476  0.5225  3.3472  1.5085
13098TIP3   OH260784   3.326   1.056  15.651 -0.0091  0.2580  0.0565
13098TIP3    H160785   3.242   1.080  15.612 -1.2165 -1.5401  1.4629
13098TIP3    H260786   3.339   0.965  15.625  0.3994 -0.1743  1.7162
13099TIP3   OH260787   4.198   4.721   0.913 -0.0427  0.2867 -0.5890
13099TIP3    H160788   4.158   4.771   0.843 -0.2312 -0.3987 -0.9817
13099TIP3    H260789   4.125   4.698   0.971  0.2491  1.6497  0.3409
13100TIP3   OH260790   1.051   0.487   6.635  0.4983  0.3831 -0.3801
13100TIP3    H160791   1.144   0.493   6.658  0.3321 -1.0944  0.7968
13100TIP3    H260792   1.029   0.573   6.601  2.0569  1.0787  0.3152
13101TIP3   OH260793   5.767   1.828   5.561 -0.4142  0.0623  0.4328
13101TIP3    H160794   5.810   1.819   5.476 -0.2584  0.5238  0.4614
13101TIP3    H260795   5.781   1.743   5.604 -1.3387 -0.5106 -0.3846
13102TIP3   OH260796   2.706   4.529  12.675  0.1386  0.1296  0.1149
13102TIP3    H160797   2.777   4.480  12.633  0.0686  1.2165 -1.3142
13102TIP3    H260798   2.751   4.591  12.732  0.3436  0.5681 -0.5118
13103TIP3   OH260799   4.870   4.253  11.203  0.5471  0.6361  0.2770
13103TIP3    H160800   4.877   4.171  11.153 -0.7983  0.4949  0.2888
13103TIP3    H260801   4.877   4.322  11.137 -2.3433  0.4431 -0.3303
13104TIP3   OH260802   2.935   3.179   4.450  0.6404  0.7036  0.0206
13104TIP3    H160803   2.881   3.259   4.445 -0.1012  0.1470 -1.0559
13104TIP3    H260804   2.935   3.157   4.543 -1.0996  0.6588  0.0379
13105TIP3   OH260805   5.420   0.732   0.312  0.0272 -0.1960  0.1092
13105TIP3    H160806   5.353   0.800   0.318  1.0005  0.8675 -0.9019
13105TIP3    H260807   5.489   0.762   0.371  0.5131 -0.2292 -0.4369
13106TIP3   OH260808   0.346   3.161  14.960  0.4955 -0.0183 -0.1510
13106TIP3    H160809   0.340   3.218  14.883 -0.7030 -0.6749 -0.5524
13106TIP3    H260810   0.319   3.216  15.033 -1.8117 -0.3826 -0.6990
13107TIP3   OH260811   1.060   0.901   1.238 -0.0039  0.0572 -0.3354
13107TIP3    H160812   1.045   0.863   1.151  2.1379 -0.8194 -0.3462
13107TIP3    H260813   1.128   0.967   1.224 -0.6963  0.9511  0.4416
13108TIP3   OH260814   1.119   3.054   5.129 -0.1937  0.3174 -0.4957
13108TIP3    H160815   1.175   2.983   5.098 -2.0209 -0.4215 -2.2200
13108TIP3    H260816   1.036   3.011   5.152 -0.5428  1.5739  0.6282
13109TIP3   OH260817   4.895   5.754   4.785 -0.6236  0.0400 -0.0519
13109TIP3    H160818   4.941   5.833   4.758 -0.9874  0.1207 -0.4423
13109TIP3    H260819   4.964   5.692   4.806 -0.3200 -0.1355 -1.5049
13110TIP3   OH260820   4.626   5.196   5.607  0.2138  0.1366 -0.5977
13110TIP3    H160821   4.655   5.285   5.590  0.4718 -0.4066 -3.2810
13110TIP3    H260822   4.614   5.158   5.520 -2.0307 -1.7607  0.4890
13111TIP3   OH260823   0.448   1.087  12.928 -0.1096  0.5466 -0.1410
13111TIP3    H160824   0.409   1.097  12.841  1.7470 -0.6361 -1.1621
13111TIP3    H260825   0.374   1.072  12.986 -1.1937 -1.9527 -2.0590
13112TIP3   OH260826   0.494   2.718  12.083  0.2599 -0.4367  0.4095
13112TIP3    H160827   0.442   2.652  12.128 -1.5678 -0.0079 -0.9935
13112TIP3    H260828   0.474   2.705  11.990 -0.2544  2.1323  0.0956
13113TIP3   OH260829   0.922   5.875  14.801 -0.6557 -0.7390 -0.6430
13113TIP3    H160830   0.907   5.969  14.787 -1.5867 -0.8124 -0.2076
13113TIP3    H260831   1.003   5.871  14.852  0.9103 -0.3163 -3.0106
13114TIP3   OH260832   2.693   4.850  13.154 -0.1327 -0.2189  0.4329
13114TIP3    H160833   2.679   4.914  13.223  2.0145 -0.1334  0.8457
13114TIP3    H260834   2.785   4.861  13.129 -0.8495 -0.2723 -2.4343
13115TIP3   OH260835   1.949   0.874  14.180 -0.6375 -0.3704 -0.3661
13115TIP3    H160836   1.964   0.885  14.087 -0.7373  1.2658 -0.1920
13115TIP3    H260837   1.940   0.963  14.215 -2.6259 -1.0030  0.8649
13116TIP3   OH260838   6.423   1.799  11.146  0.3024  0.3063  0.1548
13116TIP3    H160839   6.404   1.745  11.223 -1.6529 -0.5253 -0.8968
13116TIP3    H260840   6.475   1.742  11.089 -1.3434 -0.3263 -0.7357
13117TIP3   OH260841   5.362   2.049   2.102  0.0776  0.0169 -0.2879
13117TIP3    H160842   5.376   1.971   2.049  2.0841 -0.1832  0.5183
13117TIP3    H260843   5.369   2.122   2.040 -0.8506 -0.3741 -0.8630
13118TIP3   OH260844   3.504   1.297  13.762 -0.0179 -0.4642  0.4394
13118TIP3    H160845   3.419   1.317  13.722 -0.4367 -0.3500  1.3841
13118TIP3    H260846   3.501   1.203  13.778 -0.1780 -0.3690  0.9666
13119TIP3   OH260847   5.256   6.349  14.182  0.0601 -0.4216 -0.4919
13119TIP3    H160848   5.211   6.383  14.259  1.2007  1.3653 -0.6030
13119TIP3    H260849   5.296   6.267  14.212 -1.1300 -0.7511  0.2592
13120TIP3   OH260850   3.094   1.578   3.333 -0.8140  0.5792  0.4489
13120TIP3    H160851   3.082   1.673   3.334  1.0618  0.8253  0.9190
13120TIP3    H260852   3.148   1.560   3.411  0.2076 -0.6766 -0.5318
13121TIP3   OH260853   4.763   1.704  16.465  0.5421 -0.5854 -0.1754
13121TIP3    H160854   4.780   1.745  16.550  0.8151  0.4851 -0.7363
13121TIP3    H260855   4.667   1.707  16.456  0.5870  0.3698 -0.4180
13122TIP3   OH260856   3.482   2.720   2.282 -0.4080 -0.0715 -0.7780
13122TIP3    H160857   3.559   2.670   2.255  0.1077  0.8373 -1.0251
13122TIP3    H260858   3.515   2.809   2.295 -1.1271  0.0142  0.5413
13123TIP3   OH260859   4.477   6.689  11.303 -0.7679  0.3215  0.1957
13123TIP3    H160860   4.424   6.734  11.369  1.0684  0.2714  1.7266
13123TIP3    H260861   4.532   6.758  11.266 -0.2274 -0.0571  0.2935
13124TIP3   OH260862   3.314   1.358  14.371 -0.0214  0.0290 -0.9655
13124TIP3    H160863   3.397   1.316  14.349 -0.6443 -0.7025 -1.9821
13124TIP3    H260864   3.314   1.440  14.322  0.3144  0.2670 -0.5708
13125TIP3   OH260865   6.141   4.507  13.509  0.4384 -0.6188  0.2053
13125TIP3    H160866   6.084   4.558  13.567 -0.9631 -1.9168  0.0006
13125TIP3    H260867   6.126   4.545  13.422 -0.0895 -0.9064  0.1625
13126TIP3   OH260868   2.530   5.716  15.689  0.8563 -0.1727  0.0967
13126TIP3    H160869   2.505   5.647  15.628  1.1168 -0.4467  0.2971
13126TIP3    H260870   2.449   5.738  15.735  0.6351  0.1150 -0.4264
13127TIP3   OH260871   1.086   1.114  14.278  0.6628  0.0625  0.5677
13127TIP3    H160872   1.118   1.187  14.224 -0.0316 -0.4507 -0.5695
13127TIP3    H260873   1.035   1.155  14.348 -1.8437  0.6072 -1.4817
13128TIP3   OH260874   2.792   5.988  12.028  0.4638  0.2005 -0.6895
13128TIP3    H160875   2.785   5.904  11.983  1.8967  0.4552 -1.4008
13128TIP3    H260876   2.860   5.974  12.094 -0.3545  0.3669  0.2075
13129TIP3   OH260877   6.257   3.322  12.068 -0.1716  0.0961  0.3409
13129TIP3    H160878   6.314   3.370  12.007 -2.3942  0.2422 -1.7001
13129TIP3    H260879   6.275   3.362  12.153  1.2546  1.5443 -0.5880
13130TIP3   OH260880   1.700   0.500   0.523 -0.0126 -0.2674  0.1543
13130TIP3    H160881   1.788   0.533   0.541 -0.0704 -0.0369  0.0308
13130TIP3    H260882   1.693   0.503   0.427 -0.5994  0.9135  0.2112
13131TIP3   OH260883   2.246   1.915  17.113 -0.1945  0.4613  0.3336
13131TIP3    H160884   2.328   1.947  17.150 -0.5280 -0.6648  2.1157
13131TIP3    H260885   2.270   1.835  17.065 -0.0587  0.8702 -0.2885
13132TIP3   OH260886   3.699   2.398  11.432 -0.0766  0.2461 -0.8342
13132TIP3    H160887   3.630   2.463  11.448 -0.7949 -0.5376 -0.7192
13132TIP3    H260888   3.707   2.395  11.337 -1.1930 -0.6674 -0.9166
13133TIP3   OH260889   2.966   3.433  11.288 -0.6255 -0.2342  0.0010
13133TIP3    H160890   3.001   3.486  11.360  0.3397 -0.1124 -0.5597
13133TIP3    H260891   2.878   3.469  11.274 -1.0505 -0.6532  1.5142
13134TIP3   OH260892   4.993   4.630  16.056  0.0703  0.0160  0.0682
13134TIP3    H160893   5.001   4.722  16.080  0.2370  0.9686 -3.3607
13134TIP3    H260894   4.898   4.613  16.056 -0.2861  1.4836 -3.4683
13135TIP3   OH260895   5.540   2.947  11.216 -0.0604  0.2525  0.2268
13135TIP3    H160896   5.545   3.038  11.187 -1.3072  0.0922 -0.5044
13135TIP3    H260897   5.577   2.897  11.143  2.1418  0.2745  1.2816
13136TIP3   OH260898   0.157   4.575  11.508  0.5806 -0.4286 -0.1905
13136TIP3    H160899   0.208   4.586  11.588  0.7616  3.4210 -0.7662
13136TIP3    H260900   0.074   4.619  11.527  0.4844  0.1805 -1.9984
13137TIP3   OH260901   4.572   1.632   2.912  0.1766  0.4409 -0.5861
13137TIP3    H160902   4.489   1.594   2.943  0.9226  0.2159  1.2029
13137TIP3    H260903   4.626   1.556   2.891 -0.0041  0.5898 -1.6385
13138TIP3   OH260904   2.084   4.555  12.289  0.5400 -0.3754  0.1164
13138TIP3    H160905   2.068   4.592  12.202 -2.4113  0.1779  0.8402
13138TIP3    H260906   2.122   4.627  12.339  0.9677 -0.2882 -0.3294
13139TIP3   OH260907   6.136   5.446   2.041  0.4125 -0.5787 -0.3794
13139TIP3    H160908   6.077   5.403   1.978  0.7102 -2.0304  0.3149
13139TIP3    H260909   6.130   5.539   2.019  3.2992 -1.3052 -4.9912
13140TIP3   OH260910   3.303   3.401  14.443  0.4143  0.1689  1.0010
13140TIP3    H160911   3.364   3.470  14.419  0.7636 -0.5272 -0.1392
13140TIP3    H260912   3.224   3.447  14.473  0.5167  1.0489 -0.0628
13141TIP3   OH260913   3.368   5.262  14.581  0.1803  0.3270 -0.3344
13141TIP3    H160914   3.381   5.170  14.605  0.5696  0.2732 -0.7518
13141TIP3    H260915   3.448   5.286  14.534  0.9063  1.4175  1.4171
13142TIP3   OH260916   1.588   2.474   2.450 -0.0629  0.0308 -0.7575
13142TIP3    H160917   1.663   2.422   2.480 -0.7472 -0.4187  0.1899
13142TIP3    H260918   1.513   2.415   2.461 -0.8741  1.2798  0.4709
13143TIP3   OH260919   0.960   2.856  11.382 -0.1914  0.8976  0.0630
13143TIP3    H160920   0.891   2.823  11.439 -0.6005  0.9976 -0.3647
13143TIP3    H260921   1.030   2.790  11.387  0.4980  1.7458  2.0057
13144TIP3   OH260922   5.219   2.785   2.869  0.0734  0.8160 -0.6819
13144TIP3    H160923   5.287   2.719   2.856 -1.0746 -0.2003 -1.6335
13144TIP3    H260924   5.145   2.736   2.907  0.6985  2.3443  2.6814
13145TIP3   OH260925   4.623   6.165   5.162 -0.1239  0.0538  0.0950
13145TIP3    H160926   4.612   6.242   5.217  0.8464 -1.1752  2.0480
13145TIP3    H260927   4.668   6.102   5.217 -0.2837 -1.6835 -1.7000
13146TIP3   OH260928   4.092   0.637  11.734 -0.1823  0.1575  0.0565
13146TIP3    H160929   4.032   0.652  11.807 -1.4588  2.0332 -1.3288
13146TIP3    H260930   4.086   0.543  11.717  1.2598 -0.5837  3.2786
13147TIP3   OH260931   0.621   6.682   0.102 -0.9887 -0.2383  0.6021
13147TIP3    H160932   0.643   6.713   0.015 -0.9392  0.3927  0.8366
13147TIP3    H260933   0.545   6.625   0.089 -0.2359 -1.1113 -0.0031
13148TIP3   OH260934   6.354   5.090  14.228  0.1715  0.1789 -0.0611
13148TIP3    H160935   6.429   5.086  14.288  1.2365 -1.6603 -1.4620
13148TIP3    H260936   6.386   5.049  14.148 -2.3939 -0.7195 -0.6556
13149TIP3   OH260937   1.492   6.774   4.796 -0.4688  0.0450 -0.0013
13149TIP3    H160938   1.531   6.687   4.784  0.8745  0.4290  1.5935
13149TIP3    H260939   1.399   6.761   4.773  0.1319 -1.3250 -1.7918
13150TIP3   OH260940   1.432   0.387   5.016 -0.5329  0.5630  0.0268
13150TIP3    H160941   1.442   0.347   4.929  0.4820  1.2745 -0.1946
13150TIP3    H260942   1.380   0.466   5.000 -0.0212  0.8987 -0.0024
13151TIP3   OH260943   3.075   1.387   0.741 -0.3196  0.3292  0.7201
13151TIP3    H160944   3.059   1.308   0.689  0.1234  0.6540  0.0726
13151TIP3    H260945   3.117   1.356   0.821 -0.5390 -0.1292  0.6591
13152TIP3   OH260946   0.161   2.151  12.011 -0.3405 -0.4895  0.6817
13152TIP3    H160947   0.186   2.216  11.946  0.0209 -0.7316  0.5767
13152TIP3    H260948   0.073   2.177  12.039  0.9099  1.6648  2.7042
13153TIP3   OH260949   1.861   3.554  11.722 -0.2929  0.0987 -0.1936
13153TIP3    H160950   1.781   3.547  11.775  0.5080  0.2089  1.0632
13153TIP3    H260951   1.886   3.463  11.704 -0.1527  0.0397  0.2773
13154TIP3   OH260952   5.141   0.748   1.263  0.4608 -0.2655 -0.0877
13154TIP3    H160953   5.142   0.725   1.355 -0.4923  1.7223  0.4495
13154TIP3    H260954   5.170   0.839   1.261  1.4307 -0.5860 -1.8504
13155TIP3   OH260955   5.612   0.842  12.468 -0.0332 -0.3405  0.1215
13155TIP3    H160956   5.544   0.776  12.472 -0.7093  0.1175 -2.9203
13155TIP3    H260957   5.586   0.907  12.534 -1.2184 -1.3769  0.6936
13156TIP3   OH260958   4.570   1.808   5.830  0.0330 -0.2553 -0.1345
13156TIP3    H160959   4.501   1.873   5.815 -0.7057 -0.2215  2.9396
13156TIP3    H260960   4.522   1.730   5.858  1.1156 -0.8739 -0.0096
13157TIP3   OH260961   3.068   6.337   0.329 -0.0269  0.0623  0.0963
13157TIP3    H160962   3.066   6.243   0.312 -1.0593  0.4027 -1.8279
13157TIP3    H260963   3.004   6.374   0.267  1.4391  2.1690 -0.2159
13158TIP3   OH260964   0.719   5.982   5.431  0.1118  0.1926  0.5272
13158TIP3    H160965   0.628   5.958   5.413 -0.5388  2.1715  1.0781
13158TIP3    H260966   0.718   6.012   5.521  1.3614  0.0192  0.5985
13159TIP3   OH260967   2.947   3.731  12.677 -0.8586  0.5029  0.7725
13159TIP3    H160968   2.856   3.759  12.676 -0.9175  0.2999 -0.8858
13159TIP3    H260969   2.975   3.743  12.768 -1.9897  2.3074  0.9027
13160TIP3   OH260970   1.743   4.421  15.444  0.3993  0.0496 -0.8075
13160TIP3    H160971   1.827   4.377  15.434 -0.1461 -1.2427  0.1129
13160TIP3    H260972   1.765   4.512  15.466  1.5392 -0.1944 -0.9425
13161TIP3   OH260973   1.929   2.350  13.509  1.2159  0.2711  0.3452
13161TIP3    H160974   1.926   2.278  13.571  0.3876  1.1607  1.3580
13161TIP3    H260975   1.953   2.309  13.426 -0.7975 -1.4356  0.5434
13162TIP3   OH260976   0.240   2.185   1.814 -0.3090  0.2336 -0.2434
13162TIP3    H160977   0.310   2.133   1.775 -0.3971 -0.0135 -0.0703
13162TIP3    H260978   0.184   2.209   1.740  0.7539  1.6727 -0.6026
13163TIP3   OH260979   0.427   6.468   0.913 -0.2985 -0.0407  0.5416
13163TIP3    H160980   0.463   6.535   0.855  1.6960  0.7472  2.6533
13163TIP3    H260981   0.369   6.516   0.972  0.1413 -0.3662  1.2377
13164TIP3   OH260982   6.405   4.528   2.346  0.2075 -0.3047 -0.0776
13164TIP3    H160983   6.464   4.580   2.401  0.2011 -1.0307  0.6312
13164TIP3    H260984   6.319   4.542   2.386  0.4937 -2.4585  1.3609
13165TIP3   OH260985   2.997   6.096  13.759 -0.2468 -0.0151  0.4892
13165TIP3    H160986   3.034   6.176  13.796  1.6632 -0.8543  0.4338
13165TIP3    H260987   2.949   6.056  13.832  1.5664 -0.4883  1.4463
13166TIP3   OH260988   4.631   5.458   2.996 -0.3094 -0.3697  0.0115
13166TIP3    H160989   4.549   5.459   3.045 -1.3533 -1.4541 -1.6626
13166TIP3    H260990   4.627   5.535   2.940  1.5131  1.6695  2.5310
13167TIP3   OH260991   4.149   4.589   1.954 -0.0644  0.3177 -0.4056
13167TIP3    H160992   4.154   4.505   2.002  0.4770  0.5744  0.0026
13167TIP3    H260993   4.112   4.566   1.869  0.0031 -0.3313 -0.2646
13168TIP3   OH260994   4.355   2.216  12.559 -0.4988  0.4864 -0.1086
13168TIP3    H160995   4.281   2.261  12.520  0.5105  1.3446 -1.0637
13168TIP3    H260996   4.431   2.270  12.536  0.3956 -0.2517  1.0414
13169TIP3   OH260997   5.223   2.585  15.248  0.2763  0.0853  0.0383
13169TIP3    H160998   5.247   2.497  15.218 -0.3540  0.4098 -1.4477
13169TIP3    H260999   5.128   2.588  15.240  0.4807  1.6427 -1.9975
13170TIP3   OH261000   0.661   4.649   1.542 -0.4232  0.2546 -0.0994
13170TIP3    H161001   0.743   4.601   1.540 -1.0663 -0.8783  0.0425
13170TIP3    H261002   0.677   4.728   1.491  0.6742 -0.0863 -0.2821
13171TIP3   OH261003   6.675   1.604   2.297  0.6778  0.4354  0.1355
13171TIP3    H161004   6.601   1.640   2.347 -0.2943 -0.3814 -0.6937
13171TIP3    H261005   6.742   1.673   2.301  0.4809  0.5428  2.2268
13172TIP3   OH261006   5.605   3.714   1.760 -0.9582 -0.1659  0.8294
13172TIP3    H161007   5.616   3.657   1.836  1.8565 -0.1195  0.4909
13172TIP3    H261008   5.624   3.658   1.685 -1.0228  0.4974  0.3121
13173TIP3   OH261009   3.408   6.571   2.247 -0.4595 -0.0852 -1.1446
13173TIP3    H161010   3.371   6.485   2.225 -1.2443  0.1132 -0.6176
13173TIP3    H261011   3.501   6.562   2.229 -0.4689 -1.1759 -0.7193
13174TIP3   OH261012   4.564   4.701  10.815 -0.2345  0.4658  0.1717
13174TIP3    H161013   4.566   4.734  10.725  0.3567 -0.3272 -0.1088
13174TIP3    H261014   4.567   4.606  10.806  0.4059  0.3966  1.0427
13175TIP3   OH261015   5.514   1.588   3.281 -0.1337 -0.2286 -0.3706
13175TIP3    H161016   5.503   1.661   3.219 -0.1340 -0.7864 -1.0327
13175TIP3    H261017   5.576   1.621   3.346  0.5804  0.0348 -1.1805
13176TIP3   OH261018   0.259   0.646  13.372 -0.2596  0.6496 -0.3801
13176TIP3    H161019   0.284   0.738  13.362 -2.6453  1.4500  0.5290
13176TIP3    H261020   0.266   0.629  13.466  0.6570 -0.2688 -0.5989
13177TIP3   OH261021   2.862   3.188  14.177 -0.2327 -0.1178 -0.1638
13177TIP3    H161022   2.858   3.106  14.128 -1.1682  0.1509 -0.5507
13177TIP3    H261023   2.771   3.206  14.200  0.0216  0.5778  0.3066
13178TIP3   OH261024   2.979   2.703  11.907  0.4813 -0.3042  0.4220
13178TIP3    H161025   3.071   2.723  11.889  0.7936  0.4968  2.7408
13178TIP3    H261026   2.932   2.735  11.829  2.0762 -0.1276 -0.5012
13179TIP3   OH261027   3.809   4.579   6.114 -0.4904  0.1624 -0.0115
13179TIP3    H161028   3.850   4.503   6.071 -0.1097 -0.0403  0.7027
13179TIP3    H261029   3.726   4.590   6.068 -1.2364 -1.6283  0.8732
13180TIP3   OH261030   4.078   0.297   2.355  0.2937 -0.0090 -0.2631
13180TIP3    H161031   4.007   0.241   2.386  0.7860  0.0494  0.9700
13180TIP3    H261032   4.092   0.360   2.425  0.2329  1.2307 -1.3380
13181TIP3   OH261033   6.136   6.628   4.596  0.0436 -0.5508 -0.2376
13181TIP3    H161034   6.100   6.613   4.683 -1.5877  0.5088 -0.7005
13181TIP3    H261035   6.199   6.558   4.584 -1.5195 -2.1875  0.8042
13182TIP3   OH261036   3.467   1.709   6.423 -0.1300  0.5845 -0.1833
13182TIP3    H161037   3.402   1.640   6.434  1.4764 -0.6988  1.4953
13182TIP3    H261038   3.430   1.784   6.470 -1.1715  0.3930 -0.6826
13183TIP3   OH261039   2.035   4.321  16.564 -0.4131  0.2190  0.0107
13183TIP3    H161040   1.997   4.410  16.564 -2.6656 -0.6890  1.6905
13183TIP3    H261041   2.094   4.320  16.639  1.1520  0.9101 -1.2031
13184TIP3   OH261042   6.692   4.087  14.373  0.1476  0.2579 -0.2751
13184TIP3    H161043   6.731   4.024  14.312  1.6620  0.3910  0.5325
13184TIP3    H261044   6.627   4.134  14.320  1.8072  0.7386 -1.9550
13185TIP3   OH261045   3.218   5.673   0.580 -0.2066  0.6746  0.1911
13185TIP3    H161046   3.128   5.706   0.587 -0.3238  0.1286  1.5010
13185TIP3    H261047   3.217   5.617   0.503 -1.3566 -0.3977  0.9568
13186TIP3   OH261048   4.056   0.240  14.022 -0.3674  0.0769 -0.1659
13186TIP3    H161049   4.072   0.313  13.962  2.0110 -1.3167 -1.2855
13186TIP3    H261050   4.037   0.282  14.106 -0.4266  1.9900 -1.1070
13187TIP3   OH261051   1.212   6.044  14.964 -0.2888  0.2645  0.4630
13187TIP3    H161052   1.217   6.025  14.870 -3.3822 -0.3365  0.3824
13187TIP3    H261053   1.253   5.969  15.006  2.7512  1.3545 -0.4111
13188TIP3   OH261054   6.795   2.708  13.131  0.1767  0.0114 -0.2938
13188TIP3    H161055   6.786   2.783  13.071 -0.0772 -0.7485 -1.2116
13188TIP3    H261056   6.713   2.660  13.121  0.8298 -1.0445 -0.5922
13189TIP3   OH261057   1.039   4.166   0.910  0.4132  0.1188 -0.1591
13189TIP3    H161058   1.046   4.103   0.838 -1.1199 -0.9191  0.5611
13189TIP3    H261059   1.113   4.146   0.968  1.1974  0.4444 -1.0384
13190TIP3   OH261060   0.914   6.756  11.512 -0.4974  0.0891 -0.3317
13190TIP3    H161061   1.003   6.725  11.494 -0.1735  1.5109 -1.2129
13190TIP3    H261062   0.881   6.784  11.427 -1.6376 -0.0024  0.0728
13191TIP3   OH261063   6.039   2.341  16.639 -0.4034 -0.4275  0.4135
13191TIP3    H161064   6.023   2.250  16.611  0.2874 -0.3578 -0.2185
13191TIP3    H261065   6.085   2.332  16.722 -1.9018 -0.6413  1.2452
13192TIP3   OH261066   2.318   2.012   4.389  0.3011 -0.0672  1.0913
13192TIP3    H161067   2.341   1.997   4.481  0.5135 -0.4027  0.9836
13192TIP3    H261068   2.368   1.947   4.341  2.5161  2.0430  0.4648
13193TIP3   OH261069   1.773   4.650   4.006  0.1152  0.2523 -0.0799
13193TIP3    H161070   1.731   4.716   3.951  0.3899  1.4574  1.1156
13193TIP3    H261071   1.707   4.627   4.071 -0.0794 -0.8814 -0.6635
13194TIP3   OH261072   2.018   6.071  13.453 -0.3483  0.6898  0.5523
13194TIP3    H161073   1.942   6.043  13.402 -0.5431 -0.1400  1.2740
13194TIP3    H261074   2.041   6.156  13.418 -0.9127  0.4391 -0.4461
13195TIP3   OH261075   2.649   4.091  10.717 -0.1695 -0.0068 -0.7483
13195TIP3    H161076   2.570   4.050  10.751 -0.7735  2.5489  1.0997
13195TIP3    H261077   2.636   4.091  10.622 -1.7673 -0.8144 -0.5578
13196TIP3   OH261078   0.635   2.209   0.246  0.2388  0.1980 -0.2960
13196TIP3    H161079   0.689   2.185   0.170  2.3087  1.5113  0.7034
13196TIP3    H261080   0.598   2.126   0.276  0.9939 -0.6090 -1.5474
13197TIP3   OH261081   0.009   5.244   5.031 -0.1765 -0.0265 -0.0898
13197TIP3    H161082  -0.009   5.220   4.940 -2.8972  4.0568 -0.7729
13197TIP3    H261083   0.068   5.319   5.025  0.0946 -0.0781  1.5524
13198TIP3   OH261084   6.473   6.103  14.959 -0.1499 -0.7781  0.3035
13198TIP3    H161085   6.476   6.009  14.976  0.2487 -0.9826 -0.8724
13198TIP3    H261086   6.546   6.119  14.900  0.7617  0.5361  1.7547
13199TIP3   OH261087   1.110   5.470  15.488 -0.8150 -0.0985  0.5773
13199TIP3    H161088   1.192   5.517  15.507 -1.5552  1.1586  0.6931
13199TIP3    H261089   1.096   5.484  15.394 -2.8709  2.9240  1.2712
13200TIP3   OH261090   1.444   4.231   6.003  0.4246 -0.5803 -0.4536
13200TIP3    H161091   1.459   4.269   6.090  0.5166 -0.0364 -0.7050
13200TIP3    H261092   1.357   4.191   6.009 -1.2908  2.8684 -1.2741
13201TIP3   OH261093   5.994   1.170  15.268 -0.4383 -0.3153  0.0579
13201TIP3    H161094   5.956   1.100  15.321 -1.7645 -0.5104 -1.1362
13201TIP3    H261095   5.921   1.204  15.216  0.4850  1.0171 -0.4022
13202TIP3   OH261096   5.860   4.606   6.543 -0.0354 -0.1978  0.0262
13202TIP3    H161097   5.955   4.605   6.558  0.3348  0.9383 -1.9955
13202TIP3    H261098   5.840   4.520   6.507 -0.1460 -1.2013  2.4102
13203TIP3   OH261099   0.519   5.472  17.145  0.1438 -0.0865 -0.0864
13203TIP3    H161100   0.589   5.503  17.087 -0.1764  2.2886  0.7518
13203TIP3    H261101   0.471   5.408  17.092  1.4972  0.0258 -1.4891
13204TIP3   OH261102   4.229   0.668  15.533  0.0023  0.1646  0.3781
13204TIP3    H161103   4.160   0.643  15.472  0.0939 -0.4467  0.5232
13204TIP3    H261104   4.267   0.747  15.495  0.5881 -0.6632 -0.7858
13205TIP3   OH261105   4.087   1.575  15.284  0.4544 -0.6208  0.2351
13205TIP3    H161106   4.049   1.503  15.234 -0.2386  0.0270 -0.1660
13205TIP3    H261107   4.015   1.635  15.300  0.7866 -0.5584  1.5548
13206TIP3   OH261108   1.349   0.788   4.358  0.1972 -0.0522  0.3469
13206TIP3    H161109   1.374   0.700   4.387 -0.1888 -0.1618  0.3595
13206TIP3    H261110   1.274   0.810   4.413 -1.5788 -0.9250 -1.6501
13207TIP3   OH261111   1.839   1.475  14.273  0.1413  0.4349  0.2766
13207TIP3    H161112   1.788   1.412  14.323 -1.1687  0.8098 -0.5520
13207TIP3    H261113   1.831   1.557  14.322  0.3537  0.3755  0.4097
13208TIP3   OH261114   3.812   6.606  12.867  0.3012 -0.7002 -0.4136
13208TIP3    H161115   3.889   6.561  12.902 -0.7571 -2.3378 -0.0945
13208TIP3    H261116   3.819   6.596  12.772  0.3753 -1.0454 -0.3739
13209TIP3   OH261117   0.004   1.817  15.029  0.1787 -0.4060 -0.4942
13209TIP3    H161118  -0.087   1.800  15.055 -0.1578  1.2961 -0.4544
13209TIP3    H261119   0.054   1.745  15.067 -1.3018 -2.0248 -1.5353
13210TIP3   OH261120   1.984   0.136   1.267  0.1363 -0.7362 -0.0551
13210TIP3    H161121   1.908   0.078   1.269 -0.3575 -0.1899 -1.7247
13210TIP3    H261122   2.021   0.123   1.180  0.7116  0.5590 -0.0172
13211TIP3   OH261123   5.412   2.564  16.975 -0.3173 -0.2069 -0.1426
13211TIP3    H161124   5.500   2.561  17.012 -0.0975  0.2702 -0.6090
13211TIP3    H261125   5.375   2.478  16.993 -0.1884 -0.0135  1.1033
13212TIP3   OH261126   1.378   3.008   1.520  0.2283 -0.3263 -0.1082
13212TIP3    H161127   1.327   3.023   1.441  2.9575  0.3158 -1.7893
13212TIP3    H261128   1.403   3.095   1.550  1.7728 -0.6983 -0.2783
13213TIP3   OH261129   0.196   1.678   3.237  0.7854 -0.0179 -0.5341
13213TIP3    H161130   0.183   1.587   3.209 -1.7096  0.1858 -0.1185
13213TIP3    H261131   0.261   1.672   3.308  1.3373 -1.3537 -1.1303
13214TIP3   OH261132   6.165   1.279  14.000 -0.3413 -0.0592 -0.1922
13214TIP3    H161133   6.219   1.207  13.967  1.2667  1.2601 -0.5015
13214TIP3    H261134   6.211   1.311  14.077 -0.7836  0.9405 -0.3307
13215TIP3   OH261135   5.278   0.828   5.581 -0.1593 -0.2661 -0.0480
13215TIP3    H161136   5.329   0.896   5.537  1.1923 -1.0919  0.2219
13215TIP3    H261137   5.336   0.752   5.584 -0.6346 -0.5757  2.1179
13216TIP3   OH261138   4.467   4.367   6.764 -0.4359  0.3482 -0.1650
13216TIP3    H161139   4.561   4.351   6.758 -0.0951  1.2076  2.3328
13216TIP3    H261140   4.433   4.293   6.815 -1.1585 -0.0391 -1.1772
13217TIP3   OH261141   2.450   1.324  12.022 -0.1752  0.0773  0.1278
13217TIP3    H161142   2.470   1.235  12.050 -1.4147  0.1039  1.1263
13217TIP3    H261143   2.445   1.374  12.103 -0.2054  0.9147 -0.3793
13218TIP3   OH261144   2.160   2.626  14.051 -0.3062 -0.6510  0.5208
13218TIP3    H161145   2.180   2.536  14.028  2.9813  0.0919  0.2236
13218TIP3    H261146   2.109   2.659  13.977  0.6228 -1.5346 -0.5401
13219TIP3   OH261147   5.499   4.549   5.601 -0.2550 -0.3268 -0.4083
13219TIP3    H161148   5.504   4.637   5.638 -0.0857  0.1822 -1.6314
13219TIP3    H261149   5.566   4.546   5.533 -2.1451 -0.4314 -2.3517
13220TIP3   OH261150   0.726   3.516  11.883  0.0982 -0.1796  0.4259
13220TIP3    H161151   0.814   3.554  11.890 -0.3825  0.7581  1.5431
13220TIP3    H261152   0.732   3.433  11.930  0.6111 -0.5382 -0.2547
13221TIP3   OH261153   0.434   5.571  15.983  0.0459  0.0815 -0.5963
13221TIP3    H161154   0.343   5.543  15.988  0.6689 -2.1174 -0.6978
13221TIP3    H261155   0.461   5.581  16.074 -0.8707  2.7993 -0.6020
13222TIP3   OH261156   0.973   1.503  14.133 -0.3846 -0.3673 -0.0093
13222TIP3    H161157   1.045   1.441  14.132  0.4759  0.6268  0.0760
13222TIP3    H261158   0.903   1.458  14.181  0.4705 -0.9985  0.6556
13223TIP3   OH261159   2.905   6.058  15.483 -0.8388 -0.8892  0.1599
13223TIP3    H161160   2.953   6.044  15.564  0.0867 -1.8596 -0.5454
13223TIP3    H261161   2.839   5.989  15.482 -1.5391 -0.2375  0.5849
13224TIP3   OH261162   5.165   2.745  15.832 -0.3058 -0.4149 -0.1508
13224TIP3    H161163   5.242   2.713  15.879 -0.8053 -1.2307  0.1046
13224TIP3    H261164   5.120   2.802  15.895 -0.2008 -0.3562 -0.1294
13225TIP3   OH261165   3.889   0.623  12.963  0.2242  0.8309 -0.0800
13225TIP3    H161166   3.949   0.549  12.968  0.6756  1.2905  1.9180
13225TIP3    H261167   3.945   0.700  12.975 -0.5233  1.3767 -0.0324
13226TIP3   OH261168   4.544   4.496   0.519 -0.1065 -0.0216 -0.0465
13226TIP3    H161169   4.527   4.437   0.592  0.9122 -1.4189 -0.8986
13226TIP3    H261170   4.623   4.544   0.544 -1.0864  1.1699  0.7610
13227TIP3   OH261171   0.785   3.117   4.957  0.0071 -0.2743  0.2291
13227TIP3    H161172   0.769   3.045   5.017 -0.6299 -0.8391 -0.6129
13227TIP3    H261173   0.711   3.116   4.897  0.7830  0.0967 -0.7544
13228TIP3   OH261174   2.071   2.750   3.209  0.0636  0.2209 -0.1145
13228TIP3    H161175   2.094   2.808   3.282 -1.1598  2.1070 -1.1608
13228TIP3    H261176   2.154   2.731   3.165  0.5608  0.6690  0.6292
13229TIP3   OH261177   0.510   4.395  17.148 -0.4764  0.1390 -0.3906
13229TIP3    H161178   0.505   4.435  17.061  0.4278 -0.3352 -0.6692
13229TIP3    H261179   0.508   4.301  17.131  0.0146  0.0382  0.0774
13230TIP3   OH261180   5.475   5.783  14.859  0.1302 -0.5659  0.1262
13230TIP3    H161181   5.526   5.703  14.863 -1.3171 -1.5631 -0.6998
13230TIP3    H261182   5.422   5.783  14.939  0.6356 -0.0724  0.4662
13231TIP3   OH261183   4.584   0.276  14.896 -0.1324  0.3003 -0.0021
13231TIP3    H161184   4.555   0.290  14.987  2.1775 -1.0053  0.9824
13231TIP3    H261185   4.510   0.233  14.854 -0.5363 -0.8245  1.7870
13232TIP3   OH261186   4.450   3.468   5.695 -0.0748  1.1885  0.4611
13232TIP3    H161187   4.482   3.392   5.745  0.0664  0.9474  0.0051
13232TIP3    H261188   4.443   3.538   5.760  2.1757  1.4797  0.4152
13233TIP3   OH261189   3.586   1.162   5.943 -0.5722 -0.9836 -0.1316
13233TIP3    H161190   3.625   1.249   5.951 -2.0469 -0.3814  0.6465
13233TIP3    H261191   3.546   1.162   5.856 -2.0025 -0.2691  0.5061
13234TIP3   OH261192   4.680   0.459  15.617  0.1801  0.0245  0.1403
13234TIP3    H161193   4.714   0.549  15.615  0.1094  0.0340 -1.6342
13234TIP3    H261194   4.722   0.419  15.693 -0.2696  1.7480  1.3340
13235TIP3   OH261195   0.668   5.138  15.157  0.6366  0.1080 -0.0840
13235TIP3    H161196   0.635   5.197  15.090  0.4921 -0.2812 -0.3609
13235TIP3    H261197   0.596   5.076  15.171  1.2948 -0.8400 -0.8085
13236TIP3   OH261198   1.722   0.294   5.980 -0.0944  0.4859  0.0756
13236TIP3    H161199   1.714   0.207   6.020 -0.0523  0.1799 -0.5796
13236TIP3    H261200   1.794   0.285   5.917  0.5842  1.2651  0.7181
13237TIP3   OH261201   0.381   4.932  10.904  0.5607  0.7616 -0.0398
13237TIP3    H161202   0.348   4.852  10.863 -2.2561  1.9361 -0.1614
13237TIP3    H261203   0.436   4.972  10.837  2.8055 -1.4886  0.3528
13238TIP3   OH261204   5.359   0.216   0.368 -0.3862  0.0201  0.1156
13238TIP3    H161205   5.339   0.302   0.333 -1.4093  0.3141  1.3964
13238TIP3    H261206   5.455   0.215   0.376 -0.1361  0.0081 -2.4524
13239TIP3   OH261207   2.186   0.434   3.397  0.2154 -0.3130  0.1655
13239TIP3    H161208   2.215   0.474   3.479 -0.7802 -0.2223  0.4724
13239TIP3    H261209   2.123   0.367   3.423  0.3796 -0.7277 -0.4815
13240TIP3   OH261210   2.388   2.020  14.340  0.1396  0.3276  0.0257
13240TIP3    H161211   2.451   1.951  14.321 -1.4705 -0.8399 -1.1197
13240TIP3    H261212   2.442   2.095  14.367  1.9186 -1.1642  0.6882
13241TIP3   OH261213   6.709   0.907  12.600  0.0404 -0.4619 -0.2280
13241TIP3    H161214   6.786   0.962  12.584 -0.3212  0.7529  1.8638
13241TIP3    H261215   6.679   0.934  12.687 -2.8866 -0.7415 -1.0915
13242TIP3   OH261216   3.472   1.807  14.432 -0.0063  0.0366 -0.1909
13242TIP3    H161217   3.428   1.847  14.506 -1.6388  1.1867 -1.7452
13242TIP3    H261218   3.527   1.739  14.471  1.4093  2.5258  2.3136
13243TIP3   OH261219   3.970   0.130  13.022 -0.5062 -0.4963  0.4099
13243TIP3    H161220   3.875   0.120  13.031 -0.3995 -1.6807  0.2785
13243TIP3    H261221   3.985   0.225  13.026 -1.6872 -0.3099  0.4655
13244TIP3   OH261222   3.257   6.759  16.720 -0.3174  0.3983  0.7502
13244TIP3    H161223   3.194   6.822  16.685  0.9319  0.7664 -0.8755
13244TIP3    H261224   3.277   6.702  16.646  0.0500 -0.7140  1.6936
13245TIP3   OH261225   0.908   1.982  13.650 -0.2594 -0.3818 -0.1804
13245TIP3    H161226   0.954   2.062  13.675 -0.1064 -0.2323 -0.9214
13245TIP3    H261227   0.825   1.987  13.696  0.6794 -0.9115  1.5843
13246TIP3   OH261228   4.600   4.115   5.915 -0.6963 -0.0816  0.2044
13246TIP3    H161229   4.628   4.203   5.888 -1.6546  0.1668 -0.0045
13246TIP3    H261230   4.529   4.093   5.855  0.8306 -1.8297 -1.0242
13247TIP3   OH261231   0.728   2.262   3.054 -0.7178 -0.3472  0.8769
13247TIP3    H161232   0.729   2.355   3.078  0.3428 -0.1342  0.0331
13247TIP3    H261233   0.688   2.259   2.967  1.5690 -0.3933 -0.1986
13248TIP3   OH261234   4.807   0.522  15.082  0.5143  0.1872 -0.0596
13248TIP3    H161235   4.750   0.504  15.157  0.0225 -0.3373 -0.5511
13248TIP3    H261236   4.780   0.459  15.016  0.7496  0.8302 -0.7804
13249TIP3   OH261237   6.421   1.378  17.142  0.6951 -0.4140  0.0237
13249TIP3    H161238   6.438   1.316  17.212  2.7890  0.3764  0.2645
13249TIP3    H261239   6.492   1.363  17.079  0.3685  0.7111 -0.6282
13250TIP3   OH261240   4.405   1.892   3.141 -0.1285 -0.5267 -0.1672
13250TIP3    H161241   4.372   1.877   3.052 -0.9080 -0.2155  0.0728
13250TIP3    H261242   4.360   1.827   3.195  0.4442 -0.8032 -0.0142
13251TIP3   OH261243   1.636   1.103  13.664  0.0842  0.1395  0.0385
13251TIP3    H161244   1.703   1.117  13.598 -0.6592  0.5302 -0.6481
13251TIP3    H261245   1.677   1.130  13.746  0.7413  0.4290 -0.3805
13252TIP3   OH261246   3.342   0.098  12.945 -0.3161 -0.4909 -0.1011
13252TIP3    H161247   3.401   0.159  12.901 -1.6394  0.5534 -0.4962
13252TIP3    H261248   3.367   0.012  12.913  1.6766 -0.1803  0.5678
13253TIP3   OH261249   5.560   6.647  16.403 -0.0169 -0.3915  0.0925
13253TIP3    H161250   5.493   6.652  16.335  0.2248  0.4886 -0.0934
13253TIP3    H261251   5.535   6.715  16.466  0.0797 -0.8133  0.5833
13254TIP3   OH261252   0.974   1.746  11.086 -0.0659  0.2560  0.4988
13254TIP3    H161253   0.977   1.658  11.125 -2.7275  0.9411  2.3648
13254TIP3    H261254   1.004   1.804  11.156  2.5629  0.8362 -1.0101
13255TIP3   OH261255   6.418   1.954  12.290 -0.5215  0.4291 -0.3178
13255TIP3    H161256   6.479   1.898  12.241 -0.8794 -1.1921  1.0625
13255TIP3    H261257   6.414   1.914  12.377 -0.3814  2.9216  0.8550
13256TIP3   OH261258   1.376   6.695   4.416 -0.2296  0.8233 -0.2934
13256TIP3    H161259   1.467   6.670   4.438 -0.0762  0.7760 -0.9723
13256TIP3    H261260   1.323   6.633   4.465  0.1273  0.2421 -0.6311
13257TIP3   OH261261   5.222   3.710  12.675  0.6243 -0.3369  0.6521
13257TIP3    H161262   5.267   3.662  12.745 -1.2564 -0.1839  1.9956
13257TIP3    H261263   5.224   3.801  12.704 -1.9104 -0.5225  1.5174
13258TIP3   OH261264   1.794   2.468  12.150  0.2224 -0.1005 -0.4782
13258TIP3    H161265   1.858   2.402  12.176  0.2454  0.2168  0.2666
13258TIP3    H261266   1.839   2.519  12.082  0.2516 -0.7591 -0.9530
13259TIP3   OH261267   6.451   5.092  14.511  0.0308 -0.6763  0.1852
13259TIP3    H161268   6.486   5.064  14.596 -0.9604 -0.0144  0.8184
13259TIP3    H261269   6.454   5.187  14.514 -1.4143 -0.6154  0.0871
13260TIP3   OH261270   4.663   2.159   0.147  0.7226 -0.5446  0.2420
13260TIP3    H161271   4.739   2.114   0.184  0.8855  0.5121  1.2288
13260TIP3    H261272   4.598   2.156   0.217  1.3605  2.3122  1.0474
13261TIP3   OH261273   0.903   3.391   1.487 -0.2804  0.0215 -0.0587
13261TIP3    H161274   0.982   3.336   1.485  0.2405  0.6509  1.7141
13261TIP3    H261275   0.917   3.455   1.417  0.1300 -0.7641 -0.6970
13262TIP3   OH261276   0.192   6.749  15.397  0.0469 -0.1111 -0.2850
13262TIP3    H161277   0.147   6.818  15.348  0.4480  0.4885  0.1735
13262TIP3    H261278   0.121   6.693  15.430 -0.2211 -0.5359 -1.5585
13263TIP3   OH261279   4.047   4.776  13.903 -0.1679 -0.1615 -0.2504
13263TIP3    H161280   4.067   4.699  13.956 -1.3391  0.1706  0.7107
13263TIP3    H261281   3.970   4.750  13.852 -1.1219  0.6613  0.7488
13264TIP3   OH261282   2.571   6.754   2.333 -0.0273  0.7069  0.0880
13264TIP3    H161283   2.550   6.766   2.425  1.6407 -0.0873  0.6035
13264TIP3    H261284   2.650   6.807   2.319  1.6236 -1.6531 -0.0316
13265TIP3   OH261285   6.074   3.237  16.845  0.1783  0.0292  0.2791
13265TIP3    H161286   6.060   3.318  16.895 -0.0744 -0.2393  0.6403
13265TIP3    H261287   6.017   3.173  16.887  0.8890 -0.5161  0.4139
13266TIP3   OH261288   4.450   2.455   2.532  0.5649  0.1081  0.0017
13266TIP3    H161289   4.516   2.429   2.467 -0.1585  0.9548 -1.0910
13266TIP3    H261290   4.403   2.374   2.553  0.9752 -0.2161 -0.3424
13267TIP3   OH261291   4.956   1.929  12.671  0.5865 -0.3935  0.2794
13267TIP3    H161292   4.916   2.004  12.627 -2.1320 -3.2871 -2.4217
13267TIP3    H261293   4.905   1.919  12.752 -0.5107 -0.6492 -0.4313
13268TIP3   OH261294   2.911   6.348  10.573 -0.0397  0.1181 -0.2446
13268TIP3    H161295   2.909   6.409  10.647 -0.2632 -1.3624  0.9953
13268TIP3    H261296   2.902   6.261  10.613 -0.8177 -0.6670 -2.0568
13269TIP3   OH261297   0.190   3.200   2.161 -0.0801 -0.5895  0.4472
13269TIP3    H161298   0.269   3.230   2.206 -0.4882 -0.2669  0.9413
13269TIP3    H261299   0.221   3.177   2.073  0.1316  1.9127 -0.1675
13270TIP3   OH261300   1.190   6.467  13.190 -0.0642 -0.1576  0.1562
13270TIP3    H161301   1.277   6.449  13.225 -1.2147 -0.6728  2.9077
13270TIP3    H261302   1.191   6.431  13.102  2.7249  0.5043 -0.1292
13271TIP3   OH261303   4.809   1.981  16.241  0.0542 -0.1607  0.1530
13271TIP3    H161304   4.775   2.015  16.324 -0.3933 -0.3648  0.0565
13271TIP3    H261305   4.891   1.938  16.264 -1.4173 -2.7003  0.9813
13272TIP3   OH261306   1.106   3.080   4.276 -0.3935  0.1002 -0.0668
13272TIP3    H161307   1.174   3.138   4.310 -0.2414 -0.7097  1.0193
13272TIP3    H261308   1.035   3.085   4.340 -1.5492  1.2720 -1.4082
13273TIP3   OH261309   1.428   3.662  13.198 -0.2268 -0.4057 -0.9840
13273TIP3    H161310   1.347   3.706  13.171 -0.5904 -0.8807 -0.6746
13273TIP3    H261311   1.400   3.574  13.223  0.6522 -1.1864 -2.6788
13274TIP3   OH261312   2.806   0.313   4.210 -0.2751  0.0344  0.5717
13274TIP3    H161313   2.894   0.350   4.198 -0.0780 -0.9746 -1.2789
13274TIP3    H261314   2.749   0.390   4.217  0.6222  0.6915  0.7415
13275TIP3   OH261315   3.980   6.676  12.072  0.0749 -0.1643 -0.1494
13275TIP3    H161316   4.060   6.665  12.123 -0.0354  0.1838  0.0934
13275TIP3    H261317   4.008   6.725  11.994  0.2862 -0.8927 -0.5401
13276TIP3   OH261318   0.206   3.210   4.793 -0.0823 -0.7588  0.2778
13276TIP3    H161319   0.155   3.181   4.717 -1.8179  1.0281  0.7205
13276TIP3    H261320   0.187   3.145   4.861 -0.3974 -1.0575 -0.0973
13277TIP3   OH261321   6.275   5.644  17.047  0.0770 -0.2808 -0.3648
13277TIP3    H161322   6.268   5.583  16.974 -1.9223  1.6977 -1.8917
13277TIP3    H261323   6.304   5.726  17.008 -2.6811  1.3011  0.7019
13278TIP3   OH261324   6.719   5.631   1.066  0.1959  0.0221  0.3952
13278TIP3    H161325   6.648   5.574   1.036 -1.3013  0.9455  2.0507
13278TIP3    H261326   6.727   5.698   0.998 -1.5855  0.7799  0.9055
13279TIP3   OH261327   6.200   4.142  12.879  0.4333 -0.1824  0.5696
13279TIP3    H161328   6.266   4.109  12.940 -2.1063 -2.6694  2.0672
13279TIP3    H261329   6.194   4.074  12.811 -0.5260  0.0621  0.4037
13280TIP3   OH261330   6.502   0.349   4.464  0.1886  0.0491  0.6430
13280TIP3    H161331   6.574   0.411   4.473  0.6748 -0.3179 -0.6837
13280TIP3    H261332   6.543   0.267   4.436 -0.4745 -0.8209  2.1206
13281TIP3   OH261333   5.680   0.734   2.735  0.5399 -0.3683  0.1988
13281TIP3    H161334   5.641   0.682   2.665  2.4627 -0.4078 -0.8678
13281TIP3    H261335   5.611   0.742   2.800 -0.5635 -2.2211 -0.7080
13282TIP3   OH261336   4.840   1.347   3.836  0.1196  0.3261  0.0487
13282TIP3    H161337   4.815   1.258   3.862  1.3432 -0.0591 -0.0506
13282TIP3    H261338   4.757   1.394   3.827 -0.5386 -0.8215  0.0414
13283TIP3   OH261339   3.338   2.409   2.128 -0.1368  0.6480 -0.3313
13283TIP3    H161340   3.320   2.496   2.164 -0.6513 -0.0388  1.0729
13283TIP3    H261341   3.260   2.387   2.078 -0.5886  0.3908  0.4847
13284TIP3   OH261342   1.248   3.528   3.622  0.4479 -0.1041  0.0001
13284TIP3    H161343   1.201   3.446   3.639  1.5846 -0.8262 -0.2600
13284TIP3    H261344   1.281   3.519   3.533 -1.2779  1.5777 -0.8274
13285TIP3   OH261345   4.334   0.951   3.082  0.0444 -0.4311 -0.4301
13285TIP3    H161346   4.415   0.951   3.133 -0.3307  0.0776  0.1710
13285TIP3    H261347   4.308   1.044   3.079 -2.4809 -0.9862  2.4771
13286TIP3   OH261348   6.286   0.648   3.691  0.0219 -0.1456 -0.0350
13286TIP3    H161349   6.287   0.721   3.753 -1.4534  0.7335 -1.0178
13286TIP3    H261350   6.333   0.681   3.614  0.2956 -0.6094 -0.0668
13287TIP3   OH261351   3.995   2.145   1.140 -0.3966  0.7513  0.0502
13287TIP3    H161352   3.922   2.183   1.090 -0.7834  0.1379  0.1447
13287TIP3    H261353   4.018   2.065   1.093 -0.7824  0.1538  0.8595
13288TIP3   OH261354   5.881   2.569  11.555 -0.0808 -0.3055 -0.3725
13288TIP3    H161355   5.912   2.522  11.477  1.3434 -0.2215  0.1246
13288TIP3    H261356   5.786   2.571  11.546  0.0962  0.2817 -2.4520
13289TIP3   OH261357   5.822   0.225   1.664 -0.3750 -0.0835  0.1885
13289TIP3    H161358   5.772   0.195   1.589  0.2204  1.4715 -0.8501
13289TIP3    H261359   5.758   0.267   1.721 -0.4347  0.9358 -0.6251
13290TIP3   OH261360   2.271   2.265   2.583  0.7198  0.1422 -0.5854
13290TIP3    H161361   2.308   2.288   2.497 -2.6572 -0.6426 -2.3109
13290TIP3    H261362   2.296   2.174   2.595  1.5955  0.3853 -0.4998
13291TIP3   OH261363   2.361   1.086   3.858 -0.8258  0.4033  0.0312
13291TIP3    H161364   2.331   1.029   3.929  0.1393  0.3436  0.4087
13291TIP3    H261365   2.438   1.130   3.894  0.3385 -0.4606 -1.3475
13292TIP3   OH261366   5.201   0.452  14.485  0.3942 -0.7414  0.5234
13292TIP3    H161367   5.220   0.381  14.545 -0.1713 -0.7880  0.6501
13292TIP3    H261368   5.127   0.498  14.524  0.5192 -0.3042  0.2562
13293TIP3   OH261369   5.807   1.493  16.169  0.4344  0.4197  0.1036
13293TIP3    H161370   5.811   1.587  16.154  0.4018  0.5140  0.6822
13293TIP3    H261371   5.836   1.481  16.260 -1.0641  0.0261  0.5401
13294TIP3   OH261372   5.605   4.101  11.969 -0.0719 -0.0062 -0.4831
13294TIP3    H161373   5.531   4.059  12.013  0.0301 -0.5450 -0.8166
13294TIP3    H261374   5.602   4.066  11.880  0.1635  0.5126 -0.6966
13295TIP3   OH261375   0.243   3.768  11.281  0.1217  0.6518 -0.1431
13295TIP3    H161376   0.299   3.705  11.326 -2.2026 -0.8804  0.7414
13295TIP3    H261377   0.243   3.739  11.190  2.0338  1.6513 -0.4846
13296TIP3   OH261378   5.104   1.522  13.517  0.5040 -0.3008 -0.1130
13296TIP3    H161379   5.053   1.555  13.591 -2.6705  2.5485 -3.3763
13296TIP3    H261380   5.051   1.452  13.480  1.8090 -1.3389 -0.0381
13297TIP3   OH261381   1.965   5.597  14.136  0.3436  0.1782  0.1243
13297TIP3    H161382   1.937   5.609  14.226 -1.8355 -0.4486 -0.4567
13297TIP3    H261383   2.006   5.681  14.112 -0.9012  1.0462  1.0239
13298TIP3   OH261384   3.340   6.649  15.088  0.3938  0.7929 -0.2617
13298TIP3    H161385   3.297   6.563  15.088  1.1879  0.3805  1.2449
13298TIP3    H261386   3.360   6.666  14.996 -1.2640  0.1295 -0.7717
13299TIP3   OH261387   2.991   6.118   2.926  0.6629 -0.6432 -0.5711
13299TIP3    H161388   2.999   6.022   2.930  1.1220 -0.6354 -1.2803
13299TIP3    H261389   3.064   6.146   2.872 -0.6510 -0.0641 -2.0737
13300TIP3   OH261390   3.307   3.813  13.292  0.0530  0.7202 -0.1432
13300TIP3    H161391   3.356   3.759  13.353  0.6082 -0.6327 -1.7441
13300TIP3    H261392   3.372   3.870  13.252  0.3344 -0.9633 -2.1499
13301TIP3   OH261393   0.576   5.018   6.090  0.6478  0.1526 -0.1735
13301TIP3    H161394   0.668   4.995   6.103 -0.0117 -1.7107  1.3699
13301TIP3    H261395   0.527   4.952   6.139 -1.4410  2.5868  1.2040
13302TIP3   OH261396   0.686   1.849   0.709 -0.1739 -0.1293  0.2977
13302TIP3    H161397   0.638   1.832   0.628 -0.0947 -0.1453  0.2550
13302TIP3    H261398   0.778   1.838   0.686 -0.2176 -1.4586  0.7082
13303TIP3   OH261399   6.548   3.906   0.475  0.5665 -0.4299  0.2847
13303TIP3    H161400   6.541   3.845   0.549  1.5629 -0.2636  0.5158
13303TIP3    H261401   6.502   3.985   0.505  0.4928 -0.5611  0.5177
13304TIP3   OH261402   6.218   2.886  11.154 -0.5600  0.3244 -0.1267
13304TIP3    H161403   6.240   2.882  11.061 -1.6369 -1.1869 -0.3176
13304TIP3    H261404   6.131   2.926  11.157  0.2576  2.1443  0.3699
13305TIP3   OH261405   1.205   6.643   0.459  0.0181  0.4059 -0.0578
13305TIP3    H161406   1.296   6.625   0.435  0.5694  2.9968 -0.0652
13305TIP3    H261407   1.207   6.654   0.554 -0.3555  0.0380 -0.0106
13306TIP3   OH261408   2.148   4.562   4.968 -0.9251 -0.1339  0.4792
13306TIP3    H161409   2.211   4.619   5.011 -0.4856 -1.6628  1.9276
13306TIP3    H261410   2.074   4.558   5.028 -0.9982 -1.0036  0.3386
13307TIP3   OH261411   5.702   3.023  10.594  0.3153  0.0157  0.1591
13307TIP3    H161412   5.634   3.087  10.613  1.3715  0.8299  1.2575
13307TIP3    H261413   5.757   3.065  10.528 -0.0908 -0.5376 -0.5383
13308TIP3   OH261414   4.165   2.639   1.333 -0.6642 -0.6122 -0.1226
13308TIP3    H161415   4.178   2.686   1.416  0.4895  2.2359 -1.8414
13308TIP3    H261416   4.113   2.563   1.357 -0.5923  0.2888  3.1914
13309TIP3   OH261417   2.613   4.957   3.969 -0.7371  0.2053  0.5771
13309TIP3    H161418   2.675   5.000   3.911 -0.8437 -1.8913 -1.1572
13309TIP3    H261419   2.659   4.951   4.053  0.4821  0.8292 -0.0341
13310TIP3   OH261420   4.795   0.689  17.014 -0.1449  0.4918 -0.0698
13310TIP3    H161421   4.879   0.708  16.970 -0.5799  1.6645 -0.4091
13310TIP3    H261422   4.732   0.681  16.942 -0.4285  0.0972  0.2218
13311TIP3   OH261423   4.876   3.007   1.303 -0.3920  0.1568 -0.0785
13311TIP3    H161424   4.784   3.029   1.291 -0.6329 -0.3374  0.8230
13311TIP3    H261425   4.901   3.052   1.384  0.0959  0.0974 -0.1919
13312TIP3   OH261426   5.247   0.599  11.605  0.2933  0.0351  0.4226
13312TIP3    H161427   5.275   0.509  11.620  0.4574  0.5224  3.3051
13312TIP3    H261428   5.312   0.652  11.652 -0.2423  1.6171 -0.5968
13313TIP3   OH261429   1.807   2.621   3.505 -0.0927 -0.0588  0.1563
13313TIP3    H161430   1.779   2.622   3.597 -0.6971  0.3490 -0.0303
13313TIP3    H261431   1.731   2.588   3.457 -0.5175  1.6813 -0.4308
13314TIP3   OH261432   2.310   3.321  14.883  0.2630 -0.3850  0.1914
13314TIP3    H161433   2.299   3.299  14.791 -1.1764 -0.9712  0.4819
13314TIP3    H261434   2.309   3.417  14.886 -0.2051 -0.3739 -0.3405
13315TIP3   OH261435   5.759   2.566  11.831 -0.0073  0.7758 -0.2537
13315TIP3    H161436   5.778   2.493  11.773 -0.0004 -0.5354  1.3811
13315TIP3    H261437   5.668   2.589  11.813  0.0569  0.5157 -0.9129
13316TIP3   OH261438   0.034   3.656   2.687 -0.0654  0.1994  0.3729
13316TIP3    H161439   0.103   3.611   2.735  0.3587 -0.5089 -0.8850
13316TIP3    H261440   0.079   3.724   2.638 -0.5731  1.3095  1.4060
13317TIP3   OH261441   3.129   5.905  12.557  0.4201  0.1496 -0.1089
13317TIP3    H161442   3.130   5.990  12.602  0.6002  0.3438 -0.4738
13317TIP3    H261443   3.221   5.883  12.546  0.4037  0.8323 -1.7343
13318TIP3   OH261444   3.125   4.969   4.161  0.0017 -0.4141 -0.3458
13318TIP3    H161445   3.076   5.047   4.187 -2.1259 -2.0165  0.5508
13318TIP3    H261446   3.157   4.932   4.243 -0.6285 -1.5214 -0.5886
13319TIP3   OH261447   4.008   5.621   3.088  0.5598  0.0609  0.0928
13319TIP3    H161448   4.072   5.592   3.154  2.6284  0.6937 -1.5522
13319TIP3    H261449   3.980   5.540   3.045  0.9968 -0.1454  0.1903
13320TIP3   OH261450   0.107   2.346  11.118 -0.9886  0.0211  0.4534
13320TIP3    H161451   0.042   2.402  11.160  0.5292  2.2885 -0.1856
13320TIP3    H261452   0.188   2.361  11.167 -0.4565 -1.3143  0.0245
13321TIP3   OH261453   4.513   5.651  12.762  0.3432  0.1470  0.7086
13321TIP3    H161454   4.481   5.562  12.747 -2.0129  1.0279  0.3394
13321TIP3    H261455   4.607   5.640  12.775 -0.0021 -2.4627  1.3249
13322TIP3   OH261456   0.220   1.608  13.908  0.0461  0.0992 -0.4099
13322TIP3    H161457   0.291   1.627  13.846 -0.8078 -1.0020 -1.7495
13322TIP3    H261458   0.182   1.527  13.876 -1.6666  0.5414  0.4774
13323TIP3   OH261459   3.307   6.444   0.182 -0.2083 -0.8828  0.2487
13323TIP3    H161460   3.257   6.456   0.101  1.2288  0.6437 -0.4514
13323TIP3    H261461   3.241   6.452   0.252 -1.1393 -0.1087 -0.6909
13324TIP3   OH261462   2.048   0.060   0.087 -0.1026 -0.7134 -0.1224
13324TIP3    H161463   2.064   0.065  -0.008 -0.5080 -2.6073 -0.3112
13324TIP3    H261464   1.954   0.075   0.095  0.1698  1.0251  0.1523
13325TIP3   OH261465   4.761   6.687  13.035 -0.8524 -0.3080 -0.2096
13325TIP3    H161466   4.667   6.674  13.045 -0.6524 -0.7995  1.2475
13325TIP3    H261467   4.779   6.770  13.078 -0.5240 -0.5786  0.1868
13326TIP3   OH261468   3.896   4.701   2.364  0.0231 -0.1008  0.1043
13326TIP3    H161469   3.840   4.686   2.440  1.1471  0.1354  1.0041
13326TIP3    H261470   3.910   4.796   2.363  0.5382 -0.1759 -0.0095
13327TIP3   OH261471   4.631   5.626   4.402  0.1350 -0.2616  0.7871
13327TIP3    H161472   4.637   5.550   4.345 -1.0146 -0.7315  1.2815
13327TIP3    H261473   4.561   5.605   4.464  0.3867  0.8362  1.4692
13328TIP3   OH261474   4.036   1.817  11.360 -0.1248 -0.3929 -0.0691
13328TIP3    H161475   4.110   1.802  11.301  0.5784 -0.5233  0.8442
13328TIP3    H261476   3.960   1.787  11.310  0.4492 -0.3597 -0.9722
13329TIP3   OH261477   2.572   1.645  12.646  0.1743 -0.0834  0.5610
13329TIP3    H161478   2.622   1.671  12.724  0.3856  1.4503 -0.0614
13329TIP3    H261479   2.572   1.549  12.648  1.0345 -0.0691  1.9030
13330TIP3   OH261480   2.850   4.725   4.473 -0.0033  0.0671  0.2317
13330TIP3    H161481   2.874   4.694   4.386  0.6839 -0.7931  0.7273
13330TIP3    H261482   2.887   4.814   4.478 -0.5263  0.3335 -0.5547
13331TIP3   OH261483   0.002   6.265   4.168  0.0871 -0.5419  0.4620
13331TIP3    H161484   0.095   6.284   4.177 -0.0003  0.5994 -0.9191
13331TIP3    H261485  -0.006   6.226   4.080 -0.5017 -2.2042  1.2176
13332TIP3   OH261486   4.454   3.450  10.969  0.0237 -0.5662 -0.1499
13332TIP3    H161487   4.373   3.402  10.987  1.6970 -2.5370  2.5188
13332TIP3    H261488   4.440   3.536  11.009 -1.5693 -0.0712 -1.6970
13333TIP3   OH261489   3.968   5.696   2.700 -0.3115  0.2875 -0.2811
13333TIP3    H161490   4.052   5.691   2.655 -0.2662 -1.1933 -0.0459
13333TIP3    H261491   3.990   5.713   2.792 -0.2953  0.5339 -0.3304
13334TIP3   OH261492   4.739   2.612  15.026 -0.1522  0.6512  0.0640
13334TIP3    H161493   4.778   2.592  14.941  0.0094 -1.7091  0.6585
13334TIP3    H261494   4.811   2.645  15.079  0.6126 -1.6040  0.4704
13335TIP3   OH261495   6.014   3.998   4.954 -0.1278 -0.4038  0.0697
13335TIP3    H161496   6.044   4.042   4.874  2.6556 -0.0739  1.2238
13335TIP3    H261497   6.033   3.905   4.939 -1.4495 -0.6005 -0.4239
13336TIP3   OH261498   4.229   3.317   0.456  0.1004 -0.6500  0.2508
13336TIP3    H161499   4.165   3.372   0.410  0.7016 -0.8944 -0.8604
13336TIP3    H261500   4.188   3.231   0.459  0.1105 -0.6604  0.0836
13337TIP3   OH261501   5.159   3.375   2.846  0.0564 -0.1261 -0.3695
13337TIP3    H161502   5.192   3.330   2.923 -0.2327 -1.5434 -1.0624
13337TIP3    H261503   5.103   3.445   2.881  2.1451  1.0312  0.7630
13338TIP3   OH261504   5.129   2.132  16.550  0.2381  0.1962  0.4340
13338TIP3    H161505   5.041   2.162  16.525  1.2914  1.4157 -1.9110
13338TIP3    H261506   5.119   2.102  16.641 -2.8562 -0.8068 -0.1852
13339TIP3   OH261507   1.712   4.749   4.528 -0.8148 -0.3402 -0.1472
13339TIP3    H161508   1.707   4.660   4.492 -0.5481  0.1343 -1.3788
13339TIP3    H261509   1.653   4.801   4.473  0.1099  0.5377 -0.3179
13340TIP3   OH261510   6.360   5.163   5.462 -0.2881  0.0543  0.0224
13340TIP3    H161511   6.374   5.085   5.408  0.3607 -1.4445  2.3219
13340TIP3    H261512   6.276   5.197   5.433 -0.5246 -1.4167 -1.0932
13341TIP3   OH261513   1.084   6.230   0.231 -0.2419 -0.6289  0.0249
13341TIP3    H161514   1.150   6.187   0.176 -0.7345 -0.6607 -0.5448
13341TIP3    H261515   1.009   6.243   0.173  0.3331  2.0883 -0.1757
13342TIP3   OH261516   1.314   5.477   6.404 -0.3204  0.3562  0.5371
13342TIP3    H161517   1.273   5.542   6.346 -2.0090 -0.1668  1.1103
13342TIP3    H261518   1.240   5.435   6.448  0.8139 -1.1895  0.9953
13343TIP3   OH261519   3.250   6.315   1.903  0.3500  0.3410 -0.3389
13343TIP3    H161520   3.318   6.265   1.858  1.2288  0.9832  0.2729
13343TIP3    H261521   3.255   6.403   1.865 -0.6122  0.2107 -0.7948
13344TIP3   OH261522   1.980   1.473   0.003 -0.0175  0.4640 -0.5486
13344TIP3    H161523   2.000   1.559  -0.033 -1.0485  0.3394 -1.4363
13344TIP3    H261524   2.056   1.451   0.057 -0.0578  2.2355  0.2523
13345TIP3   OH261525   4.387   2.123  16.770 -0.4645 -0.6339 -0.1671
13345TIP3    H161526   4.318   2.185  16.744 -1.4135 -1.2487  0.9052
13345TIP3    H261527   4.435   2.169  16.839 -0.4443 -0.6394 -0.1749
13346TIP3   OH261528   0.892   5.530  12.037  0.0083 -0.2002 -1.1460
13346TIP3    H161529   0.953   5.460  12.013  0.7096 -0.3419  0.9933
13346TIP3    H261530   0.932   5.572  12.113 -2.4243 -0.0980  0.1090
13347TIP3   OH261531   2.182   3.318  10.670 -0.2008 -0.1325 -0.1364
13347TIP3    H161532   2.152   3.228  10.670  1.9433 -0.9228  2.0869
13347TIP3    H261533   2.236   3.326  10.591  0.9082 -1.2832  0.4979
13348TIP3   OH261534   4.206   3.428  13.433 -0.9773  0.3397 -0.1506
13348TIP3    H161535   4.298   3.447  13.413 -0.0817 -2.1708  1.4013
13348TIP3    H261536   4.191   3.339  13.401 -2.6492  0.4264  0.3183
13349TIP3   OH261537   1.246   2.886  10.854 -0.0616 -0.4095  0.1242
13349TIP3    H161538   1.293   2.823  10.800  0.6800 -0.4731  0.8281
13349TIP3    H261539   1.154   2.860  10.848 -0.1008  0.0697 -1.7505
13350TIP3   OH261540   1.258   3.936  12.829  0.3014 -0.3662  0.1549
13350TIP3    H161541   1.323   3.947  12.899 -0.6132  0.6578  0.8640
13350TIP3    H261542   1.283   3.854  12.786  2.8405  0.6384 -0.4274
13351TIP3   OH261543   2.907   0.485   3.081  0.2028 -0.6927 -0.3409
13351TIP3    H161544   2.854   0.407   3.098  1.4766 -1.3631  0.7274
13351TIP3    H261545   2.864   0.555   3.129  0.6698 -1.3914  1.1504
13352TIP3   OH261546   5.774   3.941  13.459 -0.0504  0.1177  0.2171
13352TIP3    H161547   5.812   4.018  13.501  2.7568 -1.3930  0.5725
13352TIP3    H261548   5.802   3.947  13.368  0.7345 -0.7912  0.3875
13353TIP3   OH261549   3.715   4.211   5.817 -0.0144 -0.0624  0.0534
13353TIP3    H161550   3.690   4.120   5.800  0.6486 -0.3121  0.4206
13353TIP3    H261551   3.685   4.227   5.907  1.9600 -0.6565  0.8414
13354TIP3   OH261552   4.544   5.266  13.125 -0.5201  0.2986  0.3408
13354TIP3    H161553   4.561   5.186  13.174  0.1422  0.3847  0.2527
13354TIP3    H261554   4.462   5.249  13.078 -1.4046  0.3654  1.8194
13355TIP3   OH261555   5.695   1.238  16.236 -0.5267  0.0832 -0.0798
13355TIP3    H161556   5.761   1.295  16.275 -0.1253  0.2057 -0.9277
13355TIP3    H261557   5.616   1.292  16.233 -0.6161 -0.0046  0.7767
13356TIP3   OH261558   3.672   5.553  15.554 -0.3581 -0.0004 -0.1514
13356TIP3    H161559   3.709   5.492  15.490  0.6384  1.1137 -0.6490
13356TIP3    H261560   3.710   5.637  15.532  0.5564  0.2813  2.3560
13357TIP3   OH261561   3.031   3.268   1.891 -0.5495 -0.1675  0.1076
13357TIP3    H161562   3.087   3.327   1.941 -0.5288 -0.8683  0.9293
13357TIP3    H261563   3.084   3.241   1.817  0.5373 -1.5039  1.3441
13358TIP3   OH261564   3.397   2.396  17.180 -0.1338 -0.4246 -0.1843
13358TIP3    H161565   3.357   2.471  17.136  1.9294  1.2565  0.7608
13358TIP3    H261566   3.366   2.320  17.130 -2.5848  0.9866 -0.8952
13359TIP3   OH261567   1.615   2.258  11.603  0.2730 -0.2076  0.4920
13359TIP3    H161568   1.580   2.200  11.535  0.6071  0.1177  0.0355
13359TIP3    H261569   1.619   2.204  11.682  0.6915 -0.8411  0.0383
13360TIP3   OH261570   4.505   3.979  13.688  0.1302 -0.1280  0.2712
13360TIP3    H161571   4.539   3.979  13.778  0.0925  1.2945  0.2969
13360TIP3    H261572   4.576   4.016  13.635 -0.8907  1.7358  0.1558
13361TIP3   OH261573   4.151   5.101   2.876 -0.5571 -0.2337 -0.1841
13361TIP3    H161574   4.216   5.035   2.901  0.9764  1.2334 -0.2286
13361TIP3    H261575   4.096   5.110   2.953  0.9860  0.4836  0.8764
13362TIP3   OH261576   0.661   4.996   3.796 -0.9209 -0.2749 -0.1220
13362TIP3    H161577   0.583   5.019   3.848 -0.1500 -1.4425  1.6102
13362TIP3    H261578   0.630   4.997   3.705 -2.7440  0.1141  0.4712
13363TIP3   OH261579   1.854   6.481   0.721 -0.1883 -0.1337  0.1720
13363TIP3    H161580   1.766   6.443   0.717  0.5442 -1.8532  0.2263
13363TIP3    H261581   1.839   6.573   0.745 -1.9227 -0.6084  0.9574
13364TIP3   OH261582   2.736   3.166  11.298  0.0842  0.4117  1.0035
13364TIP3    H161583   2.737   3.252  11.257 -0.4264  0.1882  0.5162
13364TIP3    H261584   2.678   3.113  11.242 -0.0797 -0.0800  1.6332
13365TIP3   OH261585   4.991   0.945  12.760 -0.1151 -0.2669 -0.4293
13365TIP3    H161586   5.052   1.010  12.795  0.8946 -0.8569 -1.0870
13365TIP3    H261587   5.033   0.861  12.776 -0.4640 -0.6412 -1.4527
13366TIP3   OH261588   5.887   0.154   1.328  0.1936 -0.2871 -0.5194
13366TIP3    H161589   5.982   0.145   1.343  0.2129  0.3559 -0.2195
13366TIP3    H261590   5.881   0.203   1.246  0.0985 -1.9744 -1.5505
13367TIP3   OH261591   1.335   4.027   2.629  0.1424 -0.0672  0.0014
13367TIP3    H161592   1.289   3.965   2.685  0.2436  1.2087  1.5266
13367TIP3    H261593   1.285   4.108   2.637  0.8622  0.4681 -0.8030
13368TIP3   OH261594   4.416   2.510   1.854  0.2253  0.0796  0.1186
13368TIP3    H161595   4.478   2.578   1.880 -1.1045  1.2705  0.2163
13368TIP3    H261596   4.412   2.451   1.929 -0.9549  1.6019  1.2779
13369TIP3   OH261597   0.872   0.027  12.953  0.0851 -0.0041  0.3186
13369TIP3    H161598   0.908   0.089  13.017  0.1703 -1.9647  2.2205
13369TIP3    H261599   0.777   0.040  12.958  0.0873 -0.2006  0.8970
13370TIP3   OH261600   1.635   4.830   2.916 -0.5367 -0.9085  0.3678
13370TIP3    H161601   1.594   4.757   2.870  0.1232 -1.7157  1.0255
13370TIP3    H261602   1.729   4.813   2.907 -0.3704  0.2986 -0.1562
13371TIP3   OH261603   0.141   1.497   2.552 -0.2570 -0.0658  0.0204
13371TIP3    H161604   0.080   1.551   2.603  0.1981  1.7688 -1.3293
13371TIP3    H261605   0.226   1.540   2.564  0.2937 -1.0707 -0.2609
13372TIP3   OH261606   4.539   5.785  15.165  0.0290  0.0148 -0.2906
13372TIP3    H161607   4.562   5.833  15.086  0.2738  1.8314  0.8314
13372TIP3    H261608   4.443   5.787  15.168  0.0767  2.0193  0.6524
13373TIP3   OH261609   1.381   3.481  15.286 -0.0097 -1.0066  0.3377
13373TIP3    H161610   1.469   3.519  15.283 -1.0639  1.5799  0.3819
13373TIP3    H261611   1.362   3.458  15.195  0.9131 -2.0764  0.4117
13374TIP3   OH261612   2.513   5.497   6.083  0.0278 -0.0568 -0.0548
13374TIP3    H161613   2.429   5.502   6.038 -1.0277 -2.0724  1.5762
13374TIP3    H261614   2.494   5.526   6.172  0.9633 -0.8978  0.4313
13375TIP3   OH261615   0.356   1.518  15.398 -0.3944  0.4676  0.0257
13375TIP3    H161616   0.396   1.604  15.412 -2.1956  1.0786  1.8026
13375TIP3    H261617   0.387   1.491  15.312  1.1818  2.3490 -0.0504
13376TIP3   OH261618   1.017   6.173   3.354 -0.3114  0.4852 -0.2559
13376TIP3    H161619   0.992   6.102   3.295  2.0615  0.3314 -1.1494
13376TIP3    H261620   0.941   6.187   3.409 -1.1884 -2.0302 -0.7854
13377TIP3   OH261621   1.549   5.240  14.143  0.8092 -0.2939  0.2575
13377TIP3    H161622   1.504   5.315  14.104  0.4885 -0.5208  0.1884
13377TIP3    H261623   1.482   5.173  14.149  0.7543 -0.1452  1.5262
13378TIP3   OH261624   1.552   6.667   0.137  0.1993 -0.0794 -0.4980
13378TIP3    H161625   1.612   6.704   0.073  1.7881  0.6776  1.3693
13378TIP3    H261626   1.608   6.638   0.209 -1.5306 -0.9187  0.5415
13379TIP3   OH261627   3.898   5.532  16.762 -0.2119 -0.1509  0.2190
13379TIP3    H161628   3.803   5.542  16.769  0.1550  3.0496  1.0334
13379TIP3    H261629   3.924   5.490  16.844 -0.8479 -0.6196  0.1826
13380TIP3   OH261630   0.615   1.622  17.264 -0.2136 -0.5232  1.4989
13380TIP3    H161631   0.597   1.617  17.358  1.9610 -0.2488  1.9598
13380TIP3    H261632   0.707   1.598  17.256 -0.3693 -0.5497 -0.5825
13381TIP3   OH261633   5.962   5.111   4.448  0.2978 -0.3547  0.3352
13381TIP3    H161634   5.947   5.158   4.366  3.2974 -0.2787 -0.2117
13381TIP3    H261635   5.970   5.019   4.422 -2.3432 -0.8096  1.0129
13382TIP3   OH261636   3.322   6.161  16.744 -0.0820 -0.8397 -0.0327
13382TIP3    H161637   3.336   6.194  16.656  0.8840  1.4882  0.9439
13382TIP3    H261638   3.409   6.130  16.772  0.0438  0.1894  0.7609
13383TIP3   OH261639   3.474   3.129   2.498  0.3778  0.1278  0.6991
13383TIP3    H161640   3.540   3.131   2.568  0.9365  0.2312  0.1681
13383TIP3    H261641   3.403   3.184   2.531  1.5062  1.8296  0.3257
13384TIP3   OH261642   2.833   6.582  16.050 -0.4891 -0.1839 -0.2557
13384TIP3    H161643   2.748   6.591  16.094 -1.0241  3.5930 -1.8546
13384TIP3    H261644   2.811   6.546  15.963 -0.2722 -0.6299 -0.1279
13385TIP3   OH261645   6.551   3.636  17.236 -0.4645 -0.2359 -0.2029
13385TIP3    H161646   6.590   3.719  17.207 -0.1910  0.0932  1.0615
13385TIP3    H261647   6.621   3.572  17.228  1.1952  0.8244  4.3745
13386TIP3   OH261648   3.579   0.498   3.522 -0.5631 -0.4961  0.4995
13386TIP3    H161649   3.508   0.520   3.462 -0.3815 -1.3491 -0.0313
13386TIP3    H261650   3.558   0.409   3.552  0.7037 -1.0647 -0.2780
13387TIP3   OH261651   0.475   4.141  16.081 -0.1350  0.3097 -0.4701
13387TIP3    H161652   0.432   4.226  16.080 -0.0958  0.4483  3.1072
13387TIP3    H261653   0.416   4.083  16.032 -2.4263  1.4066  0.9206
13388TIP3   OH261654   5.591   1.913  15.042 -0.3162 -0.2267  0.0373
13388TIP3    H161655   5.626   1.857  15.111 -1.4764 -0.9133  0.0768
13388TIP3    H261656   5.511   1.870  15.014 -0.6417  0.8347 -0.7039
13389TIP3   OH261657   2.165   0.129  13.399 -0.5751  0.5076  0.7097
13389TIP3    H161658   2.223   0.055  13.411 -0.5766  0.4609  0.4186
13389TIP3    H261659   2.128   0.118  13.312  0.9371  1.9173 -0.1410
13390TIP3   OH261660   1.647   5.146  15.625  0.0311  0.7687 -0.3771
13390TIP3    H161661   1.563   5.109  15.600  0.7667 -1.1175 -0.1605
13390TIP3    H261662   1.626   5.232  15.661 -1.5306  1.4235 -2.7369
13391TIP3   OH261663   4.910   2.582   0.886  0.6984 -0.3242 -0.3005
13391TIP3    H161664   4.956   2.615   0.809 -0.7154 -0.3092 -1.1409
13391TIP3    H261665   4.962   2.506   0.913  1.7472  0.2404 -0.6777
13392TIP3   OH261666   3.655   1.993  14.323  0.3427 -0.2764 -0.1546
13392TIP3    H161667   3.719   2.022  14.388 -0.7899  0.0381  0.8323
13392TIP3    H261668   3.620   1.911  14.358  0.7457 -0.8588 -1.0706
13393TIP3   OH261669   0.144   6.187  14.857  0.2442 -0.8410 -0.0512
13393TIP3    H161670   0.143   6.280  14.878  0.5242 -0.6776 -0.7265
13393TIP3    H261671   0.200   6.181  14.779  0.9483 -1.6815  0.5020
13394TIP3   OH261672   4.621   1.136  13.756 -0.6281  0.5278  0.3290
13394TIP3    H161673   4.703   1.121  13.708 -0.9626  0.1900 -0.1344
13394TIP3    H261674   4.591   1.222  13.725 -1.6687 -0.3888 -1.2676
13395TIP3   OH261675   3.353   1.635  17.139  0.0793  0.1345 -0.3749
13395TIP3    H161676   3.401   1.655  17.058 -2.8946  1.8395 -1.8248
13395TIP3    H261677   3.393   1.691  17.205  1.7487 -0.3822 -0.9074
13396TIP3   OH261678   6.507   0.926   0.732  0.4428 -0.1789  0.3773
13396TIP3    H161679   6.449   0.945   0.806  1.6738 -0.7402  1.5013
13396TIP3    H261680   6.591   0.905   0.772  1.2461 -0.0595 -1.2116
13397TIP3   OH261681   1.380   6.415  17.037  0.4119  0.4110 -0.5004
13397TIP3    H161682   1.297   6.447  17.002  0.9106  1.8939 -0.3791
13397TIP3    H261683   1.393   6.467  17.117  1.5442  0.3199 -0.6212
13398TIP3   OH261684   0.420   5.125   4.749 -0.4631 -0.4737 -0.3219
13398TIP3    H161685   0.364   5.192   4.710 -0.1441  0.6532  1.1039
13398TIP3    H261686   0.503   5.133   4.702 -0.2593  0.4930  0.1941
13399TIP3   OH261687   0.635   2.214  15.900 -0.1239  0.4422 -0.3136
13399TIP3    H161688   0.625   2.119  15.904 -1.9902  0.7083  1.7801
13399TIP3    H261689   0.584   2.240  15.823  0.9790 -0.2896 -1.3203
13400TIP3   OH261690   1.288   4.309  11.615 -0.3792 -0.0567 -0.0443
13400TIP3    H161691   1.330   4.224  11.597  0.6069  0.1136  1.3918
13400TIP3    H261692   1.219   4.316  11.548 -0.1574 -1.7690 -0.4806
13401TIP3   OH261693   6.627   6.076   4.551 -0.2311  0.6337  0.5082
13401TIP3    H161694   6.576   6.061   4.471 -1.6042  0.7661  1.3389
13401TIP3    H261695   6.679   6.154   4.531  0.9493 -0.5027 -0.9581
13402TIP3   OH261696   0.453   2.633  17.062 -0.1053 -0.5846  0.2755
13402TIP3    H161697   0.400   2.631  16.983  0.8618 -0.1345 -0.3929
13402TIP3    H261698   0.543   2.627  17.031  0.2660 -0.8351  1.3664
13403TIP3   OH261699   1.315   0.010   3.458 -0.4482 -0.1825  0.9789
13403TIP3    H161700   1.297   0.005   3.364  1.4223 -0.1690  0.6047
13403TIP3    H261701   1.410   0.019   3.464 -0.5480 -0.1824  2.8813
13404TIP3   OH261702   6.009   5.926   4.716 -0.4558  0.4120  0.0777
13404TIP3    H161703   6.071   5.892   4.780 -0.5168  0.2333  0.0420
13404TIP3    H261704   6.056   5.996   4.671  1.3459 -2.5966 -3.0137
13405TIP3   OH261705   1.982   4.170   1.340 -0.0051 -0.3005  0.4197
13405TIP3    H161706   2.043   4.100   1.362 -1.8613 -2.5382 -1.2911
13405TIP3    H261707   2.011   4.200   1.254 -0.3496 -0.2819  0.3098
13406TIP3   OH261708   0.872   0.598  16.598 -0.8944 -0.0182 -0.2205
13406TIP3    H161709   0.781   0.581  16.621 -1.1774  1.5752 -0.1059
13406TIP3    H261710   0.869   0.676  16.542  0.8458  3.7901  4.6253
13407TIP3   OH261711   4.780   0.370   2.834 -0.6291  0.1412 -0.2506
13407TIP3    H161712   4.780   0.326   2.919  1.0602 -0.1707 -0.3948
13407TIP3    H261713   4.786   0.463   2.855  0.7261  0.0145 -0.0294
13408TIP3   OH261714   5.120   5.631   3.699 -0.7327 -0.1494 -0.6862
13408TIP3    H161715   5.042   5.576   3.691 -1.3177  0.9633 -3.3457
13408TIP3    H261716   5.192   5.570   3.712 -1.8500 -1.2983  0.1273
13409TIP3   OH261717   6.378   3.842  16.109  0.1589  0.5188 -0.4496
13409TIP3    H161718   6.352   3.784  16.037  0.7707 -1.5131  0.9100
13409TIP3    H261719   6.474   3.841  16.107  0.1729  0.9753 -0.0276
13410TIP3   OH261720   0.595   2.349  12.529 -0.2368 -0.1375  0.1098
13410TIP3    H161721   0.643   2.347  12.612  0.3631 -0.0191 -0.2315
13410TIP3    H261722   0.617   2.433  12.491 -0.0293 -0.4432 -0.4524
13411TIP3   OH261723   3.987   3.030  14.023 -0.1216  0.2713 -0.1534
13411TIP3    H161724   3.983   3.082  14.103 -0.2020  2.1095 -1.3469
13411TIP3    H261725   3.900   2.991  14.015 -1.1154  2.6101 -1.0162
13412TIP3   OH261726   1.935   4.191  13.684  0.1542  0.1450 -0.0586
13412TIP3    H161727   1.990   4.181  13.762 -0.0114 -0.4727 -0.0182
13412TIP3    H261728   1.883   4.270  13.701  0.7023  0.4681  0.1028
13413TIP3   OH261729   3.575   2.645  17.149  0.6885 -0.1782 -0.2511
13413TIP3    H161730   3.514   2.619  17.079  0.7820 -1.4839  0.1382
13413TIP3    H261731   3.631   2.569  17.162  2.7026  1.1413 -0.8763
13414TIP3   OH261732   4.359   6.475   4.728 -0.2607 -0.3395 -0.2832
13414TIP3    H161733   4.395   6.437   4.648 -1.1833 -1.0006 -0.3853
13414TIP3    H261734   4.273   6.508   4.703 -0.8754 -1.2532  0.6239
13415TIP3   OH261735   6.503   6.376  16.652  0.0761 -0.9899 -0.2094
13415TIP3    H161736   6.476   6.300  16.601  0.6971 -2.4454  1.5855
13415TIP3    H261737   6.476   6.356  16.742  0.5959  0.7287  0.3494
13416TIP3   OH261738   6.466   3.799   3.576  0.0643  0.2491  0.1463
13416TIP3    H161739   6.544   3.846   3.606  0.5600 -1.4655  1.6479
13416TIP3    H261740   6.500   3.716   3.541 -0.9197  0.3613 -1.1227
13417TIP3   OH261741   1.730   5.015  11.623  0.7300  0.1660  0.2005
13417TIP3    H161742   1.825   5.017  11.611  1.1582  1.4482  3.2830
13417TIP3    H261743   1.697   5.082  11.562  1.6786 -0.9979 -1.6195
13418TIP3   OH261744   2.824   1.251  15.974  0.3026 -0.0719 -0.5781
13418TIP3    H161745   2.747   1.227  16.027  0.5731  0.7124  0.1806
13418TIP3    H261746   2.898   1.214  16.022  0.6121  1.2250 -0.0335
13419TIP3   OH261747   2.053   3.445   1.767  0.4296  0.3763 -0.2133
13419TIP3    H161748   2.010   3.364   1.741 -2.3788  1.8082 -0.2054
13419TIP3    H261749   2.106   3.470   1.692 -1.5502  0.4254 -1.6217
13420TIP3   OH261750   0.384   2.713   4.304  0.1511 -0.5764 -0.4190
13420TIP3    H161751   0.435   2.652   4.251 -0.6816 -1.8968  0.2737
13420TIP3    H261752   0.337   2.767   4.241  2.7674  1.0534 -1.1032
13421TIP3   OH261753   1.779   6.411   5.164  0.5655 -0.3280 -0.4081
13421TIP3    H161754   1.775   6.318   5.142 -1.9365 -0.9199  2.2230
13421TIP3    H261755   1.697   6.447   5.131  0.7791  0.5976  0.0624
13422TIP3   OH261756   1.457   5.508  12.158 -0.9110 -0.0962 -0.2559
13422TIP3    H161757   1.429   5.514  12.066  1.5367  0.0053 -1.0183
13422TIP3    H261758   1.420   5.425  12.188 -2.1019  0.0722 -1.1967
13423TIP3   OH261759   4.890   4.551   4.051  0.5946 -0.1162  0.8932
13423TIP3    H161760   4.931   4.489   3.990  0.9391 -0.2813  1.2851
13423TIP3    H261761   4.804   4.513   4.069  0.6672 -0.3011  0.8571
13424TIP3   OH261762   3.831   5.707   6.181  0.1046  0.5745  0.4607
13424TIP3    H161763   3.864   5.667   6.262  1.6308 -0.4906 -0.6484
13424TIP3    H261764   3.846   5.641   6.114  2.6829  2.9582 -1.4313
13425TIP3   OH261765   2.426   1.451  16.039  0.1112 -0.2588 -0.0409
13425TIP3    H161766   2.384   1.471  15.956  0.1376 -0.7385 -0.1695
13425TIP3    H261767   2.488   1.523  16.053 -0.7759  0.4756  0.1703
13426TIP3   OH261768   4.260   0.989  14.730 -0.4892  0.0502 -0.2917
13426TIP3    H161769   4.167   0.990  14.751 -0.4675  0.6151 -0.2299
13426TIP3    H261770   4.304   0.978  14.814 -0.4243  1.7468 -0.0886
13427TIP3   OH261771   1.420   2.379  14.173 -0.0111 -0.6799  0.0261
13427TIP3    H161772   1.490   2.425  14.127 -1.2553  1.5728  0.2820
13427TIP3    H261773   1.397   2.437  14.246 -2.9502 -0.7410 -0.7581
13428TIP3   OH261774   4.400   2.155   5.935  1.0426  0.3080 -0.0589
13428TIP3    H161775   4.331   2.219   5.950  1.3728  0.9252 -1.1186
13428TIP3    H261776   4.435   2.136   6.022 -1.8289 -1.5964  0.7831
13429TIP3   OH261777   0.381   5.357  12.568 -0.1332  0.0498  0.7689
13429TIP3    H161778   0.324   5.405  12.508 -0.7243 -1.4259  0.1225
13429TIP3    H261779   0.344   5.374  12.655 -0.2812  0.8148  0.5648
13430TIP3   OH261780   0.043   3.519   2.428  0.2606 -0.1172 -0.2191
13430TIP3    H161781   0.028   3.568   2.509 -0.4110 -3.3443  1.6960
13430TIP3    H261782   0.135   3.533   2.408  0.4446  0.6798  1.1481
13431TIP3   OH261783   6.598   1.026  17.070  0.0543 -0.8313 -0.8196
13431TIP3    H161784   6.644   1.100  17.110 -1.5613  0.3490 -1.0745
13431TIP3    H261785   6.612   0.953  17.130  1.5165 -0.2664 -0.4597
13432TIP3   OH261786   0.090   4.050  15.979  0.1042 -0.7106 -0.2572
13432TIP3    H161787   0.115   3.964  16.012 -0.2401 -1.0648 -0.9044
13432TIP3    H261788   0.169   4.084  15.938  0.0374 -1.0275 -0.6452
13433TIP3   OH261789   6.082   0.794  10.595 -0.1804 -0.1363 -0.5225
13433TIP3    H161790   6.001   0.746  10.610 -0.5855  0.5954 -0.3583
13433TIP3    H261791   6.131   0.786  10.676  1.0602 -2.7328 -1.4479
13434TIP3   OH261792   4.078   0.108   5.507  0.8624  0.3278  0.3338
13434TIP3    H161793   4.126   0.182   5.470  1.3902 -0.3755 -0.4107
13434TIP3    H261794   4.127   0.084   5.586  2.4698 -1.1606 -1.0755
13435TIP3   OH261795   2.018   0.663  15.830  0.3729 -0.3161  0.0424
13435TIP3    H161796   2.051   0.690  15.916  1.0503  0.2123 -0.3849
13435TIP3    H261797   2.088   0.609  15.794  0.2351 -0.2464 -0.3275
13436TIP3   OH261798   3.761   3.244  13.329  0.4749 -0.7390  0.2989
13436TIP3    H161799   3.823   3.231  13.401  0.7207 -0.4954  0.1327
13436TIP3    H261800   3.680   3.272  13.372  0.8444  0.1482  0.4296
13437TIP3   OH261801   4.001   0.024  11.825 -0.8905  0.0903 -0.4880
13437TIP3    H161802   3.913  -0.014  11.823 -0.2513 -1.5412  0.4730
13437TIP3    H261803   4.044  -0.008  11.746 -0.9575  0.3534 -0.6302
13438TIP3   OH261804   4.508   1.399  13.659 -0.3580  0.6232  0.1976
13438TIP3    H161805   4.454   1.478  13.655 -0.5704  0.5499  1.2976
13438TIP3    H261806   4.567   1.414  13.733  0.3706  0.2214 -0.2966
13439TIP3   OH261807   6.410   3.141   2.919 -0.2142  0.1138 -0.2300
13439TIP3    H161808   6.443   3.216   2.969 -1.0655  0.6123 -0.4049
13439TIP3    H261809   6.483   3.117   2.862 -0.9291  2.7220 -2.3382
13440TIP3   OH261810   1.807   4.649   2.093  0.2390 -0.3926 -0.3250
13440TIP3    H161811   1.716   4.670   2.115  0.4718 -0.2597  0.5250
13440TIP3    H261812   1.845   4.620   2.176  0.9557 -0.5084 -0.6942
13441TIP3   OH261813   5.634   4.518   2.357  0.3192  0.2298  0.2318
13441TIP3    H161814   5.543   4.486   2.362  0.4790 -0.9154 -3.2464
13441TIP3    H261815   5.637   4.568   2.276  3.1385 -0.9115 -0.4160
13442TIP3   OH261816   6.529   0.708  15.445  0.7282  0.4539  0.5878
13442TIP3    H161817   6.476   0.770  15.395  0.6795  0.8226  1.0842
13442TIP3    H261818   6.473   0.685  15.520  0.5684 -0.5373  0.1701
13443TIP3   OH261819   4.804   3.660  12.995  0.4929 -0.0923 -0.0645
13443TIP3    H161820   4.867   3.708  13.049  1.4744 -0.2272 -1.0824
13443TIP3    H261821   4.827   3.568  13.007 -0.9489 -0.2916  1.3363
13444TIP3   OH261822   5.407   0.701   4.692  0.2028  0.5605 -0.4461
13444TIP3    H161823   5.397   0.790   4.658 -1.2120  0.3908 -0.4727
13444TIP3    H261824   5.409   0.645   4.615  0.8684  0.5360 -0.4175
13445TIP3   OH261825   4.811   2.627  12.347 -0.3075  0.3553 -0.4158
13445TIP3    H161826   4.845   2.570  12.278 -1.0505 -1.6038  0.7927
13445TIP3    H261827   4.759   2.692  12.301 -1.5252 -1.4424 -1.6500
13446TIP3   OH261828   6.642   4.706  16.150 -0.7276 -0.0235 -0.3253
13446TIP3    H161829   6.706   4.734  16.216 -1.2621 -0.3681  0.3474
13446TIP3    H261830   6.677   4.739  16.068  1.5681 -2.1943 -0.2918
13447TIP3   OH261831   3.416   0.915  14.139  0.5803  0.3356 -0.7899
13447TIP3    H161832   3.391   0.998  14.098 -0.1545  0.9633  0.8780
13447TIP3    H261833   3.332   0.877  14.167  0.8801 -1.1452 -1.8403
13448TIP3   OH261834   0.566   6.390  16.435 -0.3123  1.0047 -0.3954
13448TIP3    H161835   0.506   6.336  16.383 -0.5451  1.1284 -0.2566
13448TIP3    H261836   0.572   6.345  16.519  0.3536  0.6062 -0.6511
13449TIP3   OH261837   0.275   2.010   5.753  0.4676  0.0136 -0.1712
13449TIP3    H161838   0.257   1.926   5.710 -0.0808  0.8311 -1.5923
13449TIP3    H261839   0.196   2.027   5.805  1.0967 -0.9388  1.1207
13450TIP3   OH261840   4.266   2.148  13.324 -0.2515  0.9145  0.3516
13450TIP3    H161841   4.257   2.228  13.272  1.4677  1.0267  0.1717
13450TIP3    H261842   4.212   2.163  13.401  0.6168  2.5675  0.6636
13451TIP3   OH261843   5.916   4.874  13.860  0.4254  0.4098 -0.1110
13451TIP3    H161844   5.994   4.833  13.823  0.2331 -0.8240  0.7920
13451TIP3    H261845   5.934   4.879  13.954  0.6699  2.9663 -0.2653
13452TIP3   OH261846   6.747   3.451  17.157 -1.1002 -0.6333 -0.1902
13452TIP3    H161847   6.820   3.511  17.172 -1.6152  0.2569 -1.1111
13452TIP3    H261848   6.727   3.462  17.064 -1.9082 -1.4409 -0.1157
13453TIP3   OH261849   4.115   2.021  16.380 -0.3798 -0.6472 -0.3308
13453TIP3    H161850   4.133   1.944  16.327  1.1609  1.7448 -3.4730
13453TIP3    H261851   4.024   2.010  16.409 -0.0413 -3.7957 -0.3186
13454TIP3   OH261852   5.549   2.777   1.438 -0.0191  0.0342 -0.1221
13454TIP3    H161853   5.551   2.734   1.353 -1.4356 -0.5552  0.1360
13454TIP3    H261854   5.641   2.798   1.456  0.4187 -0.8097 -1.2989
13455TIP3   OH261855   1.796   4.894   1.631  0.5376 -0.1677 -0.0938
13455TIP3    H161856   1.865   4.840   1.592 -0.0787  0.0674 -1.5465
13455TIP3    H261857   1.796   4.869   1.724  1.6669 -1.1365 -0.3337
13456TIP3   OH261858   1.505   5.543   0.284 -0.3243 -0.0607  0.3189
13456TIP3    H161859   1.426   5.492   0.303  0.3568 -0.9797  0.7131
13456TIP3    H261860   1.509   5.545   0.188  0.4673 -2.0794  0.2735
13457TIP3   OH261861   5.852   1.987  11.261  0.0941  0.3627 -0.0111
13457TIP3    H161862   5.920   2.053  11.246  0.4476 -0.0520 -0.2494
13457TIP3    H261863   5.770   2.034  11.249  0.3477  0.6359 -0.6999
13458TIP3   OH261864   0.094   5.960  12.013 -0.1004  0.3777  0.0309
13458TIP3    H161865   0.034   5.932  11.944 -0.4982 -0.7526  0.8310
13458TIP3    H261866   0.105   6.054  11.998 -0.8006  0.2921 -1.0929
13459TIP3   OH261867   4.937   4.300   2.070 -0.1338 -0.1895 -0.1048
13459TIP3    H161868   4.943   4.361   1.995 -0.9368  1.1810  0.9143
13459TIP3    H261869   4.856   4.251   2.054  1.7963 -2.8019 -2.2225
13460TIP3   OH261870   2.296   2.232  11.240 -0.1814 -0.6452  0.6357
13460TIP3    H161871   2.230   2.300  11.226  0.1415 -0.3762  0.4056
13460TIP3    H261872   2.331   2.251  11.327  1.4267  0.7979 -0.3028
13461TIP3   OH261873   4.529   5.191  11.953 -0.8574  0.1941  0.0677
13461TIP3    H161874   4.572   5.105  11.963 -2.1798 -0.4307  0.4625
13461TIP3    H261875   4.579   5.249  12.010 -0.1419 -0.3734  0.0389
13462TIP3   OH261876   0.851   4.062  12.018  0.3461  0.2163 -0.0720
13462TIP3    H161877   0.906   3.983  12.011  0.8054  0.7216 -2.7214
13462TIP3    H261878   0.913   4.132  12.038 -0.0294 -0.0145  2.0184
13463TIP3   OH261879   4.571   3.901   2.085 -0.3445 -0.1273  0.0165
13463TIP3    H161880   4.606   3.812   2.079 -0.6717 -0.5179  3.1798
13463TIP3    H261881   4.496   3.902   2.026 -0.3259 -1.9368 -0.0521
13464TIP3   OH261882   3.492   2.866  13.711 -0.3564 -0.2979 -0.4762
13464TIP3    H161883   3.574   2.915  13.716 -0.6882  0.2683 -0.5493
13464TIP3    H261884   3.430   2.927  13.670 -0.2554 -1.4627 -2.4059
13465TIP3   OH261885   3.262   0.326  15.349 -0.1898 -0.0862 -0.7482
13465TIP3    H161886   3.193   0.265  15.375 -0.1480  0.7249  1.3702
13465TIP3    H261887   3.222   0.379  15.280 -1.8127  0.5894  0.6810
13466TIP3   OH261888   4.976   5.996   5.592  0.4444 -0.0827 -0.1577
13466TIP3    H161889   4.983   5.911   5.550 -0.9802 -0.4836  0.3594
13466TIP3    H261890   4.891   5.993   5.638  1.5694  0.6180  2.0669
13467TIP3   OH261891   0.518   0.631   2.717 -0.4094  0.0901  0.1463
13467TIP3    H161892   0.555   0.666   2.636  3.0485 -3.3450  0.0897
13467TIP3    H261893   0.584   0.652   2.784 -1.1091 -1.0577  1.2111
13468TIP3   OH261894   0.903   4.549   1.599  0.2907 -0.1210 -0.7489
13468TIP3    H161895   0.975   4.507   1.551 -0.1240  0.0308 -1.5074
13468TIP3    H261896   0.945   4.589   1.675  0.7880 -1.3552 -0.3674
13469TIP3   OH261897   1.909   0.998   3.426  0.1498  0.0546  0.2063
13469TIP3    H161898   1.939   0.921   3.379 -2.1314 -0.6161 -0.2313
13469TIP3    H261899   1.989   1.042   3.454  1.5335 -0.8859 -2.0975
13470TIP3   OH261900   6.293   1.972  15.488  0.1709 -0.9722  0.5915
13470TIP3    H161901   6.344   1.908  15.438 -0.7379  0.2134 -1.9334
13470TIP3    H261902   6.202   1.946  15.472 -0.1255 -0.5691  1.6288
13471TIP3   OH261903   5.084   2.491  11.658  0.6446 -0.0240  0.0613
13471TIP3    H161904   5.085   2.583  11.684  0.3148 -0.3630  1.3431
13471TIP3    H261905   5.037   2.447  11.729  0.0046 -1.0514 -0.9731
13472TIP3   OH261906   1.382   5.437   1.467  0.7091  0.2023  0.3063
13472TIP3    H161907   1.401   5.344   1.452 -1.1511  0.2126 -2.7101
13472TIP3    H261908   1.466   5.481   1.458  1.5628 -1.1452  1.5001
13473TIP3   OH261909   3.980   1.987   2.397 -0.4629 -0.6319  0.5849
13473TIP3    H161910   4.003   2.047   2.468  0.0874 -3.2732  2.7040
13473TIP3    H261911   3.897   2.021   2.364 -0.3438  1.0881  1.9543
13474TIP3   OH261912   6.324   3.124  16.836  0.4627 -0.0389  0.3887
13474TIP3    H161913   6.376   3.165  16.904  0.9302 -0.4660  0.2876
13474TIP3    H261914   6.234   3.150  16.856  0.2901 -2.1699  2.6049
13475TIP3   OH261915   6.164   1.718  17.131 -0.2243 -0.2051 -0.5364
13475TIP3    H161916   6.170   1.623  17.130 -0.6449 -0.2387  0.1483
13475TIP3    H261917   6.252   1.748  17.154  0.2394 -0.3872 -2.0061
13476TIP3   OH261918   1.698   3.800   2.963  0.5074 -0.3194 -0.2179
13476TIP3    H161919   1.642   3.858   3.015  0.7297  0.5855 -0.9808
13476TIP3    H261920   1.637   3.739   2.922  0.4136 -1.6452  1.8527
13477TIP3   OH261921   3.716   3.102   0.708  0.7261 -0.1485  0.0628
13477TIP3    H161922   3.713   3.110   0.803  0.0381  0.3387  0.0047
13477TIP3    H261923   3.809   3.092   0.687  0.9221  0.2294  0.7470
13478TIP3   OH261924   5.809   6.787   0.394 -0.4061 -0.0687  0.2935
13478TIP3    H161925   5.759   6.819   0.470  0.7210  0.4914  0.8066
13478TIP3    H261926   5.858   6.712   0.426  0.6022  0.5845  0.3025
13479TIP3   OH261927   4.817   2.379  16.773  0.2950  0.2366 -1.3772
13479TIP3    H161928   4.833   2.305  16.833  0.8541  0.1063 -1.6745
13479TIP3    H261929   4.844   2.456  16.824 -1.2730  0.3423 -0.6873
13480TIP3   OH261930   4.318   2.281  14.043  0.3717  0.5108  0.2861
13480TIP3    H161931   4.297   2.267  13.951  0.7060  0.6615  0.1873
13480TIP3    H261932   4.235   2.310  14.083 -0.2167 -1.2742  0.3926
13481TIP3   OH261933   2.546   2.918  12.349  0.0041 -0.0991 -0.1755
13481TIP3    H161934   2.565   2.827  12.327 -0.6452 -0.5135  0.9307
13481TIP3    H261935   2.599   2.970  12.288  1.0932 -1.2187 -0.1822
13482TIP3   OH261936   0.779   6.382   5.873 -0.8626 -0.0121 -0.1581
13482TIP3    H161937   0.832   6.378   5.952 -1.1295 -1.4068 -0.0436
13482TIP3    H261938   0.724   6.304   5.876 -0.5390 -0.3409 -1.9517
13483TIP3   OH261939   0.847   6.815   1.978 -0.3292  0.1805  0.0680
13483TIP3    H161940   0.899   6.840   1.901 -0.6325  0.5310 -0.0279
13483TIP3    H261941   0.812   6.729   1.957  0.9990 -0.4918  0.5346
13484TIP3   OH261942   3.499   0.269  12.760 -0.0565 -0.0563  0.5260
13484TIP3    H161943   3.583   0.314  12.761 -0.1152  0.1353 -1.2107
13484TIP3    H261944   3.506   0.208  12.686 -1.2601 -0.3794  0.6731
13485TIP3   OH261945   5.623   4.795  16.295 -0.4169 -0.7836  0.2456
13485TIP3    H161946   5.699   4.847  16.266 -0.4208 -1.1982 -0.5221
13485TIP3    H261947   5.601   4.831  16.381  0.4915 -0.4888  0.3614
13486TIP3   OH261948   0.194   4.073   0.200 -0.7431 -0.0153 -0.1318
13486TIP3    H161949   0.274   4.118   0.173 -0.4845  0.3315  1.1849
13486TIP3    H261950   0.133   4.144   0.222 -1.0828 -0.2859 -0.1942
13487TIP3   OH261951   0.337   5.610  14.341 -0.0730  0.6591 -0.6849
13487TIP3    H161952   0.369   5.687  14.388  1.5724 -0.4810  0.1025
13487TIP3    H261953   0.396   5.539  14.367 -2.0566 -1.0710 -0.7243
13488TIP3   OH261954   2.566   4.656   0.687 -0.3197  0.5781 -0.0358
13488TIP3    H161955   2.638   4.606   0.648 -0.2885 -0.0236  0.7825
13488TIP3    H261956   2.487   4.612   0.655 -0.3373  1.4314 -1.1893
13489TIP3   OH261957   5.854   0.492   3.243  0.5161  0.2836 -0.0177
13489TIP3    H161958   5.823   0.435   3.173  1.0289  1.5838 -1.3354
13489TIP3    H261959   5.776   0.542   3.270 -0.1933 -1.7985  1.9253
13490TIP3   OH261960   2.017   4.848  11.775 -0.3585  0.0427  0.0618
13490TIP3    H161961   1.988   4.884  11.691 -0.7341 -1.2133 -0.3519
13490TIP3    H261962   1.937   4.818  11.817  0.3319 -4.1745 -1.4240
13491TIP3   OH261963   1.925   6.376   4.541 -0.7304 -0.1917  0.3697
13491TIP3    H161964   1.856   6.314   4.519  1.5315 -2.7354  0.2029
13491TIP3    H261965   2.004   6.323   4.549  1.3215  2.6919  0.1433
13492TIP3   OH261966   3.076   5.945  16.900 -0.1317  0.4868 -0.2344
13492TIP3    H161967   3.126   5.883  16.953  1.1132  1.6621  0.0067
13492TIP3    H261968   3.009   5.979  16.960 -1.3314 -1.1777 -0.5925
13493TIP3   OH261969   0.181   3.587   5.068 -0.0616  0.3174 -0.1205
13493TIP3    H161970   0.222   3.674   5.062 -0.4419  0.5363  0.4045
13493TIP3    H261971   0.227   3.545   5.140 -0.5692  0.4563  0.2814
13494TIP3   OH261972   0.227   5.145   2.079 -0.5979 -0.4798 -0.6906
13494TIP3    H161973   0.156   5.111   2.133 -0.2690 -0.4482 -0.2352
13494TIP3    H261974   0.275   5.205   2.137 -0.2339 -0.4598 -1.0097
13495TIP3   OH261975   4.978   2.457   4.606 -0.4300 -0.1357 -0.1039
13495TIP3    H161976   4.901   2.401   4.610 -0.9990  0.4278 -2.3166
13495TIP3    H261977   5.009   2.463   4.697 -2.4582 -1.0815  0.6728
13496TIP3   OH261978   0.701   3.398   1.105 -0.5598 -0.2809  0.2343
13496TIP3    H161979   0.744   3.318   1.133  1.4862  0.2230 -1.2752
13496TIP3    H261980   0.771   3.463   1.103 -1.6252  0.8751 -1.1391
13497TIP3   OH261981   4.488   3.451  12.900  0.1982  0.2419  0.2341
13497TIP3    H161982   4.521   3.442  12.990  0.3957  1.2146  0.2643
13497TIP3    H261983   4.537   3.385  12.850 -2.4216 -2.7397  1.4749
13498TIP3   OH261984   5.407   1.699  16.348 -0.3125 -0.2203  0.4514
13498TIP3    H161985   5.406   1.787  16.312 -1.6881  0.2093  1.5009
13498TIP3    H261986   5.332   1.696  16.407  0.9870 -1.3845  2.1027
13499TIP3   OH261987   6.530   3.321   5.429  0.1948 -0.4912 -0.6999
13499TIP3    H161988   6.442   3.357   5.437 -0.4213 -2.1812  0.7300
13499TIP3    H261989   6.552   3.328   5.337 -0.0274  3.1350 -0.5137
13500TIP3   OH261990   6.762   4.876   4.946 -0.4797  0.2416 -0.6058
13500TIP3    H161991   6.767   4.956   4.893 -0.0868 -0.1336 -1.1330
13500TIP3    H261992   6.833   4.821   4.914  0.4751  0.4693  1.0718
13501TIP3   OH261993   6.072   4.988   2.094  0.0092 -0.4485 -0.0574
13501TIP3    H161994   6.164   4.993   2.067 -0.3202  2.1540 -0.8675
13501TIP3    H261995   6.024   5.031   2.023 -1.6830 -0.3739  1.0975
13502TIP3   OH261996   4.683   5.861  11.086 -0.1743 -0.5655 -0.2977
13502TIP3    H161997   4.662   5.769  11.074 -0.6001 -0.4347 -0.5653
13502TIP3    H261998   4.632   5.887  11.163  0.0608 -0.5922 -0.1334
13503TIP3   OH261999   5.089   3.512  15.116  0.1004  0.2932  0.1118
13503TIP3    H162000   5.022   3.579  15.098  1.3696  1.7860  0.8096
13503TIP3    H262001   5.102   3.468  15.032  2.8209  4.2712 -1.7229
13504TIP3   OH262002   5.940   0.767   3.286  0.1746 -0.5706  0.5480
13504TIP3    H162003   5.959   0.764   3.380 -0.5622  0.5133  0.7389
13504TIP3    H262004   5.930   0.675   3.261  1.7341 -0.9393  1.2444
13505TIP3   OH262005   3.262   0.450   2.441  0.0776  0.6803 -0.3907
13505TIP3    H162006   3.341   0.397   2.454  0.4084  0.9664 -1.1929
13505TIP3    H262007   3.240   0.482   2.528  0.4598  0.0475 -0.0568
13506TIP3   OH262008   0.910   3.266   6.000  0.2390  0.0259 -0.2889
13506TIP3    H162009   0.832   3.294   6.048  0.4574  0.3985 -0.1477
13506TIP3    H262010   0.914   3.171   6.013 -1.3682 -0.3049 -2.0477
13507TIP3   OH262011   6.645   3.669  14.218  0.0121  0.1012 -0.7846
13507TIP3    H162012   6.571   3.729  14.207 -0.6471 -0.7589 -1.1315
13507TIP3    H262013   6.616   3.588  14.175  0.2515 -0.9784  1.0362
13508TIP3   OH262014   5.964   4.544  12.763  0.0141 -0.1459  0.0127
13508TIP3    H162015   5.879   4.501  12.771 -0.9029  1.1810 -2.0077
13508TIP3    H262016   5.984   4.576  12.850 -0.0737 -3.1443  1.1962
13509TIP3   OH262017   5.727   4.087   2.859 -0.2068  0.4436  0.4316
13509TIP3    H162018   5.701   4.135   2.780 -2.2049 -1.3330 -0.0571
13509TIP3    H262019   5.812   4.050   2.837 -0.1197  1.1092 -0.3886
13510TIP3   OH262020   0.512   3.789  11.146  0.0499 -0.1129 -0.1138
13510TIP3    H162021   0.528   3.877  11.112 -0.0005  0.8011  2.1479
13510TIP3    H262022   0.594   3.764  11.188 -0.4155 -0.5489  0.5421
13511TIP3   OH262023   3.715   1.238   1.150 -0.0700 -0.2127  0.5559
13511TIP3    H162024   3.752   1.273   1.231  2.2112 -0.7326 -0.2235
13511TIP3    H262025   3.723   1.310   1.087 -0.7968 -0.1930  0.4768
13512TIP3   OH262026   1.608   2.612  12.770 -0.6299 -0.1133 -0.3278
13512TIP3    H162027   1.676   2.545  12.784 -0.7771 -0.8492 -2.7420
13512TIP3    H262028   1.656   2.688  12.737 -0.9635 -0.7055 -2.2418
13513TIP3   OH262029   2.789   3.835   1.877  0.0870 -0.0330 -0.0766
13513TIP3    H162030   2.783   3.772   1.948 -2.3144  0.9106  0.5999
13513TIP3    H262031   2.773   3.920   1.918 -1.8824  0.4791 -1.7892
13514TIP3   OH262032   0.003   0.411  17.002  0.2074  0.1229  0.1838
13514TIP3    H162033  -0.061   0.341  16.989  1.4655 -0.7082 -1.9032
13514TIP3    H262034  -0.048   0.492  17.003 -1.0265 -0.6499  0.1366
13515TIP3   OH262035   3.551   4.124  16.094 -0.2830  0.2736 -0.6982
13515TIP3    H162036   3.560   4.060  16.165 -0.4038 -0.4352 -1.3053
13515TIP3    H262037   3.525   4.205  16.137  0.2793  0.0190  0.1295
13516TIP3   OH262038   5.342   5.061  16.847 -0.2382  0.3209  0.1515
13516TIP3    H162039   5.362   4.975  16.810 -1.6945 -0.0164  0.1364
13516TIP3    H262040   5.361   5.052  16.941  0.9761  0.4133 -0.0794
13517TIP3   OH262041   5.878   4.110   0.685 -0.4533  0.1878  0.2706
13517TIP3    H162042   5.916   4.058   0.755 -1.4885 -1.2022 -0.1833
13517TIP3    H262043   5.797   4.145   0.721  1.1422  3.0645  1.2005
13518TIP3   OH262044   0.168   0.508  14.857  0.3354  0.3612 -0.3256
13518TIP3    H162045   0.196   0.524  14.947 -1.4830  0.7888  0.1888
13518TIP3    H262046   0.246   0.525  14.804  1.4995 -0.1571  1.1768
13519TIP3   OH262047   1.078   4.470  15.130 -0.0914  0.0349 -0.1605
13519TIP3    H162048   1.028   4.457  15.050  0.1354  2.0134 -0.6678
13519TIP3    H262049   1.164   4.502  15.100  0.4716 -0.5268  0.8141
13520TIP3   OH262050   5.152   4.195   4.877 -0.0833 -0.5828  0.3025
13520TIP3    H162051   5.160   4.100   4.880  1.0070 -0.5070 -0.1494
13520TIP3    H262052   5.169   4.219   4.786  3.2666  0.3397  1.1083
13521TIP3   OH262053   6.508   3.353   3.452 -0.9457 -0.3468 -0.0220
13521TIP3    H162054   6.431   3.409   3.464  0.0048  0.6497  1.6205
13521TIP3    H262055   6.580   3.415   3.436 -0.4376 -1.2515 -1.3146
13522TIP3   OH262056   6.145   2.798  14.180  0.3939 -0.1935 -0.4607
13522TIP3    H162057   6.184   2.829  14.098 -0.0976 -0.3525 -0.7534
13522TIP3    H262058   6.138   2.878  14.234  0.1121  0.0256 -0.8178
13523TIP3   OH262059   3.170   3.504  13.487 -0.0569  0.1942  0.1734
13523TIP3    H162060   3.099   3.443  13.468 -0.1682  0.0486  1.0556
13523TIP3    H262061   3.227   3.457  13.548  2.5560 -0.9389 -2.9582
13524TIP3   OH262062   6.655   0.590   3.085 -0.4236 -0.3833  0.1414
13524TIP3    H162063   6.723   0.533   3.048 -0.1754 -0.4278  0.6653
13524TIP3    H262064   6.671   0.676   3.045  0.4364 -0.1972  0.8678
13525TIP3   OH262065   6.226   5.026  11.671 -0.2468  0.0992 -0.2693
13525TIP3    H162066   6.156   5.008  11.609 -0.0445  1.0909 -0.7900
13525TIP3    H262067   6.287   4.952  11.661 -0.2470  0.2259 -1.1973
13526TIP3   OH262068   4.770   4.593   1.526 -0.1104  0.6598 -0.7188
13526TIP3    H162069   4.822   4.552   1.457 -1.6353 -1.8496 -0.4647
13526TIP3    H262070   4.833   4.618   1.593  0.7948 -2.9610 -0.0933
13527TIP3   OH262071   3.694   4.742  17.266  0.2254  0.6374 -0.2546
13527TIP3    H162072   3.746   4.819  17.289  0.1031  0.0418  2.1088
13527TIP3    H262073   3.710   4.680  17.337 -0.7749 -0.9945 -1.4253
13528TIP3   OH262074   3.731   3.018   5.041 -0.4744 -0.0120 -0.2686
13528TIP3    H162075   3.738   3.112   5.058  0.6797  0.0566 -0.9779
13528TIP3    H262076   3.817   2.995   5.005 -1.6681 -0.7524 -2.7964
13529TIP3   OH262077   6.168   6.206  16.180 -0.3523 -0.2553 -0.3164
13529TIP3    H162078   6.239   6.263  16.150 -0.2614  0.0708  0.4956
13529TIP3    H262079   6.111   6.263  16.232 -1.4806 -0.4129 -1.3706
13530TIP3   OH262080   6.036   3.975  14.650  0.1526  0.5517  0.8731
13530TIP3    H162081   6.127   3.989  14.676  0.6737 -1.0929 -0.0107
13530TIP3    H262082   6.037   3.891  14.603 -1.6421  1.0051 -0.0109
13531TIP3   OH262083   5.445   5.973  11.500  0.0311  0.5685 -0.0748
13531TIP3    H162084   5.360   5.967  11.541  0.2986 -0.5679  0.3310
13531TIP3    H262085   5.462   5.885  11.466  0.9032  0.8625 -0.4311
13532TIP3   OH262086   4.874   5.262  10.807  0.3613 -0.3521 -0.3368
13532TIP3    H162087   4.897   5.172  10.785  1.0621 -0.2591 -0.0132
13532TIP3    H262088   4.822   5.293  10.734 -0.9677 -1.4458  0.1386
13533TIP3   OH262089   0.108   4.377   1.548  0.3430  0.3193 -0.5652
13533TIP3    H162090   0.020   4.342   1.535 -0.3211  2.2138 -1.3975
13533TIP3    H262091   0.164   4.300   1.552 -1.0443 -0.8289 -2.3123
13534TIP3   OH262092   6.018   4.547  11.090 -0.1452 -0.3307  0.4175
13534TIP3    H162093   6.017   4.577  11.181 -0.9552  0.5068  0.1333
13534TIP3    H262094   6.101   4.580  11.055 -0.0269 -0.2935  0.7326
13535TIP3   OH262095   0.270   3.727  13.420 -0.1288  0.9604  0.1673
13535TIP3    H162096   0.336   3.721  13.490  1.7090 -0.1743 -1.6119
13535TIP3    H262097   0.316   3.770  13.348 -0.4564 -2.3108 -2.0917
13536TIP3   OH262098   6.785   0.050   4.698 -0.0124 -0.2662 -0.2916
13536TIP3    H162099   6.858   0.023   4.642 -0.9488  0.4509 -1.8748
13536TIP3    H262100   6.721  -0.020   4.689  0.9095 -1.4651  1.9978
13537TIP3   OH262101   3.284   6.360   3.692  0.7520 -0.1923  0.2725
13537TIP3    H162102   3.362   6.306   3.708  1.1389  0.2351 -0.1269
13537TIP3    H262103   3.259   6.339   3.602  2.0746  1.7216 -0.5796
13538TIP3   OH262104   3.306   5.916   2.333 -0.0129 -0.0348 -0.4334
13538TIP3    H162105   3.260   5.982   2.281 -1.9553 -2.6400 -2.2206
13538TIP3    H262106   3.374   5.883   2.274  0.7383  0.1294  0.3312
13539TIP3   OH262107   1.104   3.390   1.244 -0.0843  0.5369 -0.1856
13539TIP3    H162108   1.032   3.453   1.246 -0.7998 -0.2603 -0.7995
13539TIP3    H262109   1.169   3.431   1.186 -0.4532  0.7984 -0.4145
13540TIP3   OH262110   6.301   1.937  10.953  0.3509 -0.2720 -0.0077
13540TIP3    H162111   6.366   1.941  10.882 -0.2987  1.8944 -0.4930
13540TIP3    H262112   6.339   1.874  11.015  2.3592  0.0501 -0.8493
13541TIP3   OH262113   3.927   4.948  14.101 -0.2500  0.0215 -0.2398
13541TIP3    H162114   3.935   5.039  14.071  1.6022  0.7504  2.2634
13541TIP3    H262115   3.988   4.899  14.046  1.6453  0.9895  0.9631
13542TIP3   OH262116   0.085   5.523   2.530  0.1410  0.1680 -0.5090
13542TIP3    H162117  -0.001   5.536   2.490  1.1678  1.5535 -2.3632
13542TIP3    H262118   0.121   5.611   2.542  1.2584 -0.3812  0.3396
13543TIP3   OH262119   5.596   3.135   0.179  0.0207 -0.2398  0.3584
13543TIP3    H162120   5.558   3.120   0.092  0.3466  0.2174  0.1353
13543TIP3    H262121   5.690   3.137   0.164  0.0241  1.3474  0.4821
13544TIP3   OH262122   0.288   0.391   5.876  0.1112 -0.1778  0.3409
13544TIP3    H162123   0.312   0.320   5.935 -2.5055 -0.3661  1.2213
13544TIP3    H262124   0.230   0.447   5.928  0.1394  1.2589 -1.1303
13545TIP3   OH262125   6.756   2.952   3.266  0.0396  0.0484  0.2239
13545TIP3    H162126   6.773   2.969   3.173  1.8082  1.9831  0.8383
13545TIP3    H262127   6.677   3.001   3.286 -0.0278  0.0863 -0.1428
13546TIP3   OH262128   2.384   6.350   5.578 -0.0324  0.1514 -0.2992
13546TIP3    H162129   2.313   6.410   5.604  0.3734  0.8327 -0.7387
13546TIP3    H262130   2.385   6.284   5.647 -0.5457  0.6066  0.1577
13547TIP3   OH262131   5.453   4.613  15.689  0.1845 -0.2680 -0.1821
13547TIP3    H162132   5.381   4.561  15.725  0.0606 -0.7235 -1.0758
13547TIP3    H262133   5.496   4.651  15.766 -0.5940 -0.5398  0.3913
13548TIP3   OH262134   5.112   1.284   0.653 -0.0051 -0.0162 -0.0792
13548TIP3    H162135   5.049   1.287   0.581  0.4564 -0.7335 -0.5138
13548TIP3    H262136   5.116   1.374   0.686 -0.3476  0.2708 -0.8297
13549TIP3   OH262137   6.774   4.502  11.900  0.0825  0.7968  0.1225
13549TIP3    H162138   6.863   4.475  11.880  0.2178 -0.1499  1.8850
13549TIP3    H262139   6.783   4.564  11.972 -0.6193  1.4791 -0.3662
13550TIP3   OH262140   6.030   4.674   4.760 -0.1404 -0.4883  0.2131
13550TIP3    H162141   6.064   4.625   4.835  0.6116 -0.5025 -0.1339
13550TIP3    H262142   6.057   4.765   4.777 -1.9635 -0.0837  1.1127
13551TIP3   OH262143   2.197   2.377  13.642  0.4816  0.4112  0.2204
13551TIP3    H162144   2.114   2.414  13.612  1.0138  2.4452  1.1769
13551TIP3    H262145   2.239   2.344  13.563 -0.9731 -0.1371 -0.3488
13552TIP3   OH262146   2.774   5.186   1.455  0.7679 -0.7043 -0.1627
13552TIP3    H162147   2.704   5.168   1.517  0.6157 -1.1603 -0.4648
13552TIP3    H262148   2.813   5.268   1.486 -0.1053 -0.2787 -0.1889
13553TIP3   OH262149   4.681   5.009   6.010  0.6102  0.1170 -0.1281
13553TIP3    H162150   4.697   5.099   6.037 -1.0182  0.8780 -1.5630
13553TIP3    H262151   4.585   5.001   6.010  0.6486 -0.7604 -2.5894
13554TIP3   OH262152   6.041   3.407   2.325  0.1386  0.4382  0.0419
13554TIP3    H162153   6.072   3.412   2.416  0.3372 -1.2695  0.1012
13554TIP3    H262154   6.100   3.343   2.284  0.7975  2.0560 -1.6195
13555TIP3   OH262155   3.529   0.754   6.029  0.0251 -0.5847 -0.1478
13555TIP3    H162156   3.460   0.742   6.094  1.1604 -1.9120  0.8317
13555TIP3    H262157   3.533   0.671   5.983  1.2248 -0.6344  0.0415
13556TIP3   OH262158   6.519   2.873   6.510  0.6691  0.2256  0.1549
13556TIP3    H162159   6.537   2.835   6.596  1.3718  1.4159  0.5434
13556TIP3    H262160   6.436   2.919   6.521 -0.0535 -0.9560 -0.2477
13557TIP3   OH262161   6.104   3.288  15.104  0.0296 -0.1445  0.4938
13557TIP3    H162162   6.115   3.383  15.113  1.9670 -0.1461 -1.5219
13557TIP3    H262163   6.110   3.254  15.193  0.6579  1.4962  1.0886
13558TIP3   OH262164   3.959   4.246  12.543 -0.1494 -0.0031 -0.5204
13558TIP3    H162165   3.918   4.165  12.512  0.0816  0.1762 -1.3003
13558TIP3    H262166   3.893   4.314  12.530 -0.9642 -0.3076  1.6565
13559TIP3   OH262167   1.595   5.488   5.367  0.4060 -0.9897  0.2168
13559TIP3    H162168   1.568   5.476   5.276 -0.7024  0.2159  0.3642
13559TIP3    H262169   1.524   5.538   5.407  2.4695  1.6412  0.8246
13560TIP3   OH262170   5.685   0.654  14.384 -0.8928 -0.1379 -0.8250
13560TIP3    H162171   5.669   0.737  14.339 -0.7411 -0.2616 -1.1052
13560TIP3    H262172   5.600   0.630  14.420 -0.6303  0.8705  0.5016
13561TIP3   OH262173   3.246   6.799   6.611 -0.6067  0.2567  0.2377
13561TIP3    H162174   3.206   6.770   6.693 -0.9952  0.1043 -0.0060
13561TIP3    H262175   3.209   6.885   6.595  1.6480  1.5707  1.7273
13562TIP3   OH262176   3.589   2.262   6.639 -0.5501  0.2858  0.5046
13562TIP3    H162177   3.665   2.206   6.621 -0.4815  0.2156  1.0169
13562TIP3    H262178   3.534   2.253   6.560 -0.2470 -0.0190  0.3244
13563TIP3   OH262179   6.681   1.064  10.994  0.4358 -0.1924  0.3876
13563TIP3    H162180   6.702   1.105  11.078 -0.0733 -2.0354  1.4533
13563TIP3    H262181   6.762   1.069  10.943  0.3857  2.0559  0.5084
13564TIP3   OH262182   2.465   5.858  16.966 -0.2360  0.4574 -0.1490
13564TIP3    H162183   2.445   5.810  17.046  0.2136  1.6015  0.6645
13564TIP3    H262184   2.494   5.791  16.904  0.0637 -0.3510  0.8575
13565TIP3   OH262185   0.154   6.287  11.382 -0.2266 -0.7657  0.8194
13565TIP3    H162186   0.164   6.365  11.437 -1.7460  0.0587 -0.0538
13565TIP3    H262187   0.063   6.262  11.393 -0.6674 -0.3342 -1.6579
13566TIP3   OH262188   0.649   2.012  15.575 -0.3273  0.0404  0.5655
13566TIP3    H162189   0.637   1.920  15.599 -0.6293 -0.6032 -1.8993
13566TIP3    H262190   0.561   2.048  15.573 -0.3954 -0.1865 -0.6024
13567TIP3   OH262191   1.363   0.449  11.983  0.5456 -0.1297  0.1599
13567TIP3    H162192   1.309   0.514  12.028  1.8843  1.0296  0.1426
13567TIP3    H262193   1.304   0.406  11.922 -0.2298  1.5157 -0.2734
13568TIP3   OH262194   3.223   3.454   2.009  0.5319 -0.0692  0.3022
13568TIP3    H162195   3.307   3.428   1.973  1.1456  1.6955  0.3780
13568TIP3    H262196   3.245   3.498   2.091 -0.3054  1.9206 -0.5008
13569TIP3   OH262197   2.355   3.783  15.718  0.3575 -0.2916  0.4690
13569TIP3    H162198   2.366   3.741  15.803  1.2196  0.9366  0.9911
13569TIP3    H262199   2.274   3.834  15.727 -0.0571 -0.9028  0.2305
13570TIP3   OH262200   2.861   1.690  11.290 -0.3832  0.0141  0.4177
13570TIP3    H162201   2.912   1.711  11.369  0.9257  0.8812 -0.6338
13570TIP3    H262202   2.926   1.686  11.220 -1.5919 -0.3353 -0.7063
13571TIP3   OH262203   4.152   1.340  15.717  0.3844 -0.0238 -0.1523
13571TIP3    H162204   4.082   1.276  15.726 -0.2246  0.7816  0.9004
13571TIP3    H262205   4.223   1.307  15.771 -0.0164  0.3009  0.5755
13572TIP3   OH262206   0.509   2.847  15.122 -0.1312 -0.6028  0.5478
13572TIP3    H162207   0.510   2.915  15.055  0.8012 -0.5584  0.6019
13572TIP3    H262208   0.496   2.766  15.073 -0.2058 -0.4905  0.3811
13573TIP3   OH262209   3.799   6.486   3.433  0.5716 -0.4131  0.3655
13573TIP3    H162210   3.823   6.578   3.442  2.6210 -0.6003 -2.5488
13573TIP3    H262211   3.711   6.481   3.470  1.1068  2.3363  2.1882
13574TIP3   OH262212   4.385   2.509  12.210 -1.0886  0.0414 -0.2834
13574TIP3    H162213   4.332   2.440  12.250  0.1334 -1.2563 -0.8194
13574TIP3    H262214   4.470   2.466  12.194  0.0166  1.9708  0.3076
13575TIP3   OH262215   2.000   1.195  14.854 -0.3552  0.6928  0.4385
13575TIP3    H162216   1.954   1.244  14.786 -0.0959 -3.2736 -2.7705
13575TIP3    H262217   1.936   1.129  14.883  0.7100  0.1218  1.5123
13576TIP3   OH262218   3.060   0.018   6.002 -0.0414 -0.3720 -0.5407
13576TIP3    H162219   3.042  -0.073   6.025 -0.0430 -0.2717 -0.1380
13576TIP3    H262220   3.038   0.067   6.081 -0.9469  0.0837 -1.0708
13577TIP3   OH262221   6.208   2.883   1.698 -0.4151  0.3161  0.4041
13577TIP3    H162222   6.131   2.922   1.656  0.8865  0.7467 -1.6585
13577TIP3    H262223   6.183   2.792   1.712 -0.9252  0.1669 -1.3005
13578TIP3   OH262224   0.049   3.343   3.955  0.0263 -0.7841 -0.0321
13578TIP3    H162225   0.047   3.358   4.049 -1.4174  2.8533 -0.5606
13578TIP3    H262226   0.136   3.308   3.937  0.7783 -0.2361  2.4772
13579TIP3   OH262227   6.814   6.433   3.373  0.3671  0.3088 -0.0336
13579TIP3    H162228   6.899   6.440   3.416  0.5561 -0.7186 -0.2265
13579TIP3    H262229   6.763   6.374   3.428 -0.6157  1.7669  0.6712
13580TIP3   OH262230   5.663   0.379  11.425  0.2483 -0.5162 -0.2975
13580TIP3    H162231   5.596   0.313  11.441  0.8951 -1.2623 -0.6877
13580TIP3    H262232   5.674   0.423  11.510 -2.3485  1.1223 -0.7649
13581TIP3   OH262233   6.772   5.792   1.948 -0.3699  0.0390 -0.4328
13581TIP3    H162234   6.699   5.821   2.004 -0.0100 -1.0574  0.6358
13581TIP3    H262235   6.806   5.715   1.992  1.2729  0.3743 -1.0747
13582TIP3   OH262236   3.688   0.893  16.498 -0.3766  0.1372 -0.8604
13582TIP3    H162237   3.771   0.930  16.469 -0.6376 -0.6635 -2.6881
13582TIP3    H262238   3.626   0.965  16.492 -0.3130  0.1213 -1.8139
13583TIP3   OH262239   0.888   4.192  12.367 -0.5857 -0.7145 -0.3653
13583TIP3    H162240   0.902   4.226  12.456 -1.8206 -1.4912  0.1449
13583TIP3    H262241   0.801   4.225  12.344  0.2688  0.5876 -1.8185
13584TIP3   OH262242   5.110   1.612  11.138  0.1719 -0.3317  0.1226
13584TIP3    H162243   5.141   1.693  11.178 -0.7999  0.4182 -0.6184
13584TIP3    H262244   5.183   1.583  11.084  1.0693 -0.7504  1.5415
13585TIP3   OH262245   1.749   3.351   1.345  0.4008  0.1272  0.2521
13585TIP3    H162246   1.719   3.349   1.254  0.7753  0.0801  0.1268
13585TIP3    H262247   1.830   3.402   1.342 -0.4909  1.6354  0.8291
13586TIP3   OH262248   1.572   6.517   4.745 -0.1732 -0.5301  0.1854
13586TIP3    H162249   1.580   6.564   4.662 -0.7325 -0.6643  0.0476
13586TIP3    H262250   1.655   6.470   4.754  0.2843  0.2754  0.1994
13587TIP3   OH262251   5.602   5.031   5.281 -0.2270 -0.0797 -0.2150
13587TIP3    H162252   5.596   5.001   5.372  1.9421 -1.0824 -0.3729
13587TIP3    H262253   5.581   4.953   5.229  1.5409 -0.3340 -0.5815
13588TIP3   OH262254   2.178   2.138  14.491  0.0812 -0.0625 -0.1490
13588TIP3    H162255   2.243   2.084  14.446  0.1611  0.6717 -0.9129
13588TIP3    H262256   2.151   2.203  14.427  0.2787  1.0700  0.8786
13589TIP3   OH262257   1.117   5.660   5.418 -0.1227 -0.5777  0.5009
13589TIP3    H162258   1.069   5.584   5.386 -0.7303 -0.1609  0.3963
13589TIP3    H262259   1.055   5.733   5.408  0.0154 -0.2799  1.7293
13590TIP3   OH262260   4.444   3.075  16.353 -0.1547  0.1837  0.1577
13590TIP3    H162261   4.499   3.127  16.295  0.2640  0.9954  1.2691
13590TIP3    H262262   4.502   3.005  16.385  0.3032  1.1343  1.4568
13591TIP3   OH262263   5.191   2.759  11.673 -0.5757 -0.1451  0.5762
13591TIP3    H162264   5.177   2.754  11.767 -1.8426  1.5223  0.5121
13591TIP3    H262265   5.102   2.760  11.636 -0.1196  0.8644 -0.5261
13592TIP3   OH262266   2.300   0.745  12.346  0.4956  0.3624  0.1726
13592TIP3    H162267   2.300   0.821  12.404  1.0999 -0.5206  1.3691
13592TIP3    H262268   2.389   0.710  12.353  0.1735 -0.5611 -0.2121
13593TIP3   OH262269   0.379   4.938  12.832  0.3496 -0.2060 -0.7752
13593TIP3    H162270   0.321   4.971  12.763 -0.3608  1.6232  0.6620
13593TIP3    H262271   0.466   4.969  12.805  0.1219  0.2384 -1.0138
13594TIP3   OH262272   3.751   1.648  10.979 -0.0352 -0.6817 -0.3379
13594TIP3    H162273   3.780   1.717  10.919  1.4112 -0.4831  0.5480
13594TIP3    H262274   3.658   1.638  10.962  0.0047  0.6050 -1.3730
13595TIP3   OH262275   0.219   6.343  14.418 -0.4506 -0.1576  0.7371
13595TIP3    H162276   0.269   6.398  14.358  0.1618 -0.4007  1.0260
13595TIP3    H262277   0.193   6.403  14.488  1.2610 -0.4949  1.6752
13596TIP3   OH262278   3.137   1.480  13.496  0.2316  0.1148 -0.1695
13596TIP3    H162279   3.206   1.531  13.454  0.8497 -0.1529  0.5046
13596TIP3    H262280   3.184   1.421  13.555 -0.4298 -1.5972 -1.3162
13597TIP3   OH262281   1.587   3.523  11.855 -0.2901  0.1473  0.4953
13597TIP3    H162282   1.624   3.438  11.880  3.6086  1.3643 -0.6978
13597TIP3    H262283   1.586   3.573  11.936 -1.3082 -0.5538  0.9338
13598TIP3   OH262284   4.626   1.980  17.216 -0.4088  0.3044  0.5638
13598TIP3    H162285   4.578   2.022  17.145 -0.5614  0.6866  0.8923
13598TIP3    H262286   4.648   2.052  17.276 -0.5836 -0.0710  1.0784
13599TIP3   OH262287   6.535   3.695   5.170 -0.4198  0.0878 -0.4181
13599TIP3    H162288   6.552   3.601   5.172  1.6299  0.4000 -1.9224
13599TIP3    H262289   6.523   3.719   5.262 -2.4650 -1.8824 -0.1378
13600TIP3   OH262290   3.608   1.068  16.736  0.0947  0.6680  0.2478
13600TIP3    H162291   3.542   1.125  16.696 -0.3352  0.1415  0.2035
13600TIP3    H262292   3.564   1.028  16.811  0.6003  0.9028  0.6677
13601TIP3   OH262293   6.298   3.886  17.045  0.4638 -0.6384 -0.5560
13601TIP3    H162294   6.263   3.827  17.112 -0.9281  0.0462 -0.6655
13601TIP3    H262295   6.386   3.906  17.074  0.3334 -1.4045  0.3863
13602TIP3   OH262296   0.326   1.250  16.391 -0.4735 -0.8912  0.1294
13602TIP3    H162297   0.343   1.160  16.419 -1.3222 -1.0177  0.2485
13602TIP3    H262298   0.266   1.241  16.317  0.1051 -0.4595 -0.3921
13603TIP3   OH262299   2.859   3.102  15.705  0.2187  0.1569  0.2853
13603TIP3    H162300   2.788   3.099  15.642  0.0210  3.0752  0.2839
13603TIP3    H262301   2.927   3.154  15.662  0.8518  0.5501  1.7347
13604TIP3   OH262302   1.089   4.691   2.015 -0.2572  0.4403 -0.7323
13604TIP3    H162303   1.182   4.671   2.023 -0.6966 -0.8189  1.5748
13604TIP3    H262304   1.083   4.785   2.032  0.1659 -0.1830  3.2251
13605TIP3   OH262305   0.936   2.172  13.034 -0.7108 -0.0326  0.4602
13605TIP3    H162306   1.008   2.143  13.091 -0.8350 -0.2851  0.4841
13605TIP3    H262307   0.858   2.133  13.072 -0.4507 -2.6671 -1.6139
13606TIP3   OH262308   0.722   2.555  15.238 -0.2963  0.3101 -0.4458
13606TIP3    H162309   0.804   2.604  15.250  0.0180 -0.4293  0.5456
13606TIP3    H262310   0.661   2.619  15.201  0.1055  1.4666  0.8305
13607TIP3   OH262311   2.378   1.982   3.587  0.0726  1.0504 -0.2223
13607TIP3    H162312   2.404   2.034   3.663 -1.3440 -0.1764  1.1401
13607TIP3    H262313   2.386   1.891   3.616 -1.1403  0.5708 -1.3167
13608TIP3   OH262314   6.275   1.501  15.502  0.1701  0.6384  0.7004
13608TIP3    H162315   6.197   1.459  15.467  0.4114 -0.2261  1.1955
13608TIP3    H262316   6.253   1.521  15.593  0.6529  0.0598  0.9485
13609TIP3   OH262317   0.996   3.994  12.943  0.2026  0.3469  0.0217
13609TIP3    H162318   0.969   3.923  13.001  0.9930  0.4452  0.5178
13609TIP3    H262319   1.079   3.965  12.906  0.3743  0.8724 -0.0137
13610TIP3   OH262320   1.302   4.200   3.316 -0.3272  0.1357  0.1253
13610TIP3    H162321   1.308   4.296   3.320  2.6405  0.0285 -0.4944
13610TIP3    H262322   1.277   4.182   3.225  0.9678  0.2734 -0.2656
13611TIP3   OH262323   0.375   1.565   0.429  0.0146 -0.4125 -0.5039
13611TIP3    H162324   0.432   1.634   0.463 -0.0640 -0.5690 -0.0413
13611TIP3    H262325   0.415   1.483   0.460 -0.1984 -0.5448 -0.5744
13612TIP3   OH262326   1.043   3.034  14.421 -0.3584  0.4200  0.2702
13612TIP3    H162327   0.971   2.996  14.370  1.8942 -1.7802 -1.3452
13612TIP3    H262328   1.063   3.116  14.375 -0.3046 -0.0960 -0.6487
13613TIP3   OH262329   3.193   2.831   4.093  0.4832 -0.1496 -0.0284
13613TIP3    H162330   3.232   2.744   4.100  2.8205  0.5383 -3.2187
13613TIP3    H262331   3.154   2.833   4.006  0.9782  2.1644 -0.2425
13614TIP3   OH262332   5.270   6.809   3.431  0.1252 -0.4366 -0.8637
13614TIP3    H162333   5.293   6.726   3.390 -0.3300 -0.6293 -0.7302
13614TIP3    H262334   5.263   6.871   3.358 -0.9616 -0.8399 -1.1200
13615TIP3   OH262335   2.915   0.347  14.367  0.5676 -0.3616  1.2296
13615TIP3    H162336   2.883   0.302  14.445 -1.4089 -1.0284  0.0726
13615TIP3    H262337   2.852   0.324  14.298  3.5662 -1.7528 -1.1850
13616TIP3   OH262338   1.410   4.068   6.371  0.2211 -0.1071 -0.0115
13616TIP3    H162339   1.424   3.975   6.388 -0.0504 -0.3976 -1.2837
13616TIP3    H262340   1.330   4.070   6.318  0.6727  0.7841 -0.6689
13617TIP3   OH262341   6.604   3.404  13.726 -0.5549  0.4710 -0.0706
13617TIP3    H162342   6.613   3.423  13.633  1.4497  0.6192  0.1420
13617TIP3    H262343   6.596   3.309  13.730  0.3763  0.3754 -0.3342
13618TIP3   OH262344   1.490   2.554   4.023  0.0871  0.2617  0.0188
13618TIP3    H162345   1.475   2.517   3.935 -0.0650  1.2851 -0.3926
13618TIP3    H262346   1.438   2.499   4.081  0.3075 -0.5250 -0.5099
13619TIP3   OH262347   4.175   5.156   1.993  0.2619 -0.1111 -0.0798
13619TIP3    H162348   4.230   5.127   1.920  1.8363 -0.5504  1.2458
13619TIP3    H262349   4.190   5.091   2.062 -2.1236 -0.3665  0.2422
13620TIP3   OH262350   2.307   2.645  12.393  0.2749  0.1426  1.1401
13620TIP3    H162351   2.306   2.733  12.357 -1.1352 -0.3557 -0.0546
13620TIP3    H262352   2.256   2.651  12.474 -2.7918 -0.2873 -0.6994
13621TIP3   OH262353   4.595   6.137  13.109 -0.1525 -0.0264 -0.6331
13621TIP3    H162354   4.655   6.062  13.107 -0.1919 -0.0347 -2.2197
13621TIP3    H262355   4.589   6.165  13.017 -0.7898  1.4005 -0.1639
13622TIP3   OH262356   0.363   1.590   2.657  0.0127 -0.2881  0.3693
13622TIP3    H162357   0.403   1.591   2.744  2.2461  4.2523 -0.5721
13622TIP3    H262358   0.419   1.532   2.606 -0.5441 -1.9289  1.5811
13623TIP3   OH262359   5.903   0.135  15.018  0.4569 -0.4406  0.7405
13623TIP3    H162360   5.813   0.154  14.992  0.3377 -1.2856  0.5171
13623TIP3    H262361   5.945   0.103  14.938  0.7535 -0.7255  1.0058
13624TIP3   OH262362   2.190   4.287  16.291  0.0736  0.3631  1.0483
13624TIP3    H162363   2.177   4.209  16.345  0.5005  0.3689  1.1699
13624TIP3    H262364   2.173   4.360  16.351 -1.6598  0.3627  0.5743
13625TIP3   OH262365   5.048   1.633  16.066 -0.1881 -0.4817 -1.0668
13625TIP3    H162366   5.121   1.696  16.068  0.0519 -0.7535 -1.3545
13625TIP3    H262367   4.980   1.674  16.120  0.5782 -0.7123  0.0908
13626TIP3   OH262368   5.605   0.871   0.474  0.3379 -0.3979 -1.0892
13626TIP3    H162369   5.607   0.956   0.431  0.5858  0.5820  0.8388
13626TIP3    H262370   5.525   0.871   0.526  0.4998 -1.2259 -0.8228
13627TIP3   OH262371   4.815   3.371  13.026 -0.6768  0.0205 -0.6909
13627TIP3    H162372   4.735   3.385  13.077  0.9996  1.1726  1.6975
13627TIP3    H262373   4.794   3.297  12.969 -3.9644  1.2945 -1.2189
13628TIP3   OH262374   1.534   2.630   4.688 -0.1153 -0.0404  0.1785
13628TIP3    H162375   1.496   2.640   4.601 -0.2425 -2.1454 -0.0301
13628TIP3    H262376   1.466   2.585   4.739  0.2390  0.5158  1.1774
13629TIP3   OH262377   2.444   4.667   4.530 -0.4396 -0.0728  0.1474
13629TIP3    H162378   2.519   4.617   4.562  0.8761  1.8257  0.0672
13629TIP3    H262379   2.372   4.604   4.530  1.2904 -2.1137 -0.4126
13630TIP3   OH262380   3.173   3.639  16.709  0.4731  0.7447  0.2408
13630TIP3    H162381   3.125   3.693  16.772  0.2117  0.4003  0.3332
13630TIP3    H262382   3.178   3.694  16.630 -2.4377 -0.2534 -0.7049
13631TIP3   OH262383   5.839   6.272  13.969  0.1287 -0.1409 -0.6473
13631TIP3    H162384   5.794   6.356  13.980 -1.3101 -1.1399  1.4188
13631TIP3    H262385   5.923   6.294  13.930  0.1696  2.3636  0.7996
13632TIP3   OH262386   4.673   0.798   2.589  0.2234 -0.6152 -0.7348
13632TIP3    H162387   4.625   0.727   2.547  0.1535 -0.0429 -1.6447
13632TIP3    H262388   4.754   0.806   2.539  0.1650  0.0315 -0.7407
13633TIP3   OH262389   1.323   5.711  11.598  0.0464 -0.0629 -0.3603
13633TIP3    H162390   1.405   5.664  11.605 -0.0144 -0.2385 -0.8216
13633TIP3    H262391   1.347   5.803  11.612 -0.1623 -0.4430  2.7443
13634TIP3   OH262392   0.552   4.686  13.321  0.0650 -0.2066 -0.0237
13634TIP3    H162393   0.583   4.770  13.287  0.2176 -1.2454 -2.5827
13634TIP3    H262394   0.610   4.668  13.395  0.3314  1.7179  0.2636
13635TIP3   OH262395   5.856   6.616  16.377  0.5055 -0.4549 -0.2016
13635TIP3    H162396   5.785   6.654  16.326  0.4680 -2.0614 -1.4053
13635TIP3    H262397   5.855   6.663  16.460  1.4076  3.1428 -2.1593
13636TIP3   OH262398   3.534   0.608  14.361  0.0172 -0.5248 -0.0289
13636TIP3    H162399   3.534   0.513  14.368  0.5752 -0.5746 -0.5801
13636TIP3    H262400   3.449   0.636  14.395 -0.8439 -1.3449 -1.4724
13637TIP3   OH262401   1.769   5.052   1.158 -0.4261  0.4274  0.1230
13637TIP3    H162402   1.735   5.010   1.236 -0.0124  1.2902  0.7775
13637TIP3    H262403   1.697   5.050   1.095 -0.8246 -0.0721  0.5951
13638TIP3   OH262404   0.852   6.668   4.245  0.4134  0.2158 -0.6683
13638TIP3    H162405   0.802   6.717   4.310  0.9044  1.3345 -1.1169
13638TIP3    H262406   0.913   6.615   4.297  0.8146  1.1170 -0.1943
13639TIP3   OH262407   6.292   3.031  14.728 -0.2879 -0.2423 -0.8420
13639TIP3    H162408   6.289   2.941  14.695  0.1964  0.0664 -1.7341
13639TIP3    H262409   6.200   3.059  14.732 -0.2789  0.1543 -3.1404
13640TIP3   OH262410   4.927   1.678   1.816 -0.0559 -0.0403 -0.0110
13640TIP3    H162411   4.845   1.728   1.806  0.3684  0.5980 -0.3026
13640TIP3    H262412   4.907   1.592   1.779 -0.7107 -0.0082  0.2506
13641TIP3   OH262413   5.571   3.015   1.637  0.6874 -0.0696  0.0459
13641TIP3    H162414   5.593   3.036   1.547  0.7438  0.5765  0.2065
13641TIP3    H262415   5.563   3.100   1.680 -2.5042 -0.2638 -0.0909
13642TIP3   OH262416   0.415   3.218  13.898 -0.1543  0.2339  0.0642
13642TIP3    H162417   0.396   3.257  13.983 -1.9613 -0.9495  0.2249
13642TIP3    H262418   0.422   3.124  13.914  2.2773  0.2554 -0.6504
13643TIP3   OH262419   0.443   1.107   1.696 -0.2206 -0.5050  0.2268
13643TIP3    H162420   0.384   1.083   1.625  0.0700 -0.1787 -0.1273
13643TIP3    H262421   0.508   1.036   1.698 -0.3863 -0.6526  0.3440
13644TIP3   OH262422   3.013   2.339  11.715  0.6118 -0.7314  0.0642
13644TIP3    H162423   3.074   2.316  11.785  0.4265 -0.9291  0.1623
13644TIP3    H262424   3.053   2.416  11.673 -0.0154  0.3038  1.3234
13645TIP3   OH262425   4.588   4.353   5.763  0.3129 -0.1054 -0.2059
13645TIP3    H162426   4.504   4.355   5.717 -0.4731 -1.2154  1.1365
13645TIP3    H262427   4.585   4.428   5.822  0.3743 -0.0092 -0.3235
13646TIP3   OH262428   2.853   4.754  16.308 -0.7527 -0.2018  0.7857
13646TIP3    H162429   2.891   4.756  16.220 -1.3717  3.1892  0.5052
13646TIP3    H262430   2.892   4.678  16.350 -0.1361 -1.6471 -2.2874
13647TIP3   OH262431   0.219   1.341  15.579  0.1771  0.3286 -0.7511
13647TIP3    H162432   0.133   1.383  15.578  0.7780  1.6817  1.4504
13647TIP3    H262433   0.273   1.396  15.523  0.4173  1.3045  0.4289
13648TIP3   OH262434   3.981   6.636  17.197  0.1914  0.5264 -0.1556
13648TIP3    H162435   3.921   6.591  17.257 -1.5989  1.7309 -0.9860
13648TIP3    H262436   4.032   6.693  17.253 -0.8706  1.0022  0.3475
13649TIP3   OH262437   0.151   0.308  17.227  0.0426  0.6013  0.5135
13649TIP3    H162438   0.107   0.366  17.164 -0.5371  0.7578  1.0579
13649TIP3    H262439   0.216   0.365  17.269  0.5251  0.4611 -0.0391
13650TIP3   OH262440   4.401   2.036   0.556  0.1690  0.3794  0.2158
13650TIP3    H162441   4.328   2.035   0.618 -1.0609 -3.3136 -1.1419
13650TIP3    H262442   4.388   2.114   0.504 -2.4451  0.1424  0.4627
13651TIP3   OH262443   0.114   1.476   4.495  0.0468 -0.0649 -0.9823
13651TIP3    H162444   0.144   1.488   4.406  0.2548 -0.9000 -1.0341
13651TIP3    H262445   0.191   1.495   4.549  0.3523 -1.0115 -1.0603
13652TIP3   OH262446   0.386   3.950  13.625 -0.7478 -0.4167 -0.0457
13652TIP3    H162447   0.473   3.972  13.593 -0.3226  1.1578  2.1056
13652TIP3    H262448   0.394   3.861  13.660  0.7041  0.6910  2.5735
13653TIP3   OH262449   1.706   1.461   1.231  0.2389  0.1003 -0.0108
13653TIP3    H162450   1.618   1.421   1.232  0.4166 -0.3670 -1.4359
13653TIP3    H262451   1.700   1.529   1.164  1.0568 -0.1677 -0.3598
13654TIP3   OH262452   2.652   3.665   0.668 -0.3580 -0.1175  0.1192
13654TIP3    H162453   2.747   3.653   0.657 -0.1632 -0.1520  1.7677
13654TIP3    H262454   2.626   3.714   0.590  1.4885  2.2229  0.8841
13655TIP3   OH262455   2.729   0.127   0.096  0.0885  0.4395 -0.0746
13655TIP3    H162456   2.648   0.118   0.046 -0.0725 -0.0826  0.2847
13655TIP3    H262457   2.719   0.068   0.170 -0.0214  1.8098  1.0387
13656TIP3   OH262458   1.222   1.309   2.998 -0.1079 -0.5173 -0.3340
13656TIP3    H162459   1.242   1.392   2.955 -1.4266 -0.2801 -0.4970
13656TIP3    H262460   1.293   1.298   3.062  0.4460  0.3935 -0.7839
13657TIP3   OH262461   5.946   6.079  12.856 -0.2102  0.2953 -0.2777
13657TIP3    H162462   5.877   6.016  12.834  0.0815  0.4018 -1.5614
13657TIP3    H262463   6.011   6.029  12.904 -1.0886  0.1492  0.7800
13658TIP3   OH262464   2.973   2.170  14.507 -0.6871 -0.1700  0.3671
13658TIP3    H162465   2.925   2.118  14.442 -1.2115  0.5765  0.1378
13658TIP3    H262466   2.988   2.110  14.580 -1.1639 -0.6747  0.0566
13659TIP3   OH262467   6.769   1.679   2.653 -0.2888 -0.8184  0.2197
13659TIP3    H162468   6.747   1.710   2.741 -0.6458 -1.9398  0.5318
13659TIP3    H262469   6.688   1.640   2.621 -0.4152  0.3792 -0.9631
13660TIP3   OH262470   0.599   3.954   0.187 -0.2836  0.0610  0.4791
13660TIP3    H162471   0.688   3.930   0.160 -0.1571  0.2108  0.7495
13660TIP3    H262472   0.611   4.036   0.235 -0.2976 -0.9734  2.2906
13661TIP3   OH262473   4.275   3.689  13.220 -0.2992 -0.0493 -0.1835
13661TIP3    H162474   4.343   3.626  13.242  1.6238  1.4630 -1.5943
13661TIP3    H262475   4.307   3.773  13.254 -1.1891  0.7761 -1.2916
13662TIP3   OH262476   1.914   3.143  14.531 -0.5490  0.2405 -0.1327
13662TIP3    H162477   1.968   3.130  14.608 -0.4623 -0.0112 -0.2349
13662TIP3    H262478   1.961   3.099  14.460  0.2267  1.9492 -0.6918
13663TIP3   OH262479   3.544   1.347   2.559  0.1032  0.1667  0.0227
13663TIP3    H162480   3.500   1.266   2.532 -0.0177  0.4128 -0.5363
13663TIP3    H262481   3.517   1.412   2.493  1.3498  0.3073 -0.3589
13664TIP3   OH262482   1.293   1.639  14.510 -0.0841  0.3650 -0.2019
13664TIP3    H162483   1.209   1.623  14.468 -0.2051  1.0747 -0.2341
13664TIP3    H262484   1.294   1.580  14.586 -0.9922  1.0242  0.3153
13665TIP3   OH262485   3.807   4.393  13.688 -0.0168  0.2371 -0.0773
13665TIP3    H162486   3.748   4.427  13.621 -0.0355  2.0028  0.7806
13665TIP3    H262487   3.890   4.439  13.672  0.1907  0.1225  0.6412
13666TIP3   OH262488   5.496   5.101  10.865  0.4675 -0.0546  0.0553
13666TIP3    H162489   5.529   5.117  10.953  0.5851 -1.0717  0.1997
13666TIP3    H262490   5.564   5.136  10.807  1.2102 -0.9774  0.3607
13667TIP3   OH262491   1.616   4.305   4.284 -0.3394  0.0881  0.3608
13667TIP3    H162492   1.663   4.222   4.293  0.0676  0.2837  0.0433
13667TIP3    H262493   1.532   4.280   4.244 -0.0767 -0.1293 -0.0582
13668TIP3   OH262494   1.904   1.529  13.888 -0.1895  0.0882  0.0675
13668TIP3    H162495   1.838   1.462  13.908  0.5625 -1.0400 -1.1942
13668TIP3    H262496   1.970   1.484  13.837  1.1444  1.4316  0.5625
13669TIP3   OH262497   2.088   4.845   4.079  0.9782  0.1898  0.2840
13669TIP3    H162498   2.064   4.795   4.001  0.6907  1.1820 -0.2797
13669TIP3    H262499   2.184   4.844   4.080  0.9897  0.3990 -0.2463
13670TIP3   OH262500   0.572   5.223  11.701  0.0132 -0.5423 -0.1371
13670TIP3    H162501   0.574   5.271  11.618  2.9794  0.2121  0.3177
13670TIP3    H262502   0.532   5.284  11.762  0.6310  0.0935 -0.3478
13671TIP3   OH262503   1.125   2.162   5.919 -0.7491 -0.1806  1.3569
13671TIP3    H162504   1.130   2.145   6.013  0.5946 -0.8115  1.1785
13671TIP3    H262505   1.181   2.239   5.906  1.1855 -1.6785  0.6926
13672TIP3   OH262506   1.033   3.855  16.627 -0.3979  0.1398  0.5107
13672TIP3    H162507   0.958   3.796  16.625  0.2256 -0.6727  1.0457
13672TIP3    H262508   1.087   3.824  16.699  2.2355 -1.4960 -2.0628
13673TIP3   OH262509   0.246   1.561   4.265 -0.5450  0.6234 -0.1412
13673TIP3    H162510   0.200   1.618   4.203 -0.0911 -0.8223 -1.8823
13673TIP3    H262511   0.323   1.611   4.291 -0.1643  0.8561 -1.6277
13674TIP3   OH262512   6.527   6.335   2.188  0.1287  0.6776 -0.0161
13674TIP3    H162513   6.580   6.281   2.130 -0.5657  0.3492 -0.3523
13674TIP3    H262514   6.444   6.346   2.142  0.6035  2.8630 -0.3955
13675TIP3   OH262515   6.294   3.102   4.417 -0.0602  0.7534 -0.3499
13675TIP3    H162516   6.339   3.139   4.493  0.1898  2.2000 -1.1757
13675TIP3    H262517   6.262   3.017   4.447  1.3345  0.6492  0.9154
13676TIP3   OH262518   4.404   0.456   5.214 -0.0122  0.3200 -0.1320
13676TIP3    H162519   4.443   0.467   5.128  0.0247  1.7558  0.0580
13676TIP3    H262520   4.475   0.477   5.275  0.0648 -1.0282  0.2669
13677TIP3   OH262521   5.461   1.919   4.156 -0.5206 -0.4089 -0.1752
13677TIP3    H162522   5.508   2.000   4.175 -0.2055 -0.4657 -0.7182
13677TIP3    H262523   5.368   1.943   4.166 -0.4494  0.1221 -0.7037
13678TIP3   OH262524   6.760   0.767  11.899  0.1459 -0.2062  0.0649
13678TIP3    H162525   6.678   0.771  11.948 -1.2517  1.2495 -2.3114
13678TIP3    H262526   6.790   0.857  11.895  0.2580 -0.3178 -1.7073
13679TIP3   OH262527   5.334   1.797   2.877 -0.6461 -0.5073  0.8059
13679TIP3    H162528   5.306   1.872   2.824  0.8351  0.0115  0.7309
13679TIP3    H262529   5.291   1.722   2.836  0.4365 -0.1015 -1.1401
13680TIP3   OH262530   3.306   0.498  15.058  0.2710  0.3947 -0.6077
13680TIP3    H162531   3.398   0.483  15.081  0.7186  1.7669 -1.4392
13680TIP3    H262532   3.305   0.495  14.962 -0.4827  0.7768 -0.6153
13681TIP3   OH262533   4.061   6.614   4.731 -0.5201  0.0964  0.3313
13681TIP3    H162534   4.070   6.539   4.672 -1.2545  0.1398  0.1617
13681TIP3    H262535   3.975   6.602   4.772 -0.4075  0.5569  0.7056
13682TIP3   OH262536   2.791   3.452   0.009  0.0540 -0.1876  0.3112
13682TIP3    H162537   2.850   3.384  -0.022 -0.4932  0.3585 -1.9673
13682TIP3    H262538   2.776   3.429   0.101  3.8952 -0.2308  1.0123
13683TIP3   OH262539   5.415   0.169   4.300  0.2299  0.1459  0.0190
13683TIP3    H162540   5.345   0.234   4.291 -0.4903 -0.7450 -0.9009
13683TIP3    H262541   5.490   0.210   4.257  0.2147  0.9935  0.7703
13684TIP3   OH262542   6.724   1.087  15.417 -0.0396  0.5707 -0.0743
13684TIP3    H162543   6.746   1.154  15.351 -2.1086 -0.2889 -1.6898
13684TIP3    H262544   6.809   1.055  15.447  0.9665  1.5743 -1.7305
13685TIP3   OH262545   0.183   0.049  13.910 -0.8086 -0.2315  0.1907
13685TIP3    H162546   0.222  -0.022  13.859  1.6476  0.2593  1.2899
13685TIP3    H262547   0.110   0.008  13.956 -1.3350 -1.3101 -1.5446
13686TIP3   OH262548   6.631   0.844  13.062 -0.2047  0.5128 -0.4788
13686TIP3    H162549   6.654   0.935  13.044 -1.0014  0.7999 -0.0759
13686TIP3    H262550   6.676   0.823  13.144  0.6317  0.2870 -0.9912
13687TIP3   OH262551   0.082   6.230   3.169 -0.0100  0.7573 -0.7569
13687TIP3    H162552   0.025   6.194   3.101  0.2886  0.8105 -1.0323
13687TIP3    H262553   0.022   6.277   3.227 -0.1623  1.4134 -1.4402
13688TIP3   OH262554   5.962   0.915  14.032 -0.2418 -0.5441  0.5791
13688TIP3    H162555   5.981   1.004  14.064 -2.9543 -0.4496  2.1047
13688TIP3    H262556   6.033   0.861  14.068  0.5291  0.7264  1.0124
13689TIP3   OH262557   1.290   6.497   4.157 -0.1362 -0.4727  0.4002
13689TIP3    H162558   1.354   6.543   4.211  0.3597 -1.0371  0.3102
13689TIP3    H262559   1.230   6.456   4.219 -1.5246  1.5947  0.4522
13690TIP3   OH262560   2.595   2.688   1.098  0.3262 -0.2347  0.6076
13690TIP3    H162561   2.642   2.629   1.157 -1.0418 -0.4259  1.5327
13690TIP3    H262562   2.648   2.768   1.096  1.7558 -1.1739  0.0015
13691TIP3   OH262563   5.831   4.954  11.862 -0.6327  0.3084 -1.0609
13691TIP3    H162564   5.918   4.971  11.899 -0.5968  0.2990 -1.1397
13691TIP3    H262565   5.833   4.861  11.839 -1.1685 -0.0599  0.2863
13692TIP3   OH262566   5.137   3.022  17.103 -0.0019 -0.0366 -0.1682
13692TIP3    H162567   5.105   3.022  17.013 -0.5960  1.3289  0.0215
13692TIP3    H262568   5.202   2.952  17.106  0.6273  0.4590 -1.8707
13693TIP3   OH262569   5.497   0.536  10.574  0.5519 -0.2781 -0.2511
13693TIP3    H162570   5.536   0.590  10.505 -1.5447 -0.4093 -1.5942
13693TIP3    H262571   5.425   0.590  10.608  0.9335 -0.6309  1.1724
13694TIP3   OH262572   3.575   2.441  13.325  0.5279  0.2964 -0.3078
13694TIP3    H162573   3.505   2.479  13.378  1.6693  2.6359 -0.3929
13694TIP3    H262574   3.618   2.379  13.384  1.2686  2.2557  1.3061
13695TIP3   OH262575   5.546   6.219   0.810 -0.0829  0.2487  0.5542
13695TIP3    H162576   5.504   6.285   0.866 -0.2099  0.4844  0.1817
13695TIP3    H262577   5.570   6.149   0.870  1.1693  1.1747  1.1378
13696TIP3   OH262578   6.454   1.578   4.349  0.2793  0.0221 -0.3488
13696TIP3    H162579   6.539   1.602   4.385 -0.2295  0.0353  0.8710
13696TIP3    H262580   6.406   1.542   4.423 -1.3045  1.3880 -0.6688
13697TIP3   OH262581   0.416   1.691  14.736 -0.0307 -0.3039  0.0183
13697TIP3    H162582   0.389   1.670  14.647 -0.2760 -0.6591  0.1756
13697TIP3    H262583   0.478   1.622  14.760  0.6137  0.2142 -0.1469
13698TIP3   OH262584   6.068   1.346   0.215 -0.0265 -0.2082  0.2690
13698TIP3    H162585   6.158   1.378   0.212  0.2471 -0.8367  1.4191
13698TIP3    H262586   6.020   1.412   0.265 -0.3096  0.3428 -0.7110
13699TIP3   OH262587   2.868   6.686  13.854 -0.3120 -0.2718  0.3064
13699TIP3    H162588   2.857   6.671  13.948  3.2799 -1.5591  0.5896
13699TIP3    H262589   2.930   6.758  13.847 -2.4514  1.5250 -1.1581
13700TIP3   OH262590   2.869   6.729   6.651 -0.0805  0.7282  0.0762
13700TIP3    H162591   2.952   6.745   6.695  0.7560 -0.2086 -1.1269
13700TIP3    H262592   2.823   6.667   6.707  1.4782 -1.3772 -0.9214
13701TIP3   OH262593   2.053   4.685  13.309 -0.6532 -0.1377  0.3209
13701TIP3    H162594   1.995   4.668  13.235  0.0811 -0.5840 -0.1520
13701TIP3    H262595   2.050   4.605  13.361 -0.0629 -0.3507  0.0272
13702TIP3   OH262596   0.170   3.550   1.020  0.8238  0.6559 -0.3430
13702TIP3    H162597   0.221   3.512   0.948 -1.2911 -1.7412 -0.6617
13702TIP3    H262598   0.183   3.491   1.093 -0.6644  0.5471 -0.1374
13703TIP3   OH262599   6.646   0.287   1.395 -0.8259 -0.6886  0.1205
13703TIP3    H162600   6.704   0.238   1.453 -0.6336 -0.9768 -0.3089
13703TIP3    H262601   6.637   0.231   1.318  1.1442  0.8908 -1.3183
13704TIP3   OH262602   1.800   0.339  11.564 -0.4316  0.1139 -0.0415
13704TIP3    H162603   1.849   0.265  11.529  0.6031  0.4651  0.6477
13704TIP3    H262604   1.717   0.302  11.592  0.9965 -1.2503  2.5374
13705TIP3   OH262605   3.751   3.192   0.951 -0.0752  0.0381  0.0046
13705TIP3    H162606   3.711   3.227   1.031 -0.4597  2.4337 -1.1775
13705TIP3    H262607   3.826   3.249   0.935  0.3736 -0.8257 -0.9919
13706TIP3   OH262608   6.700   1.851  13.532  0.0777  0.3762 -0.0738
13706TIP3    H162609   6.753   1.873  13.455 -0.3120 -1.2999 -0.8416
13706TIP3    H262610   6.746   1.777  13.572 -1.7204 -1.2046 -0.8390
13707TIP3   OH262611   1.883   1.828   1.887  0.1013 -0.1369  0.1209
13707TIP3    H162612   1.804   1.858   1.930 -0.9637  0.3671 -2.1329
13707TIP3    H262613   1.930   1.908   1.864 -0.9534 -0.2405 -2.5748
13708TIP3   OH262614   4.143   5.651  13.401 -0.9836 -0.3691 -0.6773
13708TIP3    H162615   4.106   5.563  13.391 -0.2907 -0.9825  1.6473
13708TIP3    H262616   4.236   5.641  13.379 -0.8514 -0.2845 -0.1691
13709TIP3   OH262617   2.744   4.273   1.181 -0.2292 -0.7428  0.3551
13709TIP3    H162618   2.801   4.226   1.120 -0.4488  0.8921 -1.1526
13709TIP3    H262619   2.803   4.335   1.225 -0.4205 -0.5921  0.3992
13710TIP3   OH262620   3.766   1.074   2.968  0.0862 -0.5235 -0.1166
13710TIP3    H162621   3.801   1.003   3.021  0.0336  1.0254  2.0592
13710TIP3    H262622   3.842   1.122   2.937  0.0336  1.4960  2.7251
13711TIP3   OH262623   0.847   1.711   3.829 -0.2753  0.1966 -0.1541
13711TIP3    H162624   0.917   1.680   3.773 -0.0649 -1.0951  0.7884
13711TIP3    H262625   0.876   1.797   3.859 -0.5065  1.0110 -2.1765
13712TIP3   OH262626   3.860   2.082  11.697 -0.0347  0.0459  0.2065
13712TIP3    H162627   3.863   2.167  11.653 -2.3575  0.0702  0.0661
13712TIP3    H262628   3.935   2.034  11.661 -0.4484  0.9466 -1.9225
13713TIP3   OH262629   1.083   3.405   5.844  0.0831  0.1077  0.3463
13713TIP3    H162630   1.019   3.366   5.903  0.4583 -0.4046  0.4214
13713TIP3    H262631   1.055   3.496   5.834  0.3634  0.3741  1.8177
13714TIP3   OH262632   1.769   5.609   3.394  0.1400  0.3546  0.1979
13714TIP3    H162633   1.761   5.553   3.317  1.0954  2.0643 -1.1823
13714TIP3    H262634   1.821   5.557   3.456 -1.6552 -1.5006  0.1864
13715TIP3   OH262635   6.492   2.273  16.832  0.2594 -0.2254 -0.4111
13715TIP3    H162636   6.535   2.224  16.762 -0.0982  0.2618 -0.9726
13715TIP3    H262637   6.424   2.215  16.865  1.1738 -0.9066  0.3173
13716TIP3   OH262638   5.541   0.918   2.374 -0.0337 -0.2499  0.7405
13716TIP3    H162639   5.495   0.989   2.329  0.3231  0.5052  1.5438
13716TIP3    H262640   5.584   0.869   2.304 -3.2146 -1.8575 -0.1650
13717TIP3   OH262641   6.705   5.868  15.167  0.2158 -0.9795  0.1538
13717TIP3    H162642   6.741   5.853  15.080  1.4269 -1.0396  0.6640
13717TIP3    H262643   6.658   5.787  15.189 -1.3988 -0.3990 -1.0637
13718TIP3   OH262644   2.385   0.591  16.313 -0.0850  0.0356  0.5522
13718TIP3    H162645   2.318   0.558  16.374 -0.9141  1.0693  0.1975
13718TIP3    H262646   2.355   0.562  16.227 -0.5618  1.3023  0.2907
13719TIP3   OH262647   4.662   2.592  14.523  0.2894 -0.0828  0.3351
13719TIP3    H162648   4.652   2.550  14.438  2.1707 -1.3296  0.6858
13719TIP3    H262649   4.592   2.554  14.577 -0.8121  0.6039 -0.5890
13720TIP3   OH262650   6.039   0.661  12.659  0.1811 -0.1890 -0.2594
13720TIP3    H162651   5.963   0.702  12.702  1.5385  2.0992  0.0303
13720TIP3    H262652   6.070   0.596  12.723 -0.4421  0.1470  0.3983
13721TIP3   OH262653   3.156   4.620  15.749  0.6003  0.2250 -0.5277
13721TIP3    H162654   3.164   4.648  15.841 -0.7185  1.3931 -0.7385
13721TIP3    H262655   3.129   4.699  15.703 -0.2856 -0.7249 -1.6558
13722TIP3   OH262656   6.432   0.851   1.246  0.2874  0.1911 -0.2315
13722TIP3    H162657   6.446   0.767   1.202  1.1788 -0.7861  1.8226
13722TIP3    H262658   6.517   0.895   1.239  0.4912 -0.0542  0.6501
13723TIP3   OH262659   3.056   6.675   4.658 -0.2285 -0.0492  0.5488
13723TIP3    H162660   3.079   6.765   4.638  1.2084 -0.5674 -0.1690
13723TIP3    H262661   3.092   6.659   4.745  1.0414 -0.4594 -0.0418
13724TIP3   OH262662   5.066   4.367  10.268  0.0416  0.3032 -0.1770
13724TIP3    H162663   4.980   4.389  10.303 -0.1384  0.5155 -0.7411
13724TIP3    H262664   5.109   4.319  10.338 -1.4935 -2.1137 -0.7961
13725TIP3   OH262665   2.200   1.432   5.391  0.3581 -0.5398 -0.2080
13725TIP3    H162666   2.186   1.422   5.297  2.3070  1.8735 -0.8015
13725TIP3    H262667   2.153   1.511   5.415 -1.7200 -2.1608  1.2812
13726TIP3   OH262668   2.515   3.051   0.728 -0.6053  0.0341  0.0717
13726TIP3    H162669   2.438   3.060   0.785 -1.1801  0.4296 -0.7454
13726TIP3    H262670   2.481   3.008   0.650 -0.0292  0.3870 -0.3768
13727TIP3   OH262671   1.372   5.397  13.035  0.0580 -0.1554  0.5545
13727TIP3    H162672   1.381   5.314  12.989  1.8860 -1.0171  2.3857
13727TIP3    H262673   1.279   5.402  13.057 -0.1234 -1.5503  0.1474
13728TIP3   OH262674   5.283   6.139   2.969 -0.4751 -0.7276  0.5249
13728TIP3    H162675   5.325   6.212   2.923 -0.8925  0.0950  1.4187
13728TIP3    H262676   5.259   6.077   2.899 -0.0609 -0.0351 -0.2404
13729TIP3   OH262677   3.864   1.652  13.680 -0.0322  0.1901  0.1713
13729TIP3    H162678   3.847   1.558  13.686  0.8440 -0.1044 -1.5293
13729TIP3    H262679   3.797   1.685  13.620  0.9994  0.2336 -0.9902
13730TIP3   OH262680   0.520   0.073   1.834 -0.0822  0.5502 -0.0213
13730TIP3    H162681   0.594   0.090   1.776  0.8547  1.9371  1.5085
13730TIP3    H262682   0.457   0.024   1.781  1.8285 -0.4354 -1.4271
13731TIP3   OH262683   4.266   0.712  13.673 -0.7830  0.5550 -0.4789
13731TIP3    H162684   4.283   0.731  13.766 -2.1199  0.5075 -0.2075
13731TIP3    H262685   4.217   0.787  13.642 -1.4837 -0.0238 -0.7919
13732TIP3   OH262686   6.001   2.224   2.646 -0.2911 -0.9581  1.0531
13732TIP3    H162687   6.063   2.151   2.646  0.4684 -0.3210  0.8343
13732TIP3    H262688   6.054   2.300   2.671 -1.0251 -0.4394  1.0338
13733TIP3   OH262689   6.211   6.814   0.135 -0.5728 -0.4784  0.3836
13733TIP3    H162690   6.300   6.836   0.163  0.0844  0.3342 -2.2014
13733TIP3    H262691   6.167   6.898   0.124 -0.7603 -0.7439 -1.0759
13734TIP3   OH262692   1.062   1.140   6.010 -0.0365 -0.3444  0.5054
13734TIP3    H162693   1.073   1.089   6.090  1.1965  0.5214  0.9133
13734TIP3    H262694   1.007   1.086   5.954  1.6289 -2.3353  0.7384
13735TIP3   OH262695   5.767   3.516   1.027 -0.2268  0.4463 -0.1293
13735TIP3    H162696   5.798   3.436   0.986 -1.6062  0.7766 -1.8709
13735TIP3    H262697   5.711   3.486   1.099 -1.0804 -0.1627 -1.0376
13736TIP3   OH262698   0.297   1.340   0.127 -0.5577  0.3000  0.3113
13736TIP3    H162699   0.302   1.432   0.100  1.0230  0.3182  0.6167
13736TIP3    H262700   0.330   1.291   0.051 -0.3883  0.0620  0.5372
13737TIP3   OH262701   3.530   0.388  14.746 -0.0644  0.0124 -0.6913
13737TIP3    H162702   3.495   0.334  14.675 -1.6608 -0.7167  0.5997
13737TIP3    H262703   3.586   0.328  14.796  0.9058  0.4729 -1.2251
13738TIP3   OH262704   2.863   6.025  10.994 -0.2012 -0.0885  0.1875
13738TIP3    H162705   2.795   6.064  11.049 -0.0634 -0.7611  0.8434
13738TIP3    H262706   2.943   6.072  11.018 -0.4501  0.8273 -0.7136
13739TIP3   OH262707   6.419   3.308  13.339 -0.4513  0.1303  0.3611
13739TIP3    H162708   6.359   3.261  13.396 -1.0552  0.6820  0.1883
13739TIP3    H262709   6.422   3.397  13.376  0.9161 -0.1193  0.8773
13740TIP3   OH262710   2.542   5.072   2.317  0.1926 -0.4137  0.3455
13740TIP3    H162711   2.486   5.071   2.240  1.3067  1.5319 -0.5303
13740TIP3    H262712   2.612   5.009   2.296  0.4113 -0.0005 -0.1730
13741TIP3   OH262713   2.345   2.091  11.899  0.5532  0.7011  0.2581
13741TIP3    H162714   2.430   2.071  11.857 -0.4383 -2.7716 -0.3269
13741TIP3    H262715   2.280   2.068  11.832 -0.8947  2.7015  0.9365
13742TIP3   OH262716   6.778   3.490  15.221  0.6952 -0.3494  0.1386
13742TIP3    H162717   6.822   3.492  15.136  1.1371  1.2856  0.4015
13742TIP3    H262718   6.848   3.479  15.285  0.3140 -2.2274  0.2886
13743TIP3   OH262719   2.487   1.396   5.273 -0.7303 -0.3831  0.7933
13743TIP3    H162720   2.435   1.418   5.195  0.7263  1.8028  0.3802
13743TIP3    H262721   2.577   1.393   5.240 -0.1506  0.1510  2.3218
13744TIP3   OH262722   1.422   1.842  10.602  0.7964  0.2292  0.0109
13744TIP3    H162723   1.487   1.896  10.557  0.1923  0.6623 -0.3546
13744TIP3    H262724   1.428   1.757  10.560  1.0600  0.2962 -0.0855
13745TIP3   OH262725   5.759   0.058   3.701  0.0001 -0.2367  1.1214
13745TIP3    H162726   5.675   0.097   3.676 -0.6938 -1.9565  0.7454
13745TIP3    H262727   5.817   0.079   3.628 -0.4390 -0.1439  0.7954
13746TIP3   OH262728   3.241   0.731  16.251  0.3282 -0.1227  0.6907
13746TIP3    H162729   3.151   0.758  16.233  0.7937  0.6557 -0.5915
13746TIP3    H262730   3.243   0.715  16.345 -1.3757 -1.0337  0.6048
13747TIP3   OH262731   1.458   3.866  15.016  0.4811 -0.4884 -0.4310
13747TIP3    H162732   1.486   3.774  15.013  3.6851  0.3370  1.3397
13747TIP3    H262733   1.512   3.910  14.951 -1.9759 -0.0260 -2.2092
13748TIP3   OH262734   6.384   5.619   4.805 -0.1404 -0.6829  0.1709
13748TIP3    H162735   6.402   5.713   4.802  0.7160 -0.7972  1.3423
13748TIP3    H262736   6.292   5.613   4.830 -0.2100 -0.1570  0.0457
13749TIP3   OH262737   5.677   1.205   3.378  0.0153  0.2514 -0.1762
13749TIP3    H162738   5.672   1.120   3.421 -2.2219  0.5059  0.1163
13749TIP3    H262739   5.695   1.267   3.448 -1.9660  0.4546  0.1765
13750TIP3   OH262740   2.534   4.618  16.613  0.0286 -0.1572  0.5573
13750TIP3    H162741   2.490   4.533  16.617 -0.7708  0.2020 -0.4163
13750TIP3    H262742   2.535   4.648  16.704  0.0673 -1.0771  0.8694
13751TIP3   OH262743   1.004   2.829  12.095 -0.3148 -0.3214  0.3461
13751TIP3    H162744   1.093   2.801  12.118 -0.5097 -2.0203 -0.9052
13751TIP3    H262745   1.008   2.925  12.099  1.2719 -0.4053  1.3598
13752TIP3   OH262746   2.969   5.614  11.472 -0.0782 -0.0712 -0.1486
13752TIP3    H162747   3.046   5.629  11.418 -0.9581 -0.5162 -1.5667
13752TIP3    H262748   2.903   5.674  11.437 -0.5771 -0.1478  0.6338
13753TIP3   OH262749   2.063   1.948   0.853  0.0488 -0.1306 -0.1990
13753TIP3    H162750   2.120   1.913   0.785 -0.7667 -0.5618 -0.6585
13753TIP3    H262751   2.123   1.995   0.912  1.0319 -1.5941 -0.0096
13754TIP3   OH262752   0.869   3.647  16.737  0.0240 -0.5183 -0.4196
13754TIP3    H162753   0.892   3.568  16.689  2.2470 -0.8504  1.1301
13754TIP3    H262754   0.819   3.616  16.813  0.8677 -0.4540  0.1714
13755TIP3   OH262755   4.466   1.453  11.490  0.1216 -0.3904 -0.5406
13755TIP3    H162756   4.380   1.416  11.468 -1.0689  0.5837  2.3191
13755TIP3    H262757   4.476   1.526  11.429 -2.0510  0.7908  0.4616
13756TIP3   OH262758   3.919   2.350  16.611  0.1091  0.4105  0.6625
13756TIP3    H162759   3.891   2.393  16.530  0.6796  0.8556  0.6955
13756TIP3    H262760   3.847   2.366  16.672 -0.2255  0.2590  0.3051
13757TIP3   OH262761   5.502   0.565   0.604  0.4654  0.1085  0.7480
13757TIP3    H162762   5.524   0.508   0.677 -1.6234 -1.2600  0.3623
13757TIP3    H262763   5.468   0.644   0.644  0.2819 -0.2341  1.2735
13758TIP3   OH262764   5.286   0.831  15.731  0.0723 -0.1312 -0.0401
13758TIP3    H162765   5.213   0.827  15.669  1.1054  0.6288 -1.3576
13758TIP3    H262766   5.250   0.873  15.808 -0.9816 -0.1316 -0.5139
13759TIP3   OH262767   1.992   2.620   4.564 -0.8350 -0.7346 -0.0648
13759TIP3    H162768   1.955   2.645   4.479  1.7893 -0.8337 -1.2886
13759TIP3    H262769   2.062   2.684   4.579 -2.1495  0.1236  2.7100
13760TIP3   OH262770   0.075   3.085   5.254  0.3874  0.0516 -0.0089
13760TIP3    H162771   0.169   3.071   5.252  0.3413 -0.2941  0.1448
13760TIP3    H262772   0.062   3.157   5.316  0.4934 -0.3626  0.4956
13761TIP3   OH262773   1.962   4.200   4.255 -0.7243  0.0402  0.0042
13761TIP3    H162774   1.953   4.247   4.338 -1.1040 -2.5241  1.4766
13761TIP3    H262775   1.942   4.265   4.188 -4.5096  1.1740  2.0923
13762TIP3   OH262776   2.171   1.415   3.343  0.2711 -0.4997 -0.4076
13762TIP3    H162777   2.217   1.376   3.269 -1.6761 -1.8118 -0.9766
13762TIP3    H262778   2.234   1.413   3.415  0.8696 -2.9305 -0.9447
13763TIP3   OH262779   6.384   0.083   5.143 -0.0264  0.3081  0.1252
13763TIP3    H162780   6.430   0.026   5.204  0.3094 -1.7979 -2.0433
13763TIP3    H262781   6.437   0.081   5.063 -2.2390  0.2637 -1.3947
13764TIP3   OH262782   3.957   4.333  15.121  0.3326 -0.1692 -0.2424
13764TIP3    H162783   3.871   4.375  15.130  1.8807  3.4034 -1.0066
13764TIP3    H262784   3.961   4.305  15.029 -0.7885 -2.2211  0.3190
13765TIP3   OH262785   3.809   1.167  11.681  1.2657 -0.0112  0.4164
13765TIP3    H162786   3.844   1.143  11.595  0.3516 -0.3957  0.1506
13765TIP3    H262787   3.729   1.116  11.690  1.3898 -0.0219  1.5305
13766TIP3   OH262788   3.843   5.786  15.802 -0.1499 -0.6448 -0.6427
13766TIP3    H162789   3.927   5.825  15.826  0.1319 -0.9575 -1.1050
13766TIP3    H262790   3.856   5.692  15.813 -0.8785 -0.6009  0.6239
13767TIP3   OH262791   4.304   0.169  14.209 -0.0301  0.1969  0.8697
13767TIP3    H162792   4.276   0.246  14.160  0.2771  0.9023  1.7762
13767TIP3    H262793   4.320   0.102  14.142  2.3271  1.7379 -0.1988
13768TIP3   OH262794   3.918   6.652  15.662 -0.5544  0.0392  0.2825
13768TIP3    H162795   3.891   6.698  15.583 -0.8221 -1.4035 -0.4706
13768TIP3    H262796   3.860   6.687  15.730  0.2048  1.8610  0.0270
13769TIP3   OH262797   3.784   4.091   3.926  0.4458  0.5121 -0.3465
13769TIP3    H162798   3.798   4.151   3.852  1.3990 -0.2764 -0.8124
13769TIP3    H262799   3.772   4.005   3.885 -2.2297  0.5717  0.2450
13770TIP3   OH262800   1.975   2.397   3.668  0.9248 -0.0052  0.4411
13770TIP3    H162801   1.955   2.397   3.574  3.5596  0.7127 -0.1616
13770TIP3    H262802   1.890   2.383   3.711 -0.2311 -0.9611 -2.0540
13771TIP3   OH262803   4.427   0.383  17.005 -0.3476 -0.4101  0.3331
13771TIP3    H162804   4.369   0.395  17.081 -0.6533 -0.8049  0.1706
13771TIP3    H262805   4.499   0.443  17.020 -0.3417 -0.5796  1.0078
13772TIP3   OH262806   1.241   5.643  13.605  0.1391  0.0502  0.2903
13772TIP3    H162807   1.172   5.578  13.615 -1.5758  1.9079  0.8572
13772TIP3    H262808   1.322   5.594  13.619 -1.1913 -1.5883  2.6133
13773TIP3   OH262809   3.504   5.307  12.901 -0.9724  0.9259  0.3048
13773TIP3    H162810   3.436   5.288  12.836 -0.6650  0.4703  0.1188
13773TIP3    H262811   3.581   5.260  12.870 -1.3795 -0.9757  2.0605
13774TIP3   OH262812   6.335   4.996   3.601 -0.1968 -0.2218  0.7201
13774TIP3    H162813   6.410   4.950   3.563 -0.2194 -0.8066  1.3691
13774TIP3    H262814   6.336   4.972   3.694 -0.6100  0.5554  0.9318
13775TIP3   OH262815   0.059   6.274  17.028 -0.3293 -0.4478 -0.7429
13775TIP3    H162816   0.014   6.242  16.950 -0.4821  1.4889 -1.4695
13775TIP3    H262817  -0.006   6.326  17.075  0.2278 -0.2819 -0.1394
13776TIP3   OH262818   4.538   1.564   2.086  0.0864 -0.5258 -0.8956
13776TIP3    H162819   4.480   1.626   2.129  0.6535 -1.7317  1.6900
13776TIP3    H262820   4.554   1.496   2.151  2.3584 -1.5413 -2.4227
13777TIP3   OH262821   4.016   5.726   3.560  0.1213 -0.2585 -0.4538
13777TIP3    H162822   4.066   5.652   3.525  1.6724  0.3867  0.3113
13777TIP3    H262823   4.057   5.803   3.520 -0.5167  0.2595 -0.1164
13778TIP3   OH262824   0.568   3.133   2.037 -0.2929  0.5404 -0.6482
13778TIP3    H162825   0.613   3.102   1.959  0.1980  3.4416 -1.5834
13778TIP3    H262826   0.475   3.130   2.014 -0.2955 -0.7284 -0.5071
13779TIP3   OH262827   5.980   0.441  12.910  0.1338  0.1632  0.5608
13779TIP3    H162828   5.965   0.347  12.918  0.1247 -0.0588 -1.6944
13779TIP3    H262829   6.036   0.463  12.985 -1.2863 -1.2948  2.0820
13780TIP3   OH262830   4.071   5.216   0.640  0.2823  0.1503  0.1630
13780TIP3    H162831   3.993   5.198   0.587  0.5727 -2.1547  0.4972
13780TIP3    H262832   4.141   5.230   0.577  0.0080  0.3184 -0.1053
13781TIP3   OH262833   3.744   5.652  12.160  0.3537 -0.0462  0.5932
13781TIP3    H162834   3.728   5.744  12.140 -1.2389 -0.4731 -0.1813
13781TIP3    H262835   3.803   5.622  12.090 -0.9513 -0.1874 -0.4626
13782TIP3   OH262836   4.650   1.934   3.325 -0.0876 -0.0710  0.5199
13782TIP3    H162837   4.573   1.932   3.268 -0.3917  0.6880  0.9024
13782TIP3    H262838   4.705   1.862   3.294 -0.3495  0.2029 -0.5991
13783TIP3   OH262839   4.802   0.605  14.799 -0.2672  0.3744  0.5464
13783TIP3    H162840   4.807   0.512  14.776  0.0610  0.7088 -0.7489
13783TIP3    H262841   4.711   0.629  14.781 -0.1851  0.4727  0.2758
13784TIP3   OH262842   2.440   3.409  15.990  0.1732 -0.2781  0.0182
13784TIP3    H162843   2.356   3.363  15.996  0.0682  0.0629  1.4431
13784TIP3    H262844   2.497   3.362  16.051  1.2683 -0.9930 -1.5166
13785TIP3   OH262845   5.945   3.289  13.733  0.1269 -0.6497 -0.1972
13785TIP3    H162846   5.904   3.372  13.707 -1.3501 -0.2023  3.2505
13785TIP3    H262847   5.873   3.228  13.743  0.9353 -1.5926  0.0050
13786TIP3   OH262848   5.796   2.687   4.767 -0.0922  0.1385 -0.3377
13786TIP3    H162849   5.839   2.700   4.851 -0.9624 -0.1069  0.1402
13786TIP3    H262850   5.708   2.657   4.788  0.6012 -2.7964 -1.3430
13787TIP3   OH262851   2.451   0.296  15.645  0.7269  0.0758 -0.1351
13787TIP3    H162852   2.523   0.234  15.630  1.4617  0.7333  0.5932
13787TIP3    H262853   2.448   0.349  15.566  0.0240 -0.9345 -0.8109
13788TIP3   OH262854   1.062   1.162   0.541  0.2640 -0.0885  0.0342
13788TIP3    H162855   0.969   1.180   0.548  0.0815 -1.1050  0.2870
13788TIP3    H262856   1.088   1.199   0.457 -0.8911 -2.0020 -1.1838
13789TIP3   OH262857   0.983   4.930   1.467  0.4544 -0.7925 -0.1817
13789TIP3    H162858   0.901   4.883   1.480  0.0639 -0.2153 -0.5250
13789TIP3    H262859   1.041   4.898   1.536 -0.7798  0.4160  1.4734
13790TIP3   OH262860   0.603   5.377   2.973 -0.3363 -0.5461  0.0415
13790TIP3    H162861   0.523   5.366   2.921 -0.2318 -1.0065 -0.0224
13790TIP3    H262862   0.574   5.372   3.064 -0.4938  0.0812  0.0298
13791TIP3   OH262863   4.853   2.078  14.353 -0.3351 -0.1399  0.0094
13791TIP3    H162864   4.916   2.121  14.295  0.3416  0.0685  0.8994
13791TIP3    H262865   4.783   2.142  14.365 -0.7614 -0.3947 -1.0250
13792TIP3   OH262866   0.930   5.857   4.918  0.3014  0.3553  0.1435
13792TIP3    H162867   0.948   5.940   4.962 -0.5297  0.9151 -0.5539
13792TIP3    H262868   0.926   5.880   4.825  0.1554 -0.4811 -0.0557
13793TIP3   OH262869   0.236   2.878  10.918  1.0097 -0.0037  0.0115
13793TIP3    H162870   0.236   2.930  10.838  1.8170 -1.7973 -1.1869
13793TIP3    H262871   0.318   2.829  10.915 -0.2085 -2.1450  0.5348
13794TIP3   OH262872   3.791   2.607  12.305 -0.1684 -0.3361 -0.1173
13794TIP3    H162873   3.752   2.693  12.316  2.4638  1.0182 -0.9320
13794TIP3    H262874   3.748   2.569  12.229  1.0376  1.7020 -1.8597
13795TIP3   OH262875   2.648   1.797   4.675 -0.5233 -0.1382 -0.0966
13795TIP3    H162876   2.740   1.789   4.649 -0.1860  0.2543  0.9298
13795TIP3    H262877   2.640   1.740   4.752 -0.9402  0.4516  0.2977
13796TIP3   OH262878   5.570   0.332  14.266  0.5121  0.2488 -0.5038
13796TIP3    H162879   5.546   0.338  14.359  0.1985  1.3347 -0.6524
13796TIP3    H262880   5.534   0.411  14.227  0.0652 -0.5323 -1.6891
13797TIP3   OH262881   0.550   0.280   2.828 -0.8609  0.0379 -0.7201
13797TIP3    H162882   0.569   0.206   2.887  0.6915  0.9598 -0.0407
13797TIP3    H262883   0.628   0.289   2.774 -0.6724  1.7454 -0.1990
13798TIP3   OH262884   6.115   2.375   2.023  0.3470  0.1676 -0.1574
13798TIP3    H162885   6.096   2.351   1.932  0.0148 -2.1806  0.4830
13798TIP3    H262886   6.210   2.383   2.026  0.3706  0.0933 -0.6761
13799TIP3   OH262887   2.635   5.650  12.769 -0.1748  0.1739  0.3078
13799TIP3    H162888   2.620   5.728  12.716 -0.7544 -1.1853 -1.6057
13799TIP3    H262889   2.724   5.622  12.745  0.3707  0.7001  1.6341
13800TIP3   OH262890   5.659   3.631  14.464 -0.2656  0.0441 -0.4082
13800TIP3    H162891   5.597   3.703  14.471  0.5613  0.8664 -1.4391
13800TIP3    H262892   5.604   3.553  14.456 -1.1661  0.3827  2.0606
13801TIP3   OH262893   0.599   1.742   5.881 -0.1222 -0.6559 -0.7530
13801TIP3    H162894   0.569   1.659   5.917  0.5494 -0.7767 -0.4678
13801TIP3    H262895   0.687   1.754   5.917 -0.7520  0.8771  0.3650
13802TIP3   OH262896   1.893   5.998   0.158 -0.4382  0.1281 -0.1136
13802TIP3    H162897   1.810   5.971   0.120 -1.0953  0.5983  0.9716
13802TIP3    H262898   1.946   6.025   0.083 -1.6132  0.7750 -0.7222
13803TIP3   OH262899   4.053   2.067   6.464  0.1615 -0.1473 -0.0350
13803TIP3    H162900   4.035   1.979   6.494 -0.2951 -0.1732 -0.3788
13803TIP3    H262901   4.147   2.068   6.447  0.2706 -0.3839  0.5474
13804TIP3   OH262902   0.038   1.905  14.507  0.7002 -0.0940 -0.0348
13804TIP3    H162903  -0.054   1.881  14.504  0.5877  0.4765 -1.4871
13804TIP3    H262904   0.064   1.890  14.598 -0.6882 -0.7308  0.2628
13805TIP3   OH262905   3.746   4.092   0.768  0.2745  0.5967 -0.6164
13805TIP3    H162906   3.764   4.006   0.807 -1.3855  0.2993 -0.4854
13805TIP3    H262907   3.700   4.072   0.687  0.5640  1.3435 -0.9651
13806TIP3   OH262908   6.006   1.420  10.683 -0.7691 -0.6486  0.0597
13806TIP3    H162909   6.008   1.399  10.589  1.3355  0.2224 -0.1269
13806TIP3    H262910   6.020   1.514  10.687 -3.1811 -0.2929  1.1938
13807TIP3   OH262911   2.460   2.722  15.093  0.5268  0.3250 -0.0386
13807TIP3    H162912   2.372   2.749  15.067  0.0921  0.0042  1.0532
13807TIP3    H262913   2.477   2.643  15.042  0.1063  0.2845 -0.1204
13808TIP3   OH262914   0.345   0.115   4.477  0.0927  0.1004  0.2288
13808TIP3    H162915   0.421   0.116   4.535 -0.9270  0.9439  1.5817
13808TIP3    H262916   0.282   0.173   4.520 -1.9697 -1.9273  0.0001
13809TIP3   OH262917   1.428   3.665   3.809 -0.3558  0.5533 -0.5307
13809TIP3    H162918   1.470   3.667   3.723 -1.4246  0.5326 -1.0634
13809TIP3    H262919   1.342   3.627   3.792  0.1314 -1.1927  0.8649
13810TIP3   OH262920   2.524   6.425  14.768  0.1222 -0.2720 -0.2539
13810TIP3    H162921   2.490   6.489  14.706 -0.0630  0.0838  0.2135
13810TIP3    H262922   2.600   6.468  14.807 -1.2622  0.5124  1.6256
13811TIP3   OH262923   4.566   0.269   2.435  0.0329 -0.5679 -0.2496
13811TIP3    H162924   4.616   0.200   2.392  0.5254 -1.2712  1.4331
13811TIP3    H262925   4.506   0.301   2.367  3.6970  1.3092 -2.8138
13812TIP3   OH262926   4.469   4.916  11.852 -0.8185 -0.0297 -0.1329
13812TIP3    H162927   4.448   4.941  11.762 -1.1512  2.6302  0.6277
13812TIP3    H262928   4.390   4.936  11.901 -0.7608 -1.8003  0.7251
13813TIP3   OH262929   5.514   5.944  12.062  0.3016  0.2676 -0.3105
13813TIP3    H162930   5.421   5.932  12.041  0.4372 -0.4309 -0.5344
13813TIP3    H262931   5.515   6.011  12.131 -0.5104 -1.1001  1.0664
13814TIP3   OH262932   2.112   3.905   0.864  0.4358  0.1075 -0.0730
13814TIP3    H162933   2.138   3.859   0.784  2.2790  2.6106 -0.9680
13814TIP3    H262934   2.019   3.923   0.853  0.8774  1.2412 -2.0916
13815TIP3   OH262935   1.810   5.436  11.253  0.2772 -0.0788  0.1190
13815TIP3    H162936   1.820   5.364  11.315 -0.5026 -0.9386 -0.7392
13815TIP3    H262937   1.887   5.491  11.266  0.4799 -0.6515  1.3307
13816TIP3   OH262938   0.747   5.159  11.400 -0.5523  0.4443 -0.3882
13816TIP3    H162939   0.669   5.214  11.403 -0.6289  0.2192  3.2338
13816TIP3    H262940   0.720   5.075  11.438  1.2471  0.1571  0.3225
13817TIP3   OH262941   0.093   5.208  13.229 -0.6921  0.2116  0.3492
13817TIP3    H162942   0.042   5.226  13.151 -0.2703  1.5738  0.3722
13817TIP3    H262943   0.061   5.271  13.294  1.1344  1.2108  0.3067
13818TIP3   OH262944   4.153   1.448  16.024 -0.2452 -0.3363 -0.3090
13818TIP3    H162945   4.219   1.387  15.990  0.3426 -0.2462  0.6561
13818TIP3    H262946   4.071   1.399  16.023  0.0071 -0.7471 -0.6558
13819TIP3   OH262947   2.957   5.897  14.170  0.5178 -0.3757 -0.1704
13819TIP3    H162948   2.976   5.909  14.263  1.3993  0.3086 -0.4230
13819TIP3    H262949   3.040   5.866  14.132  1.0970  2.2623 -1.2213
13820TIP3   OH262950   4.523   5.441   5.779 -0.3048 -0.8452 -0.3400
13820TIP3    H162951   4.494   5.509   5.718  1.1151 -2.6838 -3.1363
13820TIP3    H262952   4.470   5.365   5.758  0.0442 -1.4591  0.9150
13821TIP3   OH262953   3.012   5.303  15.214  0.0028 -0.5106  0.2945
13821TIP3    H162954   3.052   5.228  15.170 -1.7085 -0.9660 -0.5319
13821TIP3    H262955   2.922   5.274  15.232 -1.2930  2.0368 -1.8111
13822TIP3   OH262956   6.494   6.574   4.967 -0.2161 -0.0022  0.3509
13822TIP3    H162957   6.535   6.591   5.052  1.4455  0.1974 -0.4734
13822TIP3    H262958   6.522   6.485   4.945  2.5826  1.3211 -1.7491
13823TIP3   OH262959   4.444   1.739  13.442 -0.0590 -0.1365 -0.5958
13823TIP3    H162960   4.402   1.803  13.385 -0.7365 -0.3976 -0.4054
13823TIP3    H262961   4.481   1.674  13.382  1.2452  0.7945 -0.8159
13824TIP3   OH262962   5.588   0.421  14.673 -0.4711  0.6788  0.1507
13824TIP3    H162963   5.680   0.426  14.702 -0.6595 -1.3435  1.1682
13824TIP3    H262964   5.538   0.454  14.748 -0.6155  1.2620 -0.2002
13825TIP3   OH262965   4.291   6.146  12.039  0.1469 -0.4117  0.1455
13825TIP3    H162966   4.227   6.097  11.988  1.0790  0.1137 -1.5749
13825TIP3    H262967   4.374   6.100  12.025  0.6090  0.3343  0.3670
13826TIP3   OH262968   4.996   5.931  11.747 -0.0684  0.6486  0.5378
13826TIP3    H162969   4.909   5.917  11.785  0.1527  1.7054  1.4360
13826TIP3    H262970   4.988   5.898  11.657 -1.9365  2.3646  0.0312
13827TIP3   OH262971   0.806   2.052   1.648  0.1357 -0.3918 -0.6163
13827TIP3    H162972   0.844   1.970   1.677  3.1366 -0.0812 -3.4301
13827TIP3    H262973   0.798   2.043   1.553 -2.1493  1.5121 -0.6571
13828TIP3   OH262974   6.118   1.485   5.057 -0.6093 -0.2651  0.0189
13828TIP3    H162975   6.077   1.474   5.143 -0.5160 -0.1170  0.0827
13828TIP3    H262976   6.064   1.432   4.998  0.9961 -2.6701  0.6606
13829TIP3   OH262977   3.759   3.051   3.141  0.3359 -0.3819 -0.7704
13829TIP3    H162978   3.842   3.089   3.170 -0.1405 -0.2741  0.5208
13829TIP3    H262979   3.726   3.112   3.076  0.6937  0.2133 -0.4041
13830TIP3   OH262980   1.713   5.493   5.863 -0.3850 -0.8274 -0.4407
13830TIP3    H162981   1.784   5.453   5.913  1.8216  1.3976 -1.6962
13830TIP3    H262982   1.736   5.478   5.772 -0.1183  2.1600 -0.9280
13831TIP3   OH262983   5.320   0.588   3.888 -0.1797 -0.1343  0.1625
13831TIP3    H162984   5.330   0.561   3.797  0.4676 -0.2572  0.2661
13831TIP3    H262985   5.356   0.514   3.939  0.6434  0.4710  0.4764
13832TIP3   OH262986   2.206   5.698  13.338  0.0357 -0.1913  0.1525
13832TIP3    H162987   2.114   5.671  13.335 -0.0116 -0.1013  0.7918
13832TIP3    H262988   2.253   5.619  13.367  0.1892 -0.2986 -0.3731
13833TIP3   OH262989   0.827   5.731  15.584  0.6666  0.6234  0.4896
13833TIP3    H162990   0.801   5.699  15.670  1.0369  0.4806  0.5505
13833TIP3    H262991   0.922   5.717  15.580  0.8451  1.7721  0.5374
13834TIP3   OH262992   5.895   5.570   0.312 -0.1447 -0.1540  0.2017
13834TIP3    H162993   5.803   5.583   0.289 -0.0173  0.4731  0.0330
13834TIP3    H262994   5.939   5.648   0.278  0.4429 -0.4335  0.3177
13835TIP3   OH262995   5.371   5.073   5.631 -0.1761 -0.0059 -0.0618
13835TIP3    H162996   5.437   5.117   5.684  1.8732 -1.6136 -1.1970
13835TIP3    H262997   5.325   5.144   5.586 -0.9530  1.2755  2.6779
13836TIP3   OH262998   5.506   1.436  10.572 -0.3063 -0.1977 -0.7119
13836TIP3    H162999   5.588   1.388  10.585 -0.6986 -0.7523 -0.2576
13836TIP3    H263000   5.484   1.470  10.659 -0.6219 -0.1545 -0.8076
13837TIP3   OH263001   1.966   4.534  17.264 -0.6116  0.2206  0.2447
13837TIP3    H163002   2.060   4.532  17.278 -0.6247 -0.1738  0.2799
13837TIP3    H263003   1.941   4.442  17.251 -0.5981  0.5182 -2.2686
13838TIP3   OH263004   4.937   5.597   0.800  0.2766  0.0863 -0.3898
13838TIP3    H163005   5.025   5.618   0.832  0.4347 -0.1904 -0.6376
13838TIP3    H263006   4.921   5.508   0.833 -1.2821  1.3936  2.5538
13839TIP3   OH263007   5.106   1.368  15.206 -0.1868  0.1762 -0.3839
13839TIP3    H163008   5.036   1.429  15.182  0.6007  0.8948 -0.8709
13839TIP3    H263009   5.159   1.415  15.270  0.9288  0.3568 -1.4092
13840TIP3   OH263010   6.395   1.609  14.299  0.3479 -0.2513  0.7650
13840TIP3    H163011   6.433   1.630  14.385  1.6536 -0.7336  0.3171
13840TIP3    H263012   6.452   1.653  14.236  0.3554 -1.2593  0.0569
13841TIP3   OH263013   5.811   5.288  14.803  0.8827 -0.3013 -0.3185
13841TIP3    H163014   5.808   5.242  14.718 -1.7394 -0.7181 -0.0307
13841TIP3    H263015   5.785   5.221  14.867  0.1106  0.7372  0.4731
13842TIP3   OH263016   6.737   5.692   5.718 -0.7215  0.4648 -0.0569
13842TIP3    H163017   6.683   5.737   5.653  0.9998 -0.0568 -1.8924
13842TIP3    H263018   6.725   5.599   5.699  0.5876  0.3349 -0.3028
13843TIP3   OH263019   3.560   5.300  11.602 -0.3464  0.0435  0.6546
13843TIP3    H163020   3.506   5.225  11.627 -1.1426  0.7111  0.9668
13843TIP3    H263021   3.498   5.373  11.598  0.1969  0.4374 -0.8951
13844TIP3   OH263022   4.648   4.906  14.193 -0.4996 -0.2334  0.1555
13844TIP3    H163023   4.601   4.987  14.175 -0.9984 -0.4105  0.6690
13844TIP3    H263024   4.739   4.934  14.208 -1.0077  0.4379  2.1106
13845TIP3   OH263025   1.625   6.093  12.771  0.4616 -0.3864  0.6949
13845TIP3    H163026   1.656   6.169  12.721  1.0496 -0.6854  0.5952
13845TIP3    H263027   1.631   6.020  12.710  2.3442 -0.9783  1.5493
13846TIP3   OH263028   3.611   5.582   0.805  0.4256  0.4286  0.5215
13846TIP3    H163029   3.563   5.524   0.747  1.3673  0.1637  0.0023
13846TIP3    H263030   3.548   5.649   0.829 -0.1665  0.1594 -0.2647
13847TIP3   OH263031   3.244   0.803   5.885  0.3697  0.4748 -0.0328
13847TIP3    H163032   3.326   0.848   5.862  0.3468 -0.2996 -1.7157
13847TIP3    H263033   3.236   0.733   5.820 -1.2767  0.0989  0.5484
13848TIP3   OH263034   0.518   5.947  11.885 -0.2050  0.0166  0.1305
13848TIP3    H163035   0.473   6.000  11.951  0.1450  0.6549 -0.1371
13848TIP3    H263036   0.552   5.872  11.934  0.1803  0.5588  0.7097
13849TIP3   OH263037   1.333   2.329   0.325  0.0232  0.9234  0.3086
13849TIP3    H163038   1.353   2.388   0.252  0.6668 -0.4540 -0.6505
13849TIP3    H263039   1.258   2.278   0.295  0.3686  0.2658  0.5525
13850TIP3   OH263040   3.527   5.682  13.797 -0.1672  0.0075  0.0201
13850TIP3    H163041   3.465   5.696  13.725 -0.6848  0.3280  0.5279
13850TIP3    H263042   3.607   5.651  13.754 -0.6649 -0.3720 -0.6432
13851TIP3   OH263043   2.647   1.056  13.385 -0.1292 -0.4939 -0.1933
13851TIP3    H163044   2.680   1.129  13.332  1.1110 -0.5169  0.5275
13851TIP3    H263045   2.719   1.035  13.444 -1.8089  0.1906  2.1805
13852TIP3   OH263046   4.148   1.721   4.666  0.7318 -0.3035  0.1181
13852TIP3    H163047   4.236   1.746   4.637  0.0268  0.3402 -1.5193
13852TIP3    H263048   4.155   1.627   4.685  1.7727 -0.2550  0.0146
13853TIP3   OH263049   1.112   3.043  14.074  0.7571 -0.7762  0.2666
13853TIP3    H163050   1.137   3.084  14.157 -0.4122  0.5138 -0.0092
13853TIP3    H263051   1.030   2.997  14.093  1.2383 -1.6873  0.1766
13854TIP3   OH263052   1.800   2.715  15.639 -0.5725  0.6150  0.1238
13854TIP3    H163053   1.788   2.693  15.732  1.8977  2.4063  0.9070
13854TIP3    H263054   1.784   2.809  15.635  2.5323  1.1705 -0.6158
13855TIP3   OH263055   4.185   3.655   0.917 -0.2654  0.1097 -0.3684
13855TIP3    H163056   4.192   3.734   0.862 -2.2726 -1.2389 -2.6192
13855TIP3    H263057   4.208   3.583   0.858 -0.1868 -1.1623  1.2049
13856TIP3   OH263058   0.490   3.400   2.677  0.3791  0.2797  0.2680
13856TIP3    H163059   0.498   3.332   2.610  0.1577  1.0325 -0.5290
13856TIP3    H263060   0.473   3.352   2.757  0.1077 -0.6029 -0.3083
13857TIP3   OH263061   5.146   5.877   0.459  0.0251 -0.0641  0.0716
13857TIP3    H163062   5.051   5.876   0.447  0.2233 -0.1693 -1.6035
13857TIP3    H263063   5.171   5.967   0.439  0.1644  0.2428  1.5708
13858TIP3   OH263064   6.692   3.917   2.357 -0.1793  0.6870  0.0068
13858TIP3    H163065   6.705   3.995   2.303 -0.9256  0.5337 -0.4010
13858TIP3    H263066   6.681   3.846   2.295 -1.2762  0.5472  0.3553
13859TIP3   OH263067   2.657   2.457   1.488  0.6721 -0.4944  0.2464
13859TIP3    H163068   2.726   2.523   1.483 -0.1590  0.3941  0.5393
13859TIP3    H263069   2.666   2.407   1.406 -0.9511  2.2216 -1.6641
13860TIP3   OH263070   1.359   0.496  16.331  0.5428  0.3242 -0.1611
13860TIP3    H163071   1.290   0.549  16.372  1.8305  1.7180  0.2415
13860TIP3    H263072   1.312   0.439  16.270 -0.9371  1.5544 -0.2031
13861TIP3   OH263073   4.242   2.624  14.436  0.2780  0.1206 -0.4626
13861TIP3    H163074   4.226   2.531  14.420  0.6382 -0.2019  0.9553
13861TIP3    H263075   4.291   2.625  14.518  0.7168  1.5390 -0.7415
13862TIP3   OH263076   2.518   0.318   0.754  0.2493 -0.8197 -0.1007
13862TIP3    H163077   2.455   0.336   0.824  2.7071  0.2508  1.8756
13862TIP3    H263078   2.477   0.354   0.675 -1.4458  0.1699  1.2056
13863TIP3   OH263079   6.381   4.893  10.454 -0.5672 -0.0433  0.1380
13863TIP3    H163080   6.384   4.952  10.529  1.5996 -1.6340  1.3670
13863TIP3    H263081   6.466   4.905  10.411 -1.8979  1.1071 -2.3276
13864TIP3   OH263082   6.316   4.384   5.839 -0.1571  0.2837 -0.2250
13864TIP3    H163083   6.299   4.298   5.801  0.2481  0.7217 -1.4358
13864TIP3    H263084   6.297   4.374   5.932 -0.9973 -0.8668 -0.5154
13865TIP3   OH263085   2.293   4.202   3.501  0.2178  0.8456  0.3891
13865TIP3    H163086   2.261   4.194   3.591 -2.3940  3.1163 -0.2715
13865TIP3    H263087   2.361   4.270   3.505 -0.1818  1.2324  0.5721
13866TIP3   OH263088   2.822   6.569   2.370 -0.2839 -0.5267  0.0771
13866TIP3    H163089   2.744   6.624   2.382 -0.5280 -0.6844 -0.7465
13866TIP3    H263090   2.868   6.610   2.296  0.6902 -0.1172  0.9057
13867TIP3   OH263091   6.408   2.314   0.333 -0.3086  0.2358 -0.7960
13867TIP3    H163092   6.497   2.346   0.344 -0.3658 -0.5439  2.2684
13867TIP3    H263093   6.377   2.356   0.252  2.1588  1.9843 -0.8752
13868TIP3   OH263094   0.836   1.798   6.022  0.2802  0.1848 -0.2315
13868TIP3    H163095   0.912   1.837   6.064 -0.6999  1.2236  0.6263
13868TIP3    H263096   0.804   1.733   6.084 -0.4286  0.8280  0.0810
13869TIP3   OH263097   3.825   3.453  12.008  0.4779  0.4405  0.2644
13869TIP3    H163098   3.757   3.515  12.034  0.2016  0.0777  0.4186
13869TIP3    H263099   3.851   3.481  11.920 -0.9753 -0.3450 -0.4327
13870TIP3   OH263100   5.530   4.489  16.274 -0.4928 -0.2518  0.5260
13870TIP3    H163101   5.531   4.584  16.262  2.1345 -0.5563 -2.2618
13870TIP3    H263102   5.610   4.470  16.323  0.6836 -1.2725 -1.7004
13871TIP3   OH263103   1.813   1.503  13.556  0.0888 -0.1305  0.5046
13871TIP3    H163104   1.797   1.585  13.604 -0.7004  0.8914 -1.4159
13871TIP3    H263105   1.785   1.523  13.466  2.3748 -1.6865 -0.5918
13872TIP3   OH263106   3.099   6.581  10.468  0.8041 -0.2051 -0.4922
13872TIP3    H163107   3.055   6.503  10.437  0.5696  0.5946 -2.2300
13872TIP3    H263108   3.189   6.553  10.486  0.4411 -1.1065 -0.0670
13873TIP3   OH263109   4.615   5.598  16.323  0.3510 -0.0203  0.2726
13873TIP3    H163110   4.552   5.643  16.380 -1.2374  0.7574 -2.0006
13873TIP3    H263111   4.675   5.666  16.294  1.4718 -0.5151  1.4185
13874TIP3   OH263112   3.959   4.798   2.042 -0.6408 -0.0329 -0.8777
13874TIP3    H163113   4.021   4.733   2.011 -0.8448 -0.1374 -1.0635
13874TIP3    H263114   3.972   4.800   2.137  0.5350  0.8542 -1.0499
13875TIP3   OH263115   0.652   1.712  16.362  0.4886  0.7183  0.5925
13875TIP3    H163116   0.738   1.753  16.362  2.1760 -2.6655 -0.0401
13875TIP3    H263117   0.658   1.643  16.428 -1.7717  0.4649  0.5851
13876TIP3   OH263118   1.682   2.019  13.587 -0.1359 -0.4138  0.2639
13876TIP3    H163119   1.620   1.946  13.587 -0.2986 -0.2746  0.1295
13876TIP3    H263120   1.721   2.017  13.499 -2.3071  1.5119 -0.8014
13877TIP3   OH263121   4.313   4.518  12.870 -0.0791  0.4092 -0.4342
13877TIP3    H163122   4.254   4.541  12.798 -2.0765  0.9020  1.3400
13877TIP3    H263123   4.360   4.599  12.890 -0.5382  0.6217 -0.2325
13878TIP3   OH263124   6.782   2.768   1.016 -0.8639  0.3855  0.2315
13878TIP3    H163125   6.764   2.775   0.922 -0.9484  0.9027  0.2872
13878TIP3    H263126   6.798   2.858   1.044  1.4352  0.0077  0.2664
13879TIP3   OH263127   4.612   5.359  13.525  0.4606  0.2578 -0.1042
13879TIP3    H163128   4.628   5.425  13.593  1.5152  0.4164 -0.5074
13879TIP3    H263129   4.699   5.336  13.493  0.1650 -1.8853  0.5524
13880TIP3   OH263130   3.617   6.010   0.326 -0.1985  0.2515 -0.5652
13880TIP3    H163131   3.553   6.081   0.323 -0.4726 -0.0058 -0.7818
13880TIP3    H263132   3.612   5.977   0.416 -0.9996 -0.3472 -0.8269
13881TIP3   OH263133   3.405   3.435  15.768  0.4132  0.4343  0.0052
13881TIP3    H163134   3.348   3.510  15.750  0.7227  0.2621 -1.7524
13881TIP3    H263135   3.416   3.436  15.864 -1.5942  1.1491  0.2602
13882TIP3   OH263136   6.545   4.750  12.059  0.2336  0.1185  0.6477
13882TIP3    H163137   6.529   4.690  11.986 -1.4154  0.0330  1.0658
13882TIP3    H263138   6.629   4.791  12.038  1.0870 -1.8829  0.0651
13883TIP3   OH263139   2.125   2.853   6.379 -0.0715 -0.5616  0.4097
13883TIP3    H163140   2.201   2.883   6.429  0.0865 -0.4581  0.1128
13883TIP3    H263141   2.052   2.854   6.441  0.6619 -3.0582  1.3526
13884TIP3   OH263142   2.575   0.081   0.626  0.2252  0.1979 -0.1217
13884TIP3    H163143   2.559   0.167   0.664  1.6139  0.2618  0.3525
13884TIP3    H263144   2.649   0.046   0.676 -0.3063 -1.2558 -0.3254
13885TIP3   OH263145   4.414   3.706   1.396 -0.9844 -0.2337  0.3545
13885TIP3    H163146   4.382   3.689   1.307  1.0018 -2.2015 -0.0345
13885TIP3    H263147   4.481   3.773   1.385 -1.6338  0.4490  0.5426
13886TIP3   OH263148   3.920   5.523   5.768  0.6585 -0.3968 -0.2490
13886TIP3    H163149   3.895   5.533   5.860 -1.0275 -0.0667 -0.7188
13886TIP3    H263150   3.902   5.430   5.750 -1.1690  0.0496 -0.8362
13887TIP3   OH263151   1.049   2.248   1.990 -0.6566  0.4090  0.0831
13887TIP3    H163152   1.115   2.288   2.047 -3.2837  1.6177  2.3593
13887TIP3    H263153   1.027   2.317   1.927  0.0522  0.0905 -0.5181
13888TIP3   OH263154   1.842   1.009  14.977 -0.1082  0.5453  0.6611
13888TIP3    H163155   1.867   0.917  14.964 -0.3744  0.6075 -0.3520
13888TIP3    H263156   1.768   1.004  15.038  0.7447  0.1877  1.6746
13889TIP3   OH263157   5.348   2.258   1.853  0.0993  0.3138  0.0526
13889TIP3    H163158   5.303   2.174   1.846  0.1124  0.3455 -0.4572
13889TIP3    H263159   5.324   2.305   1.773  0.6699  0.5117 -0.0088
13890TIP3   OH263160   6.214   5.434   4.178 -0.4331  0.1546 -0.4109
13890TIP3    H163161   6.151   5.482   4.231 -0.0367  0.0171  0.1883
13890TIP3    H263162   6.283   5.498   4.159  0.0972 -0.1634  0.3916
13891TIP3   OH263163   4.713   3.471   3.135  0.2794 -0.0894 -0.7746
13891TIP3    H163164   4.705   3.387   3.090  0.2553 -0.8054  0.5565
13891TIP3    H263165   4.793   3.510   3.097 -0.0002 -0.4598 -1.7743
13892TIP3   OH263166   0.919   3.443  16.570  0.0598 -0.0956  0.0786
13892TIP3    H163167   1.006   3.415  16.598  0.6913  2.5139  0.9263
13892TIP3    H263168   0.925   3.452  16.475  1.0532  1.0944  0.2413
13893TIP3   OH263169   1.158   0.606   5.806  0.0799  0.1954 -0.1521
13893TIP3    H163170   1.067   0.584   5.784  0.5888 -1.1344 -0.9980
13893TIP3    H263171   1.163   0.701   5.795 -1.4345  0.4082  0.7835
13894TIP3   OH263172   5.643   4.438  11.237 -0.9242  0.1346 -0.0257
13894TIP3    H163173   5.613   4.484  11.315  0.4977 -0.1389  0.7060
13894TIP3    H263174   5.622   4.496  11.164 -1.3165  0.8559  0.6627
13895TIP3   OH263175   6.776   2.584   4.800  0.3353  0.0627 -0.1607
13895TIP3    H163176   6.698   2.534   4.823  0.4712 -0.0314  0.0880
13895TIP3    H263177   6.815   2.609   4.883  0.3021  0.5328 -0.2837
13896TIP3   OH263178   6.085   6.046  12.502  0.1235  0.2486 -0.5077
13896TIP3    H163179   6.167   6.095  12.508  0.4605 -0.3705  0.0163
13896TIP3    H263180   6.016   6.112  12.510  0.5653  0.8980 -1.9538
13897TIP3   OH263181   3.892   3.228  13.566  0.6932  0.0775  0.1277
13897TIP3    H163182   3.820   3.289  13.580 -0.6467 -1.4763  0.0602
13897TIP3    H263183   3.961   3.257  13.626 -0.6818  0.4354  1.5366
13898TIP3   OH263184   1.831   2.567  10.881 -0.1855  0.1781 -0.7044
13898TIP3    H163185   1.754   2.619  10.855 -0.2429  0.9653  0.9773
13898TIP3    H263186   1.895   2.583  10.812 -0.4228  2.0274 -0.5319
13899TIP3   OH263187   6.144   3.558  10.423  0.7873 -0.2767 -0.3431
13899TIP3    H163188   6.089   3.501  10.477  0.7403  0.1237  0.0362
13899TIP3    H263189   6.088   3.634  10.405  0.8567 -0.3367 -0.8299
13900TIP3   OH263190   4.825   3.472   3.830  1.1245 -0.3364 -0.3507
13900TIP3    H163191   4.743   3.445   3.872  0.4493  1.0307 -0.7824
13900TIP3    H263192   4.808   3.561   3.798  2.7968 -0.0088 -0.3745
13901TIP3   OH263193   1.316   4.382  10.925  0.3412  0.2114 -0.6368
13901TIP3    H163194   1.222   4.369  10.939  0.8829 -0.2605  2.8169
13901TIP3    H263195   1.343   4.305  10.876 -1.1340  0.5716 -2.0805
13902TIP3   OH263196   5.967   2.692   3.896 -0.1250 -0.1734  0.6650
13902TIP3    H163197   5.881   2.731   3.910  0.4912  1.1161  0.8325
13902TIP3    H263198   6.010   2.750   3.833  0.1787 -1.4741 -0.3647
13903TIP3   OH263199   4.738   5.422   5.511  0.2760  0.1666  0.2238
13903TIP3    H163200   4.798   5.423   5.585  0.8437  2.1696 -0.2399
13903TIP3    H263201   4.716   5.514   5.496  0.3602 -0.1898 -2.2456
13904TIP3   OH263202   6.662   6.664  14.870  0.7088  0.2332 -0.5967
13904TIP3    H163203   6.613   6.624  14.797 -0.9643 -0.8399  1.0478
13904TIP3    H263204   6.721   6.595  14.900 -0.2977 -0.1513  0.5546
13905TIP3   OH263205   3.231   2.786  11.738  0.3564 -0.5497 -0.4351
13905TIP3    H163206   3.294   2.804  11.668  1.7581 -1.5707  0.5244
13905TIP3    H263207   3.251   2.852  11.805 -0.4815 -0.0472 -0.6758
13906TIP3   OH263208   2.900   3.127   1.175  0.1003  0.8326  0.2701
13906TIP3    H163209   2.866   3.215   1.157 -3.5026 -0.5377 -0.0349
13906TIP3    H263210   2.843   3.094   1.244  0.2014 -1.9875 -0.9543
13907TIP3   OH263211   4.733   4.673   6.356 -0.5789 -0.6413 -0.3856
13907TIP3    H163212   4.784   4.729   6.414 -0.4284 -0.0710 -1.0599
13907TIP3    H263213   4.783   4.591   6.351 -0.0790 -0.3251 -0.5179
13908TIP3   OH263214   4.820   2.072   2.928 -0.5634 -0.1588 -0.2968
13908TIP3    H163215   4.896   2.025   2.893 -0.2580 -0.8871  1.2871
13908TIP3    H263216   4.789   2.125   2.855  2.8259  1.9114 -0.3212
13909TIP3   OH263217   5.353   5.208  13.291 -0.0961 -0.8763  0.0205
13909TIP3    H163218   5.370   5.123  13.332 -0.8795  1.3882  5.4327
13909TIP3    H263219   5.436   5.256  13.300 -0.6234  0.0613 -0.0674
13910TIP3   OH263220   1.253   4.093   1.069 -0.0217  0.1049  0.1950
13910TIP3    H163221   1.296   4.015   1.033 -0.1238  1.1510 -2.3056
13910TIP3    H263222   1.323   4.142   1.111  0.5815  0.1133 -0.8214
13911TIP3   OH263223   1.453   2.046   1.822  0.0306  0.0314  0.1552
13911TIP3    H163224   1.466   2.130   1.778  1.1110 -0.1146  0.1856
13911TIP3    H263225   1.443   1.983   1.752  1.2688 -0.1275  0.1198
13912TIP3   OH263226   4.413   5.519  10.552 -0.2104 -0.3096 -0.7144
13912TIP3    H163227   4.439   5.429  10.533  0.5776  0.1186 -1.6959
13912TIP3    H263228   4.495   5.567  10.559 -0.6417  0.4240 -0.6366
13913TIP3   OH263229   5.644   0.590   3.382 -0.1598 -0.6571 -0.4444
13913TIP3    H163230   5.606   0.670   3.346 -0.3672 -0.6904 -0.2984
13913TIP3    H263231   5.654   0.609   3.476 -0.4118 -0.8811 -0.3723
13914TIP3   OH263232   2.079   4.644   5.608  0.1781 -0.5320  0.3927
13914TIP3    H163233   1.996   4.611   5.643  0.0959 -2.6101 -1.6189
13914TIP3    H263234   2.146   4.603   5.662 -0.0555  1.7390  2.5112
13915TIP3   OH263235   2.651   6.532   3.477  0.0986 -0.1064 -0.1949
13915TIP3    H163236   2.577   6.591   3.493  0.6186  0.7435 -0.9079
13915TIP3    H263237   2.611   6.457   3.432 -0.5393 -0.2374  0.5748
13916TIP3   OH263238   5.606   4.338   2.978 -0.0304 -0.2566 -0.3205
13916TIP3    H163239   5.648   4.424   2.988 -0.1223 -0.0370 -1.7123
13916TIP3    H263240   5.672   4.284   2.936 -0.7892 -0.1923 -1.5989
13917TIP3   OH263241   3.991   3.742   5.948 -0.0079 -0.5684  0.4167
13917TIP3    H163242   3.932   3.679   5.989 -0.6139  0.6915  1.5209
13917TIP3    H263243   4.025   3.696   5.870 -2.6448 -1.2293 -0.4017
13918TIP3   OH263244   2.518   4.121  14.947 -0.1898  0.1963  0.1746
13918TIP3    H163245   2.484   4.053  15.005 -0.0069 -0.2881 -0.2821
13918TIP3    H263246   2.523   4.079  14.862  1.6892  0.2110  0.2525
13919TIP3   OH263247   1.859   2.138  14.209 -0.3874 -0.1749 -0.4811
13919TIP3    H163248   1.849   2.083  14.286 -1.2945 -0.0400 -0.4899
13919TIP3    H263249   1.880   2.224  14.243 -1.8088  0.1281 -0.3118
13920TIP3   OH263250   0.793   3.206   0.317  0.1575  0.3013  0.3070
13920TIP3    H163251   0.765   3.207   0.408  0.5917  0.1820  0.4383
13920TIP3    H263252   0.871   3.261   0.314  0.5367 -0.2411  0.1317
13921TIP3   OH263253   3.324   2.430   0.812 -0.5100 -0.5557  0.2786
13921TIP3    H163254   3.315   2.396   0.901  0.0410  0.4000  0.7115
13921TIP3    H263255   3.326   2.525   0.823  1.1280 -0.4626 -0.6007
13922TIP3   OH263256   0.569   6.178  12.571 -0.1923  0.2771 -0.1740
13922TIP3    H163257   0.628   6.105  12.551 -0.6728 -0.5593  1.3788
13922TIP3    H263258   0.580   6.192  12.665  0.3656  2.6489 -0.5747
13923TIP3   OH263259   0.326   6.623   3.474  0.4476  0.5052  0.1089
13923TIP3    H163260   0.347   6.690   3.409  0.0360  1.0062  0.4903
13923TIP3    H263261   0.304   6.672   3.553 -0.3949 -0.0584  0.2365
13924TIP3   OH263262   4.026   3.152  12.139  0.1739 -0.0379 -0.3241
13924TIP3    H163263   4.030   3.057  12.139  0.5893 -0.0341 -1.8617
13924TIP3    H263264   3.946   3.172  12.187  0.7785 -1.1152  1.1488
13925TIP3   OH263265   3.813   6.213  15.915  0.3052 -0.4341  0.0734
13925TIP3    H163266   3.873   6.177  15.979  0.7892 -1.3366 -0.8785
13925TIP3    H263267   3.805   6.145  15.848  0.7483  0.9642 -1.4368
13926TIP3   OH263268   3.635   3.029   1.836 -0.4545 -0.3704 -0.0449
13926TIP3    H163269   3.676   3.009   1.753 -1.0821 -1.4214 -0.1015
13926TIP3    H263270   3.543   3.046   1.814 -0.7724 -1.3542  0.5273
13927TIP3   OH263271   0.922   0.503  13.826 -0.2775 -0.1205  0.2604
13927TIP3    H163272   0.864   0.487  13.752 -0.8578 -0.7677  0.8504
13927TIP3    H263273   1.010   0.507  13.787 -0.4522 -1.6751 -0.3189
13928TIP3   OH263274   0.691   2.908   1.212 -0.4507  0.2759 -0.4003
13928TIP3    H163275   0.725   2.819   1.224  0.0293  0.1794 -2.3512
13928TIP3    H263276   0.659   2.933   1.299 -2.2545 -2.4604 -0.2166
13929TIP3   OH263277   4.174   2.222   5.507  0.3883  0.5244  0.4360
13929TIP3    H163278   4.170   2.245   5.599 -0.2853  2.6629 -0.0905
13929TIP3    H263279   4.246   2.275   5.472  0.4867 -0.0951 -0.3243
13930TIP3   OH263280   2.595   5.734   1.266 -0.6419 -0.6005  0.5326
13930TIP3    H163281   2.618   5.792   1.194 -0.9421  1.1821  1.8401
13930TIP3    H263282   2.671   5.736   1.324 -0.8888 -1.0723  0.8820
13931TIP3   OH263283   3.446   1.605  16.876  0.3975  0.0422 -0.8411
13931TIP3    H163284   3.389   1.642  16.809 -0.1916  1.6016  0.4962
13931TIP3    H263285   3.474   1.521  16.840  0.4379  1.0299 -3.2268
13932TIP3   OH263286   4.883   5.914   5.980  0.2093 -0.0897 -0.0861
13932TIP3    H163287   4.927   5.912   6.065  1.0637 -0.3287 -0.5182
13932TIP3    H263288   4.790   5.922   6.000  0.5221  1.4539  0.8376
13933TIP3   OH263289   5.913   4.876  16.281  0.0380 -0.3955 -0.1399
13933TIP3    H163290   5.951   4.807  16.228 -0.0127  0.2009 -0.9679
13933TIP3    H263291   5.873   4.936  16.218  1.3415  1.1602  0.4583
13934TIP3   OH263292   3.300   5.393   5.656 -0.6407  0.7188  0.4782
13934TIP3    H163293   3.359   5.322   5.683 -1.1705  0.4365  0.9106
13934TIP3    H263294   3.285   5.378   5.563 -1.7786 -0.5173  0.8268
13935TIP3   OH263295   0.756   4.009   2.079  0.4923 -0.5225  0.0786
13935TIP3    H163296   0.666   4.018   2.109  0.5535 -1.5347  0.6020
13935TIP3    H263297   0.804   4.075   2.129  0.3474 -1.2350  1.1912
13936TIP3   OH263298   5.550   2.607  16.648 -0.1914  0.4576  0.0890
13936TIP3    H163299   5.569   2.519  16.679 -0.4885  0.6304  0.7878
13936TIP3    H263300   5.625   2.659  16.679  0.0045  0.4405 -0.3616
13937TIP3   OH263301   3.151   4.602   2.824 -0.0485 -0.2571  0.0998
13937TIP3    H163302   3.075   4.626   2.877 -1.1045 -0.7510 -1.1467
13937TIP3    H263303   3.150   4.664   2.751 -0.2639 -1.3370 -0.8332
13938TIP3   OH263304   0.429   6.067   4.150 -0.1120 -0.2202 -0.6248
13938TIP3    H163305   0.378   6.021   4.083  0.7567  0.8882 -2.0776
13938TIP3    H263306   0.444   6.153   4.113  0.5139  0.3710  0.9653
13939TIP3   OH263307   0.187   0.678  11.713  0.0913 -0.0420  0.3249
13939TIP3    H163308   0.255   0.644  11.773 -0.2675 -0.3179  0.5789
13939TIP3    H263309   0.199   0.773  11.715  0.1746 -0.0585  0.7318
13940TIP3   OH263310   0.242   2.526   0.914 -0.2886 -0.4808 -0.5165
13940TIP3    H163311   0.205   2.577   0.986 -2.4896 -0.8325 -1.3667
13940TIP3    H263312   0.312   2.581   0.880 -1.7912  1.4315 -0.6042
13941TIP3   OH263313   3.006   3.834  12.967  0.1093  0.0497 -0.2115
13941TIP3    H163314   2.922   3.819  13.009  0.1863 -0.8921 -0.3843
13941TIP3    H263315   3.037   3.917  13.004 -0.5714  0.0466  0.3712
13942TIP3   OH263316   1.134   4.354  12.308  0.0708  0.1407  0.2616
13942TIP3    H163317   1.066   4.323  12.247  0.5154  0.7581 -0.5484
13942TIP3    H263318   1.106   4.442  12.333  0.3617  0.2340  0.2569
13943TIP3   OH263319   2.721   1.602   5.700 -0.4544  0.5499 -0.6540
13943TIP3    H163320   2.730   1.520   5.749  1.3531  0.6754 -0.7428
13943TIP3    H263321   2.771   1.666   5.752  1.6714  0.6400 -2.7258
13944TIP3   OH263322   5.412   3.774   1.131 -0.1483  0.2346  0.1785
13944TIP3    H163323   5.413   3.826   1.050  0.9714  0.5246  0.3686
13944TIP3    H263324   5.432   3.685   1.103 -1.0926  0.0809 -0.0251
13945TIP3   OH263325   1.929   1.784   4.692 -0.5096 -0.2945  0.3121
13945TIP3    H163326   2.016   1.745   4.703  0.6137  2.5079  1.8740
13945TIP3    H263327   1.945   1.878   4.693 -3.3748  0.2642 -1.3040
13946TIP3   OH263328   2.189   5.121   1.136 -0.0948  0.5578  0.1410
13946TIP3    H163329   2.178   5.065   1.059 -1.5407 -0.9472  1.3990
13946TIP3    H263330   2.274   5.163   1.123  0.8496 -1.6168 -1.0430
13947TIP3   OH263331   2.486   5.125  14.769 -0.2266  0.3865 -0.2460
13947TIP3    H163332   2.580   5.114  14.753 -0.2422 -0.2050  0.0871
13947TIP3    H263333   2.468   5.215  14.740  0.6593  0.8820  0.7047
13948TIP3   OH263334   4.057   5.433  10.418  0.0256  0.4344 -0.1094
13948TIP3    H163335   4.100   5.498  10.362  2.2094 -2.7676 -2.2495
13948TIP3    H263336   4.109   5.431  10.498  1.9658 -1.0283 -1.3739
13949TIP3   OH263337   4.162   1.186  11.165  0.0298 -0.0350  0.1244
13949TIP3    H163338   4.228   1.118  11.172 -0.0498  0.0134  1.3826
13949TIP3    H263339   4.157   1.225  11.252  0.6935  2.1698 -0.7849
13950TIP3   OH263340   2.178   1.389   1.626 -0.2920  0.1792 -0.0745
13950TIP3    H163341   2.184   1.309   1.573 -0.0071  0.4410 -0.4383
13950TIP3    H263342   2.133   1.361   1.706 -0.5301 -0.2656 -0.3596
13951TIP3   OH263343   4.219   1.024   0.792  0.0208 -0.2800  0.0442
13951TIP3    H163344   4.238   0.933   0.814 -2.6856 -1.4538 -2.1991
13951TIP3    H263345   4.257   1.037   0.705 -2.6486 -0.3679 -1.1696
13952TIP3   OH263346   3.652   6.435   4.948 -0.6395 -0.2382  0.4622
13952TIP3    H163347   3.747   6.428   4.940 -0.8451 -4.0453  0.4457
13952TIP3    H263348   3.623   6.460   4.860  0.2890  0.7586  0.4179
13953TIP3   OH263349   4.137   0.787  12.766 -0.1163  0.6248  0.0226
13953TIP3    H163350   4.139   0.805  12.860 -0.3496  0.0553  0.1439
13953TIP3    H263351   4.044   0.783  12.744 -0.0619  0.8093 -0.2402
13954TIP3   OH263352   5.907   0.026   5.192 -0.6704  0.1872  0.1395
13954TIP3    H163353   5.834   0.078   5.159 -0.4251 -0.3978 -1.3321
13954TIP3    H263354   5.985   0.068   5.157 -0.4787 -1.2442 -1.2130
13955TIP3   OH263355   3.851   0.855   0.478 -0.3533  0.5155 -0.3195
13955TIP3    H163356   3.763   0.834   0.446 -0.2411  0.4643 -0.5947
13955TIP3    H263357   3.836   0.907   0.557 -0.6400 -0.5392  0.3368
13956TIP3   OH263358   5.742   3.648  17.288  0.5745 -0.5005 -0.3010
13956TIP3    H163359   5.675   3.642  17.356 -1.0760  2.0226 -1.6186
13956TIP3    H263360   5.733   3.566  17.239  0.6415 -1.5899  1.4945
13957TIP3   OH263361   0.073   1.214  15.959 -0.3967 -0.5351  0.0683
13957TIP3    H163362   0.168   1.227  15.965 -0.2314 -1.4344 -0.4232
13957TIP3    H263363   0.063   1.139  15.900 -1.3857 -0.9242  0.7241
13958TIP3   OH263364   0.598   3.668  13.374 -0.0743  0.3393  0.1316
13958TIP3    H163365   0.544   3.590  13.383 -1.0869  1.0910  0.6565
13958TIP3    H263366   0.567   3.710  13.294 -0.4148  0.8824  0.5437
13959TIP3   OH263367   4.997   1.280   3.604 -0.7022  0.5144 -0.0115
13959TIP3    H163368   4.958   1.293   3.690 -0.0298 -1.3079  0.5828
13959TIP3    H263369   5.069   1.344   3.600 -0.3528  0.1914  1.0237
13960TIP3   OH263370   2.078   6.457  14.297 -0.3303  0.6958 -0.1150
13960TIP3    H163371   2.031   6.540  14.298 -2.3665 -0.4307  1.2983
13960TIP3    H263372   2.099   6.439  14.389 -0.7001 -0.7850 -0.2990
13961TIP3   OH263373   5.454   3.307   4.621  0.6055  0.2664  0.0789
13961TIP3    H163374   5.460   3.311   4.526  0.0383 -2.4375 -0.1210
13961TIP3    H263375   5.361   3.303   4.639  0.7466 -1.4013  0.5795
13962TIP3   OH263376   3.386   1.616  13.431 -0.0448  0.2747  0.1367
13962TIP3    H163377   3.398   1.525  13.458 -2.0847 -0.0652 -0.0179
13962TIP3    H263378   3.395   1.666  13.512  0.4321 -0.1216  0.3306
13963TIP3   OH263379   0.847   5.401   5.934 -0.1373  0.1202  0.2054
13963TIP3    H163380   0.880   5.474   5.882  0.9615 -0.6346 -0.1812
13963TIP3    H263381   0.850   5.433   6.024  0.8600  0.3794  0.0887
13964TIP3   OH263382   6.238   4.719  10.177  0.3904  0.3349 -0.4577
13964TIP3    H163383   6.327   4.685  10.178 -0.0865 -0.9105  1.2565
13964TIP3    H263384   6.184   4.646  10.148 -0.2830  0.5371  0.2691
13965TIP3   OH263385   0.891   2.437   0.100 -0.3431  0.2622 -0.1136
13965TIP3    H163386   0.874   2.498   0.172 -0.5353  0.0609  0.0147
13965TIP3    H263387   0.826   2.368   0.112  0.3473 -0.3499  0.1801
13966TIP3   OH263388   4.245   1.421   1.844 -0.0047  0.0540 -0.0548
13966TIP3    H163389   4.226   1.335   1.882  0.3346  0.6554  1.4876
13966TIP3    H263390   4.309   1.460   1.904  2.2825  0.1098 -2.4340
13967TIP3   OH263391   2.538   3.362   2.140 -0.2853 -0.3210 -0.2903
13967TIP3    H163392   2.579   3.447   2.127  1.3152 -1.1911 -1.0334
13967TIP3    H263393   2.585   3.322   2.213 -0.1474 -1.1076 -0.7991
13968TIP3   OH263394   3.043   0.121  13.818  0.1903  0.1227 -0.1037
13968TIP3    H163395   3.072   0.156  13.733 -1.1800  0.4414 -0.4632
13968TIP3    H263396   3.104   0.158  13.881  1.0683  0.1005 -0.9273
13969TIP3   OH263397   6.662   2.946   4.429 -0.6248  0.0170  0.6999
13969TIP3    H163398   6.674   2.852   4.439  0.9179  0.3884  2.6920
13969TIP3    H263399   6.588   2.955   4.369 -0.1369 -2.4487 -0.3166
13970TIP3   OH263400   5.067   0.267  12.257 -0.2852  0.1191  0.5626
13970TIP3    H163401   5.062   0.172  12.265 -0.1262  0.0770  0.1719
13970TIP3    H263402   5.005   0.300  12.321 -1.5523 -0.2778 -0.4411
13971TIP3   OH263403   1.586   4.819  15.801 -0.2567  0.5038 -0.2028
13971TIP3    H163404   1.652   4.835  15.732  1.6362 -0.8560  1.2416
13971TIP3    H263405   1.598   4.892  15.862 -0.9025  0.8938 -0.5428
13972TIP3   OH263406   2.437   1.626  16.539 -0.1966 -0.1694 -0.2035
13972TIP3    H163407   2.523   1.586  16.529 -0.4254 -0.5711 -0.5330
13972TIP3    H263408   2.380   1.578  16.480 -0.5803  0.3166 -0.2363
13973TIP3   OH263409   2.860   6.204  13.129  0.5405 -0.8159 -0.0184
13973TIP3    H163410   2.932   6.145  13.106  1.4908 -0.3327  1.5766
13973TIP3    H263411   2.797   6.149  13.176 -0.1476 -1.2404 -1.4212
13974TIP3   OH263412   0.115   4.718   2.002  0.4408  0.2194  0.2471
13974TIP3    H163413   0.167   4.754   2.074  0.9143 -1.2183  0.6436
13974TIP3    H263414   0.085   4.794   1.953  4.0237  1.0613 -0.7983
13975TIP3   OH263415   5.040   1.862   0.618 -0.6303  0.6332 -0.3121
13975TIP3    H163416   5.051   1.873   0.523 -2.4821  0.5839 -0.5648
13975TIP3    H263417   5.115   1.810   0.645  1.1635  2.6299 -1.3452
13976TIP3   OH263418   1.577   6.232  13.399 -0.6413 -0.8930  0.2983
13976TIP3    H163419   1.542   6.235  13.488  0.3911  1.2075  0.6528
13976TIP3    H263420   1.512   6.278  13.346 -0.8507 -1.4169  0.0931
13977TIP3   OH263421   4.571   1.234   1.757 -0.2754 -0.3967  0.4747
13977TIP3    H163422   4.605   1.146   1.744 -0.3359 -0.3784  0.1948
13977TIP3    H263423   4.559   1.269   1.669 -0.8278 -0.3243  0.5766
13978TIP3   OH263424   1.964   0.863   1.197  0.5522 -0.7656 -0.7544
13978TIP3    H163425   1.990   0.946   1.238 -1.7503  0.3553 -1.4729
13978TIP3    H263426   2.040   0.839   1.144  1.7988  0.1401  0.5633
13979TIP3   OH263427   2.689   5.015   5.298 -0.5927  0.1288  0.3042
13979TIP3    H163428   2.708   5.084   5.362 -0.7634  1.4584 -1.0431
13979TIP3    H263429   2.774   4.995   5.259 -0.6261 -0.0783  0.3362
13980TIP3   OH263430   4.054   1.798  13.273 -0.2181  0.2503  0.5727
13980TIP3    H163431   4.037   1.753  13.190  1.7862  0.6470 -0.0785
13980TIP3    H263432   4.067   1.727  13.336  1.9742 -0.1306 -0.2523
13981TIP3   OH263433   2.566   3.759   5.219 -0.0521 -0.2659  0.7935
13981TIP3    H163434   2.482   3.793   5.191 -0.6473 -1.8761  0.5487
13981TIP3    H263435   2.569   3.775   5.313 -1.0244 -1.0081  0.9539
13982TIP3   OH263436   6.338   3.085   2.175 -0.0027 -0.2716 -0.1134
13982TIP3    H163437   6.261   3.121   2.130 -0.9094 -1.2828  0.6130
13982TIP3    H263438   6.405   3.079   2.106 -1.3699 -1.8207 -1.3617
13983TIP3   OH263439   4.081   0.525   1.342 -0.0830 -0.6047  0.3105
13983TIP3    H163440   4.084   0.435   1.308 -0.4342  0.1185 -1.7180
13983TIP3    H263441   4.121   0.578   1.273 -0.8551  0.9283  1.0122
13984TIP3   OH263442   5.565   3.626  14.855  0.0652  0.1189  0.4033
13984TIP3    H163443   5.508   3.660  14.924  0.6036  0.4951  0.6628
13984TIP3    H263444   5.621   3.561  14.900  0.3682  0.3134  0.3099
13985TIP3   OH263445   3.375   4.466  13.663 -0.3798  0.3974 -0.2886
13985TIP3    H163446   3.369   4.473  13.568  2.4509  0.5596 -0.4970
13985TIP3    H263447   3.382   4.372  13.680  0.5602  0.4568 -0.3479
13986TIP3   OH263448   4.038   2.207   6.185  0.2024 -0.0185  0.4340
13986TIP3    H163449   3.993   2.267   6.245 -0.5841  1.9006 -1.9919
13986TIP3    H263450   4.000   2.121   6.205 -1.9797  1.0036  0.8539
13987TIP3   OH263451   2.246   5.621   4.991  0.6366 -0.8110 -0.1232
13987TIP3    H163452   2.228   5.661   4.906  0.8114 -0.9299 -0.2176
13987TIP3    H263453   2.181   5.659   5.050 -1.6732 -3.2551 -1.0229
13988TIP3   OH263454   0.912   1.695  11.635  0.1965 -0.5944 -0.0362
13988TIP3    H163455   0.885   1.626  11.696 -1.3138  0.5860  0.6723
13988TIP3    H263456   1.007   1.698  11.643  0.1632 -1.6491  0.9422
13989TIP3   OH263457   2.769   0.899   6.814 -0.1852  0.6638  0.0898
13989TIP3    H163458   2.795   0.988   6.839  1.5100  0.4105 -0.6468
13989TIP3    H263459   2.805   0.888   6.725 -0.1370 -0.8369  0.2852
13990TIP3   OH263460   6.524   5.991   5.282 -0.2324  0.5385 -0.8336
13990TIP3    H163461   6.519   5.989   5.377  1.3966  0.4946 -0.7425
13990TIP3    H263462   6.614   5.964   5.261 -0.3553  1.2189 -2.3451
13991TIP3   OH263463   6.504   3.612  16.890 -0.1842  1.1027  0.0197
13991TIP3    H163464   6.449   3.637  16.816  0.1128 -1.1306 -0.9863
13991TIP3    H263465   6.582   3.572  16.850  0.2398  0.3771  1.5163
13992TIP3   OH263466   3.565   2.427   6.377  0.4557  0.3170 -0.4464
13992TIP3    H163467   3.488   2.467   6.337  0.0627 -0.4192 -0.4465
13992TIP3    H263468   3.541   2.335   6.387  0.4617  0.5068  1.6601
13993TIP3   OH263469   1.442   1.602  10.488  0.2038  0.3933  0.1874
13993TIP3    H163470   1.454   1.514  10.522 -0.4595  0.5330  0.7835
13993TIP3    H263471   1.519   1.617  10.433 -0.4482 -1.1627 -1.2090
13994TIP3   OH263472   5.591   3.876  15.792  0.2202 -0.1556 -0.1324
13994TIP3    H163473   5.623   3.887  15.882 -1.2617 -0.8424  0.4991
13994TIP3    H263474   5.658   3.916  15.738  0.9369  0.6478  1.3090
13995TIP3   OH263475   5.213   4.476   1.139  0.4900 -0.5056  0.0627
13995TIP3    H163476   5.291   4.465   1.084  0.3503 -1.9566  0.1234
13995TIP3    H263477   5.175   4.388   1.143 -1.5514  0.3253 -0.5532
13996TIP3   OH263478   6.360   4.254   3.170  0.2430  0.4588  0.1257
13996TIP3    H163479   6.434   4.197   3.145 -0.4199 -0.0074 -0.8058
13996TIP3    H263480   6.371   4.268   3.264  0.8811 -0.5405  0.2072
13997TIP3   OH263481   5.989   0.917  16.611  0.2094  0.2647 -0.6143
13997TIP3    H163482   5.940   0.960  16.541 -0.7768  0.1619  0.0082
13997TIP3    H263483   6.001   0.827  16.581  0.8236  0.5303 -1.1749
13998TIP3   OH263484   5.051   4.625   2.063  0.4478 -0.1267 -0.4693
13998TIP3    H163485   4.997   4.579   1.999 -0.1683 -0.3411  0.1988
13998TIP3    H263486   5.040   4.718   2.041 -1.5800 -0.0527  0.7145
13999TIP3   OH263487   4.422   0.015  11.541  0.7281 -0.0888 -0.1159
13999TIP3    H163488   4.419  -0.043  11.617  1.0609 -0.6792 -0.5483
13999TIP3    H263489   4.351   0.078  11.556 -0.4720 -1.3922 -0.2768
14000TIP3   OH263490   0.488   2.364  16.379 -0.3891  0.4932 -0.6576
14000TIP3    H163491   0.534   2.314  16.312  0.5147  2.9364 -1.9067
14000TIP3    H263492   0.531   2.339  16.461  1.9216  1.3057 -1.5808
14001TIP3   OH263493   1.602   5.457   4.796  0.3905  0.3421 -0.2215
14001TIP3    H163494   1.682   5.462   4.744 -0.2837 -0.9567 -1.4165
14001TIP3    H263495   1.546   5.396   4.748 -1.4426  1.4611  0.4383
14002TIP3   OH263496   1.905   6.426   5.471 -0.4314 -0.7650 -0.4673
14002TIP3    H163497   1.814   6.395   5.477 -0.4270 -0.4791  1.3340
14002TIP3    H263498   1.898   6.517   5.443 -0.8945  0.2474  2.7447
14003TIP3   OH263499   6.562   6.790   2.537 -0.3291  0.1273  0.1073
14003TIP3    H163500   6.644   6.809   2.492 -1.9202 -0.6297 -3.2916
14003TIP3    H263501   6.530   6.876   2.566  0.8517  0.6075  0.0121
14004TIP3   OH263502   1.748   4.053   1.283  0.0915 -0.0050 -0.4289
14004TIP3    H163503   1.777   3.963   1.296 -1.0191  0.0732  3.0897
14004TIP3    H263504   1.822   4.106   1.312 -0.2113  0.2154 -0.0593
14005TIP3   OH263505   5.775   4.573   2.850  0.1843  0.3664  0.3509
14005TIP3    H163506   5.733   4.602   2.769  0.1969  0.4653  0.3796
14005TIP3    H263507   5.792   4.654   2.898  2.4356  0.5490 -0.6552
14006TIP3   OH263508   3.860   5.755  13.967  0.7466 -0.6959  0.1468
14006TIP3    H163509   3.814   5.725  13.888 -1.5112  0.9967  0.7734
14006TIP3    H263510   3.801   5.735  14.039  1.0978  1.2834  1.0132
14007TIP3   OH263511   4.739   3.225  15.694  0.1343 -0.1806  0.1880
14007TIP3    H163512   4.835   3.227  15.693  0.1898 -1.9287 -0.6479
14007TIP3    H263513   4.714   3.288  15.761  1.7564  2.7373 -1.8663
14008TIP3   OH263514   5.840   1.840  14.746 -0.9768  0.2068  0.1179
14008TIP3    H163515   5.766   1.859  14.689 -0.6910 -1.0733 -0.7261
14008TIP3    H263516   5.917   1.849  14.689 -0.6182 -0.1220  0.5406
14009TIP3   OH263517   5.989   3.910  16.803 -0.3084  0.0619 -0.0737
14009TIP3    H163518   6.071   3.864  16.784  0.4886  1.2700  0.3794
14009TIP3    H263519   6.003   3.999  16.770 -1.1106  0.5229  0.7929
14010TIP3   OH263520   0.652   6.291  17.251  0.7270  0.1153  0.2985
14010TIP3    H163521   0.602   6.290  17.169  0.3935  0.0054  0.5054
14010TIP3    H263522   0.595   6.334  17.314  1.1695  0.6238  0.3560
14011TIP3   OH263523   2.764   1.353  11.738 -0.2592  0.1623 -0.3354
14011TIP3    H163524   2.730   1.404  11.811  1.3118  1.5316 -0.5242
14011TIP3    H263525   2.762   1.263  11.769 -0.3465  0.6496  1.1188
14012TIP3   OH263526   0.516   5.032   1.608  0.4053 -0.7111 -0.1414
14012TIP3    H163527   0.465   5.078   1.675  0.5619  0.2981 -0.6998
14012TIP3    H263528   0.527   5.097   1.538  1.6943 -1.2107 -0.4104
14013TIP3   OH263529   1.424   5.933  12.618 -0.1636  0.6556 -0.2786
14013TIP3    H163530   1.378   5.948  12.701  0.4802  0.4736  0.1150
14013TIP3    H263531   1.402   5.843  12.595  0.7962  0.2329  0.4252
14014TIP3   OH263532   4.228   0.458  16.386  0.0397  0.5232  0.0734
14014TIP3    H163533   4.258   0.418  16.304 -0.4968  0.9977 -0.3596
14014TIP3    H263534   4.196   0.384  16.438  0.1522  0.2504 -0.2404
14015TIP3   OH263535   4.015   4.791   2.889  0.2474 -0.3143 -0.2649
14015TIP3    H163536   4.077   4.718   2.886  0.9475  0.3236 -3.9070
14015TIP3    H263537   4.067   4.868   2.869 -0.5960  1.1877  2.9780
14016TIP3   OH263538   4.972   0.873   3.079 -0.3441 -0.1712 -0.4839
14016TIP3    H163539   4.984   0.891   2.986 -1.0818  0.6397 -0.4277
14016TIP3    H263540   4.921   0.947   3.111 -0.3133 -0.5792  0.5110
14017TIP3   OH263541   3.015   0.085  12.268  0.1628 -0.1406 -0.3175
14017TIP3    H163542   2.982   0.141  12.198 -1.7968  1.3175  1.6914
14017TIP3    H263543   3.073   0.142  12.319 -0.7278 -0.3249  0.9249
14018TIP3   OH263544   2.333   4.807   6.319 -0.0245  0.3523  0.1601
14018TIP3    H163545   2.237   4.806   6.318 -0.0372 -2.3947 -1.4504
14018TIP3    H263546   2.358   4.716   6.309  2.7731  1.1464 -0.5491
14019TIP3   OH263547   2.618   0.644   1.826  0.0085  0.2647  0.0953
14019TIP3    H163548   2.570   0.596   1.758 -0.3943 -0.1938  0.6961
14019TIP3    H263549   2.689   0.584   1.851  0.0341  0.3492  0.2217
14020TIP3   OH263550   6.231   5.553   1.150  0.5349 -0.3439 -0.0097
14020TIP3    H163551   6.136   5.549   1.141  0.2827  0.4626  2.1102
14020TIP3    H263552   6.264   5.526   1.064 -1.5958 -0.4676 -0.8202
14021TIP3   OH263553   0.867   1.047   1.774 -0.2758 -0.1709  0.3513
14021TIP3    H163554   0.785   1.007   1.745 -0.5576  0.3035  0.4919
14021TIP3    H263555   0.887   1.003   1.857 -1.5671  1.2718  1.4690
14022TIP3   OH263556   1.773   1.435   0.840  0.1554 -0.2305 -0.8701
14022TIP3    H163557   1.789   1.527   0.861 -0.7700 -0.3408  0.3722
14022TIP3    H263558   1.794   1.428   0.747  0.4638  1.1832 -0.9192
14023TIP3   OH263559   2.691   5.634  11.131 -0.2074  0.4980 -0.2410
14023TIP3    H163560   2.613   5.610  11.081 -0.4614 -0.2971  0.5204
14023TIP3    H263561   2.674   5.724  11.160 -0.7773  0.3819 -0.2077
14024TIP3   OH263562   4.754   5.445   2.671 -0.8006 -0.5136 -0.1513
14024TIP3    H163563   4.757   5.352   2.693 -1.5489 -0.2615  1.0589
14024TIP3    H263564   4.664   5.471   2.691  0.0685  1.0239  1.9090
14025TIP3   OH263565   0.216   2.028   4.321 -0.1374  0.5345  0.2605
14025TIP3    H163566   0.140   2.074   4.357 -0.6595 -1.0929  1.2860
14025TIP3    H263567   0.252   1.979   4.396  0.8556 -0.0978 -0.6236
14026TIP3   OH263568   1.789   2.281   4.243 -0.3394  0.2890  0.5741
14026TIP3    H163569   1.846   2.341   4.195  0.2231 -0.6971 -0.0224
14026TIP3    H263570   1.849   2.232   4.299 -0.3038 -2.0785 -1.4434
14027TIP3   OH263571   4.991   1.802  16.360  0.4133 -0.2353 -0.0791
14027TIP3    H163572   4.900   1.770  16.358  0.7157 -1.0278 -1.7979
14027TIP3    H263573   5.024   1.773  16.445 -1.3310  1.1705  1.1042
14028TIP3   OH263574   4.520   1.047   2.537 -0.1101  0.2040  0.0245
14028TIP3    H163575   4.570   0.968   2.556  0.8251  0.2293 -2.1143
14028TIP3    H263576   4.449   1.047   2.600  0.6212 -1.6715  0.8692
14029TIP3   OH263577   6.715   1.237   3.255  0.2898 -0.6532 -0.2497
14029TIP3    H163578   6.699   1.147   3.283 -0.1903  0.1445  2.1775
14029TIP3    H263579   6.628   1.269   3.229  0.1340 -0.3311  0.6484
14030TIP3   OH263580   6.511   5.625  11.825 -0.4233 -0.4002 -0.0661
14030TIP3    H163581   6.498   5.548  11.880  0.5682 -1.4483 -1.2672
14030TIP3    H263582   6.584   5.672  11.866 -2.1762  0.8900  1.6949
14031TIP3   OH263583   4.116   0.020  12.658  0.0842 -0.3290  0.0036
14031TIP3    H163584   4.115   0.006  12.753 -0.0011 -0.6944 -0.0523
14031TIP3    H263585   4.062  -0.050  12.622 -1.4525  0.9444 -0.1767
14032TIP3   OH263586   0.136   6.583   4.243  0.0589  0.5801  0.0645
14032TIP3    H163587   0.111   6.616   4.156 -0.1926  0.8851  0.2521
14032TIP3    H263588   0.216   6.630   4.264  0.0889  0.5479  0.0241
14033TIP3   OH263589   4.154   4.805  10.300 -0.3114  0.0241 -0.1521
14033TIP3    H163590   4.198   4.808  10.215  0.3139  1.9669  0.2014
14033TIP3    H263591   4.213   4.754  10.355  1.0262  1.6917  0.0179
14034TIP3   OH263592   3.054   0.442   4.205 -0.6388 -0.5730  0.8945
14034TIP3    H163593   3.054   0.532   4.172 -1.7277 -0.3465  1.4691
14034TIP3    H263594   3.142   0.409   4.188 -0.9286 -0.1878 -1.4762
14035TIP3   OH263595   3.047   0.675   4.496 -0.5767 -0.4490 -0.0490
14035TIP3    H163596   3.059   0.763   4.531 -1.1383 -1.0802  1.8072
14035TIP3    H263597   2.959   0.675   4.460 -0.0743  0.1475 -1.2760
14036TIP3   OH263598   2.182   4.340  15.605 -0.2951 -0.1116  0.4898
14036TIP3    H163599   2.266   4.322  15.562 -0.4154 -0.1298  0.2619
14036TIP3    H263600   2.201   4.334  15.699  0.1494  0.6875  0.4586
14037TIP3   OH263601   2.901   3.700   2.862  0.0500 -0.5110 -0.2466
14037TIP3    H163602   2.843   3.744   2.923  1.2438 -0.6826  1.0436
14037TIP3    H263603   2.843   3.665   2.794 -1.0451  1.7751 -0.5262
14038TIP3   OH263604   4.996   3.727  15.414 -0.3231  0.3280 -0.1067
14038TIP3    H163605   4.973   3.705  15.324  0.0063 -1.1798  0.1768
14038TIP3    H263606   5.079   3.774  15.407  0.2060 -0.6599 -0.5141
14039TIP3   OH263607   5.582   4.665   6.039 -0.2761 -0.1568  0.1953
14039TIP3    H163608   5.502   4.718   6.031 -0.6175 -0.6058  0.6683
14039TIP3    H263609   5.644   4.706   5.978 -0.7066  0.4864  0.1924
14040TIP3   OH263610   2.975   3.455   1.591 -0.2690 -0.2685 -0.0465
14040TIP3    H163611   3.018   3.379   1.553  0.9720  0.2094  0.3721
14040TIP3    H263612   2.906   3.419   1.647  0.8680 -1.1200  0.8219
14041TIP3   OH263613   6.115   4.572   6.594  0.2647  0.0364  0.1970
14041TIP3    H163614   6.157   4.639   6.649  0.5818 -0.7930  0.9842
14041TIP3    H263615   6.181   4.503   6.586  0.0690 -0.0186 -0.9125
14042TIP3   OH263616   6.549   2.701  17.110 -0.5050  0.6012 -0.6551
14042TIP3    H163617   6.633   2.730  17.147 -1.3582  2.5198 -0.2047
14042TIP3    H263618   6.563   2.705  17.015 -0.5156  2.2382 -0.6014
14043TIP3   OH263619   5.087   4.814  14.211 -0.2462 -0.2617 -0.3412
14043TIP3    H163620   5.083   4.725  14.246  0.2115 -0.0982  0.1403
14043TIP3    H263621   5.067   4.805  14.118 -0.2131 -0.8681 -0.2884
14044TIP3   OH263622   1.922   6.334  11.582  0.1951 -0.3412 -0.7412
14044TIP3    H163623   2.011   6.364  11.566  0.0056  1.0938  0.7468
14044TIP3    H263624   1.870   6.373  11.512  0.4173  0.4768 -0.4523
14045TIP3   OH263625   1.267   6.389  13.722  0.0126  0.4311 -0.2260
14045TIP3    H163626   1.183   6.369  13.763  0.7848  1.1159  1.7595
14045TIP3    H263627   1.263   6.483  13.703  0.0844  0.3344 -0.7412
14046TIP3   OH263628   6.200   3.097  13.326  0.0417 -0.0454  0.0690
14046TIP3    H163629   6.205   3.118  13.232  0.3530  0.4205  0.1835
14046TIP3    H263630   6.130   3.153  13.359 -0.6155 -0.7995 -0.0347
14047TIP3   OH263631   1.133   2.259   1.352  0.2221  0.4560  0.7948
14047TIP3    H163632   1.085   2.195   1.299 -0.6419  0.8976  1.0352
14047TIP3    H263633   1.097   2.248   1.440 -0.9959  2.3009  0.5470
14048TIP3   OH263634   0.335   1.692   5.278  0.7950  0.4596  0.2207
14048TIP3    H163635   0.265   1.729   5.224 -0.1719  1.0422  1.8265
14048TIP3    H263636   0.408   1.753   5.268  0.4593  0.8182 -0.0516
14049TIP3   OH263637   5.729   5.856   4.070 -0.0011  0.6515  0.3217
14049TIP3    H163638   5.791   5.797   4.027 -1.8151 -0.3292 -1.0168
14049TIP3    H263639   5.663   5.798   4.107  1.0356  1.5522  3.6863
14050TIP3   OH263640   3.278   1.140   0.737 -0.1215 -0.4385  0.3997
14050TIP3    H163641   3.293   1.180   0.651 -0.3959 -0.7676  0.1971
14050TIP3    H263642   3.191   1.103   0.731 -0.0585 -0.6453  0.7547
14051TIP3   OH263643   6.003   1.923   5.726 -1.1748 -0.1452  0.4957
14051TIP3    H163644   5.928   1.936   5.668 -0.0965  0.2087 -0.8227
14051TIP3    H263645   6.052   1.850   5.688 -1.4287 -1.0989  1.9651
14052TIP3   OH263646   2.381   5.681  15.404 -0.2572  0.8215  0.0246
14052TIP3    H163647   2.323   5.611  15.436 -1.0390  1.0281 -0.9074
14052TIP3    H263648   2.321   5.752  15.381  0.1334  0.1099 -3.3646
14053TIP3   OH263649   3.820   3.395  12.728  0.0330  0.4313  0.1508
14053TIP3    H163650   3.736   3.434  12.748 -0.6356 -1.0043  0.2146
14053TIP3    H263651   3.881   3.434  12.791 -0.4004  2.1035 -0.4497
14054TIP3   OH263652   0.933   0.700  15.062 -0.2805 -0.0599  0.2267
14054TIP3    H163653   0.977   0.784  15.047 -0.6126 -0.1646 -1.4180
14054TIP3    H263654   0.995   0.634  15.029 -0.6019 -0.3688  0.2336
14055TIP3   OH263655   2.385   2.360   6.778 -0.7292 -0.2874 -0.3363
14055TIP3    H163656   2.299   2.399   6.764  0.0978  0.9542 -2.1336
14055TIP3    H263657   2.380   2.274   6.735 -0.9326 -0.0350 -0.8200
14056TIP3   OH263658   5.449   5.423  12.969  0.0826  0.0077 -0.1704
14056TIP3    H163659   5.498   5.346  12.938  0.1597  0.0813 -0.2321
14056TIP3    H263660   5.511   5.470  13.025  0.2044  0.2894 -0.5331
14057TIP3   OH263661   2.283   5.828  15.753 -0.0173 -0.4676 -0.7990
14057TIP3    H163662   2.324   5.904  15.713 -1.3575 -0.2038 -1.7058
14057TIP3    H263663   2.234   5.864  15.828 -0.1456 -0.5198 -0.8570
14058TIP3   OH263664   5.695   2.494  14.562 -0.7556 -0.0732  0.1077
14058TIP3    H163665   5.671   2.438  14.636 -1.5654 -0.4774 -0.4597
14058TIP3    H263666   5.720   2.433  14.493  0.9792  0.3207  0.3618
14059TIP3   OH263667   5.877   3.143  11.710  0.1821  0.1733  0.0006
14059TIP3    H163668   5.963   3.186  11.706  0.0428  0.4609  0.1250
14059TIP3    H263669   5.858   3.137  11.803 -1.4132  3.0571 -0.0863
14060TIP3   OH263670   1.141   5.950   2.924 -0.0344 -0.0161 -0.5778
14060TIP3    H163671   1.057   5.905   2.924 -0.2430  0.3270  1.0896
14060TIP3    H263672   1.118   6.042   2.908  0.0347  0.0649 -0.2047
14061TIP3   OH263673   3.509   3.933  16.318 -0.5878 -0.1089 -0.1378
14061TIP3    H163674   3.526   3.860  16.379 -0.7828  0.1881  0.2785
14061TIP3    H263675   3.417   3.922  16.293 -1.3898  1.4830  1.9638
14062TIP3   OH263676   0.333   3.309  12.359  0.3578 -0.1094 -0.0819
14062TIP3    H163677   0.343   3.404  12.358 -0.3845 -0.0223  0.4472
14062TIP3    H263678   0.279   3.290  12.281  1.3606 -0.2025 -0.7607
14063TIP3   OH263679   6.291   5.913   2.627  0.6199 -0.0523 -0.3521
14063TIP3    H163680   6.288   5.945   2.537 -0.4491 -0.4305 -0.4574
14063TIP3    H263681   6.363   5.849   2.628  1.3398  0.7530 -0.6652
14064TIP3   OH263682   1.079   2.925   0.097 -0.3687 -0.3647 -0.0519
14064TIP3    H163683   1.005   2.984   0.079 -0.7897 -0.6821  0.6386
14064TIP3    H263684   1.073   2.858   0.029 -0.3514 -0.0422 -0.3711
14065TIP3   OH263685   5.082   4.547  15.385  0.2226 -0.0380  0.1557
14065TIP3    H163686   5.087   4.627  15.333  1.2506 -0.7074 -0.8051
14065TIP3    H263687   5.000   4.554  15.433 -0.3418  0.9715 -0.9456
14066TIP3   OH263688   1.623   2.936   5.499  0.4081  0.3545  0.1301
14066TIP3    H163689   1.631   2.901   5.588 -0.0135 -0.2599 -0.0661
14066TIP3    H263690   1.612   2.858   5.444  2.3634  0.6129 -0.6670
14067TIP3   OH263691   2.012   3.825   4.466 -0.8603 -0.2810 -0.2177
14067TIP3    H163692   2.001   3.808   4.373  1.3712 -1.7307 -0.2564
14067TIP3    H263693   2.041   3.742   4.503 -0.7000  0.5361  1.5883
14068TIP3   OH263694   6.561   0.502  17.211  0.2361 -0.3280 -0.2960
14068TIP3    H163695   6.629   0.528  17.273 -0.3523  1.0451 -0.2130
14068TIP3    H263696   6.569   0.564  17.139 -0.8002 -0.2743 -0.3690
14069TIP3   OH263697   0.981   5.421   4.057  0.5409 -0.1388 -0.2115
14069TIP3    H163698   0.931   5.343   4.082 -1.7199  0.9000 -1.3532
14069TIP3    H263699   1.065   5.411   4.102 -1.2360 -1.2151  3.0159
14070TIP3   OH263700   3.614   1.667   0.725 -0.1429 -0.0962 -0.7184
14070TIP3    H163701   3.625   1.694   0.816 -0.3357  0.0330 -0.7342
14070TIP3    H263702   3.675   1.723   0.676  0.8535 -0.9899 -0.5315
14071TIP3   OH263703   0.650   1.516   4.553  0.7316  0.8153  0.0908
14071TIP3    H163704   0.739   1.522   4.586  0.7961  2.0511 -0.2810
14071TIP3    H263705   0.628   1.423   4.560  2.3744  0.3535 -0.6772
14072TIP3   OH263706   0.025   4.616  17.039  0.0871 -0.0792 -0.6130
14072TIP3    H163707  -0.027   4.541  17.009 -0.5018  0.8470 -1.9211
14072TIP3    H263708   0.027   4.607  17.134 -1.9791 -0.4312 -0.5899
14073TIP3   OH263709   3.888   0.534  11.412  0.5028  0.2909 -0.5240
14073TIP3    H163710   3.978   0.567  11.410  0.2129  1.0475 -1.6951
14073TIP3    H263711   3.885   0.471  11.339  0.4656 -0.7700  0.3810
14074TIP3   OH263712   3.548   6.390  11.346  0.2414 -0.1771 -0.6239
14074TIP3    H163713   3.490   6.388  11.270  0.6640 -1.0997 -0.9290
14074TIP3    H263714   3.591   6.304  11.346 -0.1110 -0.3720  0.9284
14075TIP3   OH263715   6.645   3.846   5.880 -0.4980  0.3244  0.2268
14075TIP3    H163716   6.550   3.841   5.876 -0.5355  1.6144 -1.2419
14075TIP3    H263717   6.675   3.766   5.837 -0.9497  0.5516 -0.5362
14076TIP3   OH263718   1.952   0.418   5.598 -0.4203 -0.3160 -0.1020
14076TIP3    H163719   1.871   0.447   5.639 -0.0355 -0.1837  0.5562
14076TIP3    H263720   2.003   0.498   5.586 -0.9540 -0.2017 -1.7830
14077TIP3   OH263721   1.768   3.862  16.277  0.4748  0.0228 -0.0603
14077TIP3    H163722   1.768   3.946  16.232 -0.0044 -0.3181 -0.7073
14077TIP3    H263723   1.676   3.845  16.298  0.7901  0.6026  1.8606
14078TIP3   OH263724   4.683   3.064  11.711  0.1941 -0.4530 -0.4783
14078TIP3    H163725   4.767   3.109  11.704  0.7048 -1.7824 -4.1283
14078TIP3    H263726   4.620   3.125  11.672  0.0837 -0.9322 -1.0489
14079TIP3   OH263727   5.089   5.218  11.117  0.2421 -0.0707  0.2607
14079TIP3    H163728   5.168   5.174  11.088  0.2139  0.4488 -0.5983
14079TIP3    H263729   5.018   5.156  11.097  0.3871 -0.3751  0.6839
14080TIP3   OH263730   1.486   2.725   4.437 -0.0400  0.1641 -0.1588
14080TIP3    H163731   1.419   2.715   4.369  0.3170 -0.4866 -0.4119
14080TIP3    H263732   1.508   2.818   4.435 -1.0257  0.4124  0.0080
14081TIP3   OH263733   4.182   4.195   5.271  0.5854 -0.1868  0.5925
14081TIP3    H163734   4.167   4.123   5.211 -1.2355 -2.3234  3.4989
14081TIP3    H263735   4.145   4.272   5.227  1.3833 -1.2469 -1.9716
14082TIP3   OH263736   4.201   0.766   5.376 -0.1811  0.4355 -0.8860
14082TIP3    H163737   4.179   0.798   5.463  1.3851 -2.6455  0.7153
14082TIP3    H263738   4.143   0.691   5.362  1.9143 -1.2264 -1.0020
14083TIP3   OH263739   5.543   2.400  11.190  0.4872  0.4524 -0.4337
14083TIP3    H163740   5.487   2.344  11.244  0.1689  1.0967 -0.0840
14083TIP3    H263741   5.502   2.398  11.104 -0.1394  0.9941 -0.1561
14084TIP3   OH263742   3.750   5.168  15.135  0.0083 -0.3542  0.1471
14084TIP3    H163743   3.664   5.185  15.098  0.2060 -0.5067 -0.3967
14084TIP3    H263744   3.803   5.140  15.060  0.7523  0.5313  0.3258
14085TIP3   OH263745   5.472   0.632  15.227  0.0517  0.1806 -0.0233
14085TIP3    H163746   5.464   0.618  15.322 -1.9336  1.0005 -0.0381
14085TIP3    H263747   5.399   0.583  15.189 -0.5631  1.7343 -0.9208
14086TIP3   OH263748   5.199   6.181   1.447 -0.1505 -0.1290  0.3634
14086TIP3    H163749   5.275   6.204   1.394 -1.6163  2.2346 -0.8444
14086TIP3    H263750   5.128   6.171   1.384 -1.5901  1.2109  1.7073
14087TIP3   OH263751   6.750   5.390  16.729 -0.3850  0.2296 -0.5768
14087TIP3    H163752   6.659   5.402  16.756  0.3310  1.2312  1.5029
14087TIP3    H263753   6.785   5.479  16.724 -0.3791  0.1012 -4.6473
14088TIP3   OH263754   2.348   3.839   5.500 -0.7226 -0.2506  0.4732
14088TIP3    H163755   2.434   3.799   5.511 -1.4834 -2.1159 -0.1856
14088TIP3    H263756   2.366   3.921   5.455  0.6828 -0.8433 -0.0948
14089TIP3   OH263757   4.150   6.680   0.507  0.1007  0.2871  0.0778
14089TIP3    H163758   4.187   6.649   0.424 -0.4703 -0.4548  0.0974
14089TIP3    H263759   4.123   6.770   0.488  1.1192  0.5458 -0.1790
14090TIP3   OH263760   2.741   3.081  14.820  0.4980 -0.0298  0.6471
14090TIP3    H163761   2.655   3.055  14.855 -1.1776  1.8044 -1.9155
14090TIP3    H263762   2.742   3.176  14.827  1.8981  0.0446 -0.2943
14091TIP3   OH263763   1.811   1.669  11.673  0.5166 -0.4305 -0.1162
14091TIP3    H163764   1.831   1.703  11.761 -0.0808  1.2220 -0.6049
14091TIP3    H263765   1.895   1.668  11.628  0.4843  0.7641 -0.2140
14092TIP3   OH263766   4.008   5.280  11.883  0.5418 -0.3057  0.4103
14092TIP3    H163767   4.018   5.236  11.967  2.3960  1.0515  0.9245
14092TIP3    H263768   3.928   5.243  11.846  1.0300 -2.6801  1.6765
14093TIP3   OH263769   2.630   2.594  12.566  0.2226 -0.1794  0.3917
14093TIP3    H163770   2.632   2.643  12.648  0.2548 -0.0028  0.2856
14093TIP3    H263771   2.559   2.531  12.577  0.4194 -0.3543  0.6677
14094TIP3   OH263772   0.883   6.117   0.887 -0.2182  0.2809 -0.3719
14094TIP3    H163773   0.827   6.143   0.813 -0.2410  0.2838 -0.3538
14094TIP3    H263774   0.836   6.148   0.964 -0.9799 -1.1334 -0.2486
14095TIP3   OH263775   3.949   1.334  17.218  0.5065  0.1340 -0.0792
14095TIP3    H163776   4.013   1.367  17.281  1.4433 -0.4550 -0.7044
14095TIP3    H263777   3.961   1.389  17.140  0.4336 -0.1336 -0.2806
14096TIP3   OH263778   1.953   5.674  12.414 -0.5927 -0.7329  0.7363
14096TIP3    H163779   1.939   5.736  12.485 -0.0759  0.1401  0.0965
14096TIP3    H263780   1.988   5.727  12.343 -0.4250 -1.7150  0.0718
14097TIP3   OH263781   0.591   5.939   6.295 -0.0250 -0.8884 -0.0874
14097TIP3    H163782   0.612   5.970   6.383 -1.1933 -0.3858  0.0307
14097TIP3    H263783   0.498   5.960   6.284  0.1381 -0.8354 -1.4836
14098TIP3   OH263784   4.745   4.573  16.123 -0.0800 -0.0743  0.3162
14098TIP3    H163785   4.777   4.622  16.199 -1.1805  0.0178  0.7423
14098TIP3    H263786   4.655   4.548  16.148 -0.7558  0.6958 -1.3037
14099TIP3   OH263787   5.065   1.521   2.173  0.7431  0.9104 -0.1997
14099TIP3    H163788   4.970   1.534   2.181  0.6742  0.1018  0.3118
14099TIP3    H263789   5.103   1.575   2.242  0.5356 -0.3324  0.9219
14100TIP3   OH263790   0.752   5.226  14.811 -0.1957  0.7602 -0.6540
14100TIP3    H163791   0.730   5.266  14.895  1.5205  0.0394  0.1585
14100TIP3    H263792   0.714   5.285  14.746 -4.0292 -0.1270  0.6333
14101TIP3   OH263793   0.749   6.032  10.591 -0.4048  1.0867 -0.3671
14101TIP3    H163794   0.663   6.051  10.553 -0.6764 -0.4308 -0.5678
14101TIP3    H263795   0.810   6.083  10.538 -1.0064  0.7504 -1.3997
14102TIP3   OH263796   1.287   3.848   5.625  0.4415  0.4717  0.4379
14102TIP3    H163797   1.234   3.927   5.619 -0.6704 -0.2379  0.7590
14102TIP3    H263798   1.226   3.780   5.652  1.3637 -0.5206  0.0775
14103TIP3   OH263799   5.281   2.513  13.688  0.0678 -0.0298 -0.7090
14103TIP3    H163800   5.267   2.419  13.692 -0.6081  0.0306 -1.5406
14103TIP3    H263801   5.302   2.531  13.597  2.3630  0.3510 -0.1477
14104TIP3   OH263802   5.553   6.744  11.796  0.2004 -0.1034  0.2100
14104TIP3    H163803   5.472   6.705  11.764 -0.0142 -0.2156  0.8691
14104TIP3    H263804   5.549   6.731  11.891  0.2877  1.2279  0.3942
14105TIP3   OH263805   4.115   6.457  11.899 -0.1263  0.5276 -0.1570
14105TIP3    H163806   4.045   6.497  11.951 -1.5424 -1.0523 -0.7973
14105TIP3    H263807   4.165   6.406  11.962  0.9654  2.3162  0.4497
14106TIP3   OH263808   4.046   1.588   1.809 -0.7602  0.0222  0.6123
14106TIP3    H163809   3.991   1.552   1.879  0.6354  0.1001  1.7879
14106TIP3    H263810   4.121   1.528   1.805  0.6901  1.7293  1.3459
14107TIP3   OH263811   2.112   4.244   1.089  0.1647  0.9017  0.6998
14107TIP3    H163812   2.127   4.331   1.051  1.5652  0.9100  1.2351
14107TIP3    H263813   2.190   4.193   1.064 -1.5027 -0.7950 -1.2406
14108TIP3   OH263814   5.870   4.186  13.609 -0.2473 -0.0413  0.1963
14108TIP3    H163815   5.963   4.209  13.607 -0.1564 -0.3869  0.4343
14108TIP3    H263816   5.845   4.195  13.701 -0.1267 -1.2355  0.3471
14109TIP3   OH263817   6.668   6.622  11.856  0.0206 -0.0637 -0.1292
14109TIP3    H163818   6.628   6.536  11.868  0.3413 -0.1176  0.5643
14109TIP3    H263819   6.761   6.605  11.847 -0.0530  0.1095 -1.2060
14110TIP3   OH263820   1.263   0.264  14.612  0.2439  0.6195 -0.1923
14110TIP3    H163821   1.260   0.250  14.706 -1.2462  0.4868 -0.2504
14110TIP3    H263822   1.227   0.184  14.574  0.5389  0.7977 -0.8683
14111TIP3   OH263823   0.287   4.650   1.101 -0.2102 -0.3919 -0.2510
14111TIP3    H163824   0.196   4.625   1.087 -0.5240 -0.6259  2.0194
14111TIP3    H263825   0.337   4.595   1.040 -1.4889 -1.1827 -0.5955
14112TIP3   OH263826   2.675   0.925   1.887 -0.2047  0.0434  0.4306
14112TIP3    H163827   2.582   0.916   1.868 -0.5693  1.0293  1.6921
14112TIP3    H263828   2.707   0.836   1.897  0.1612 -0.6701 -5.2325
14113TIP3   OH263829   6.607   3.233  16.699  0.2824  0.1010 -0.1556
14113TIP3    H163830   6.623   3.172  16.771  0.1938  0.6006  0.2875
14113TIP3    H263831   6.672   3.208  16.632  0.7433  0.0089  0.3220
14114TIP3   OH263832   3.076   3.568  14.552 -0.3410  0.1656 -0.4078
14114TIP3    H163833   3.049   3.586  14.642  1.2406 -0.1457  0.1511
14114TIP3    H263834   3.009   3.509  14.517 -0.0508 -1.0999  1.1378
14115TIP3   OH263835   1.527   2.288   3.456  0.0461 -0.3622 -0.0687
14115TIP3    H163836   1.591   2.224   3.487  0.9862  0.3082 -0.5690
14115TIP3    H263837   1.448   2.237   3.437  0.0347 -1.0278  1.7213
14116TIP3   OH263838   4.829   3.538   5.014 -0.5828 -0.0636 -0.5537
14116TIP3    H163839   4.903   3.494   4.970 -2.1537 -1.3803 -1.9500
14116TIP3    H263840   4.804   3.477   5.083 -0.9505 -0.0357 -0.6643
14117TIP3   OH263841   6.713   1.815  11.821  0.0600 -0.1515  0.4701
14117TIP3    H163842   6.767   1.860  11.757 -1.5001  0.5648 -0.3739
14117TIP3    H263843   6.707   1.876  11.894 -1.1956  0.5997 -0.2437
14118TIP3   OH263844   5.048   4.941  16.899 -0.4769  0.5519  0.5664
14118TIP3    H163845   5.034   4.950  16.993  0.6944 -5.3366  1.4763
14118TIP3    H263846   5.139   4.969  16.885  0.4213 -1.6389  1.8054
14119TIP3   OH263847   5.388   2.062   5.135 -0.2278  0.1202  0.4925
14119TIP3    H163848   5.369   2.154   5.116 -2.6409  0.0895  2.4792
14119TIP3    H263849   5.323   2.013   5.086 -1.1046 -0.3264  2.0440
14120TIP3   OH263850   3.237   4.278   4.880  0.0305  0.5947  0.2231
14120TIP3    H163851   3.194   4.234   4.954 -0.5586 -2.3585 -1.7948
14120TIP3    H263852   3.200   4.366   4.880 -3.8529 -0.9452  0.3359
14121TIP3   OH263853   0.785   3.779   2.760 -0.9036 -0.3885 -0.5029
14121TIP3    H163854   0.845   3.792   2.833 -0.5528  0.7812 -0.9951
14121TIP3    H263855   0.807   3.848   2.697 -2.2614 -0.4012 -1.0110
14122TIP3   OH263856   5.594   5.634   1.730 -0.4190 -0.0252  0.2268
14122TIP3    H163857   5.519   5.634   1.789 -1.0788 -0.5353 -0.5930
14122TIP3    H263858   5.556   5.644   1.643  0.4043 -1.0576 -0.2681
14123TIP3   OH263859   3.493   3.119  11.882  0.3766  0.1125  0.1488
14123TIP3    H163860   3.496   3.184  11.812  0.9613 -0.7670 -0.6670
14123TIP3    H263861   3.544   3.157  11.953  0.3750  0.7110 -0.1725
14124TIP3   OH263862   2.691   2.354  15.852 -0.4447  0.0821  0.4571
14124TIP3    H163863   2.630   2.403  15.908  0.4623  0.4018  1.1754
14124TIP3    H263864   2.776   2.364  15.895  0.4138  1.0327 -1.4355
14125TIP3   OH263865   2.317   0.260   3.040 -0.3175 -0.2178 -0.0849
14125TIP3    H163866   2.351   0.341   3.078 -0.7456 -0.7890  1.5840
14125TIP3    H263867   2.356   0.255   2.953 -0.8332  2.1214 -0.4745
14126TIP3   OH263868   0.850   4.127  10.647 -0.2308  0.2740  0.2090
14126TIP3    H163869   0.889   4.213  10.632  0.8698 -0.4201 -0.9694
14126TIP3    H263870   0.874   4.076  10.570 -0.1970 -1.3300  1.2604
14127TIP3   OH263871   4.593   5.502  12.308  0.4029  1.0560  0.1351
14127TIP3    H163872   4.647   5.515  12.386  0.2171 -2.1366  0.8675
14127TIP3    H263873   4.506   5.530  12.334  0.8320  2.2273  0.3170
14128TIP3   OH263874   2.821   4.695  15.674  0.2827 -0.5034 -0.4858
14128TIP3    H163875   2.750   4.730  15.728  0.9959  2.5651 -1.4269
14128TIP3    H263876   2.776   4.650  15.602 -0.7052 -0.2910 -0.0109
14129TIP3   OH263877   5.007   4.300   0.323 -0.1937 -0.1134 -0.3581
14129TIP3    H163878   5.021   4.320   0.416  0.8993 -1.2631 -0.2528
14129TIP3    H263879   5.036   4.209   0.314  0.0079  0.0959 -1.8926
14130TIP3   OH263880   1.922   3.618  13.567 -0.3484 -0.6625 -0.5233
14130TIP3    H163881   1.923   3.625  13.471  2.5042  0.0114 -0.4978
14130TIP3    H263882   1.908   3.707  13.598 -0.6115 -0.7752 -0.3200
14131TIP3   OH263883   1.210   3.469  11.885  0.3222  0.0041 -0.1211
14131TIP3    H163884   1.134   3.411  11.889 -0.2887  0.7674 -0.3596
14131TIP3    H263885   1.188   3.533  11.817  0.5768  1.0443  0.7500
14132TIP3   OH263886   6.020   6.683   0.718 -0.5258  0.0917 -0.8159
14132TIP3    H163887   5.996   6.591   0.712 -1.0444  0.2222 -0.7090
14132TIP3    H263888   6.068   6.691   0.800 -2.0238  0.2696  0.0477
14133TIP3   OH263889   0.703   5.751  15.326  0.2534  0.0086 -0.2699
14133TIP3    H163890   0.792   5.730  15.297  1.0340  1.6237  0.8382
14133TIP3    H263891   0.713   5.772  15.419 -1.3625 -0.1761 -0.0480
14134TIP3   OH263892   6.620   5.794   2.168  0.1527  0.1443 -0.3828
14134TIP3    H163893   6.533   5.756   2.183 -0.3729  1.7182  0.6112
14134TIP3    H263894   6.653   5.813   2.255  1.5361 -0.4919 -0.7597
14135TIP3   OH263895   1.218   1.420   5.230 -0.4637  0.3496  0.1995
14135TIP3    H163896   1.222   1.377   5.145  0.0223 -2.1329  1.4339
14135TIP3    H263897   1.248   1.509   5.213 -2.2510  0.4882 -2.5691
14136TIP3   OH263898   4.451   5.633  11.137  0.4204 -0.0064  0.6662
14136TIP3    H163899   4.435   5.577  11.060 -0.7353  2.0536 -0.6304
14136TIP3    H263900   4.538   5.607  11.167  0.7707 -1.0486 -1.1702
14137TIP3   OH263901   0.916   2.866  15.918 -0.1261  0.0937 -0.2761
14137TIP3    H163902   0.923   2.927  15.844  0.0304 -0.9098 -1.0942
14137TIP3    H263903   0.897   2.922  15.993 -1.6991  0.9965 -1.3132
14138TIP3   OH263904   0.444   0.842  11.933 -0.9122  0.1348  0.1435
14138TIP3    H163905   0.387   0.889  11.872 -2.0967  0.7015  1.6227
14138TIP3    H263906   0.431   0.749  11.912 -0.3523  0.3789 -1.2690
14139TIP3   OH263907   5.383   1.616  17.255 -0.0284 -0.2979  0.2653
14139TIP3    H163908   5.473   1.646  17.240 -0.4844 -0.0004 -2.1466
14139TIP3    H263909   5.388   1.521  17.249  0.1132 -0.2761  0.0392
14140TIP3   OH263910   3.648   2.365  12.509 -0.2901 -0.2535 -0.3973
14140TIP3    H163911   3.584   2.421  12.466 -1.7881 -0.8501  1.0181
14140TIP3    H263912   3.596   2.304  12.561  1.4210 -0.6426  0.9197
14141TIP3   OH263913   2.620   1.703  12.181 -0.2516  0.3046  0.5032
14141TIP3    H163914   2.687   1.762  12.215  0.6057  0.5621 -1.5588
14141TIP3    H263915   2.538   1.750  12.193  0.1333  0.7798  1.3216
14142TIP3   OH263916   0.551   1.441   1.714  0.5070 -0.2999 -0.9472
14142TIP3    H163917   0.468   1.476   1.745  0.5175  0.9543 -2.2866
14142TIP3    H263918   0.528   1.392   1.635  1.0624  0.2193 -1.4338
14143TIP3   OH263919   1.292   0.919  14.738  0.0683 -0.0981 -0.1985
14143TIP3    H163920   1.286   0.876  14.653  2.2012  1.2183 -1.0441
14143TIP3    H263921   1.327   1.006  14.719  1.7314 -0.2054  2.1154
14144TIP3   OH263922   5.100   6.478   0.413 -0.3441 -0.3454 -0.4540
14144TIP3    H163923   5.010   6.508   0.427  0.1510  1.0454 -0.2153
14144TIP3    H263924   5.152   6.526   0.478  0.7558 -0.1450 -1.4619
14145TIP3   OH263925   6.178   3.423   4.833  0.0858  0.0816  0.7340
14145TIP3    H163926   6.173   3.333   4.803 -2.9578  0.3011  0.4435
14145TIP3    H263927   6.232   3.468   4.768 -3.0174 -0.3398 -2.2117
14146TIP3   OH263928   5.572   4.981   0.251  0.4104 -0.4979  0.1571
14146TIP3    H163929   5.534   4.905   0.295 -0.3251 -0.8503 -1.0748
14146TIP3    H263930   5.541   5.056   0.302 -0.3987 -0.9051  0.2713
14147TIP3   OH263931   6.757   5.757  16.536  0.5079 -0.4071 -0.2612
14147TIP3    H163932   6.735   5.682  16.481  1.0123 -0.4368 -0.4247
14147TIP3    H263933   6.780   5.826  16.473  0.1234 -0.1361 -0.1131
14148TIP3   OH263934   3.805   4.114   1.297  0.3421 -0.2275 -0.1385
14148TIP3    H163935   3.777   4.192   1.248  0.3857 -1.1283 -1.6474
14148TIP3    H263936   3.747   4.044   1.265  0.1069 -0.7585  1.4130
14149TIP3   OH263937   5.032   6.285  15.738 -0.0575  0.0770 -0.6109
14149TIP3    H163938   4.975   6.355  15.769 -0.3217 -0.0221 -0.8747
14149TIP3    H263939   5.034   6.297  15.642 -3.0080 -2.5039 -1.0575
14150TIP3   OH263940   0.231   3.417   6.355  0.2032  0.2013  0.0793
14150TIP3    H163941   0.150   3.431   6.404 -0.5528  1.4446 -1.4914
14150TIP3    H263942   0.285   3.363   6.413 -1.5626 -0.2592  1.3322
14151TIP3   OH263943   3.911   3.881   4.701 -0.1975 -0.0320 -0.2086
14151TIP3    H163944   3.964   3.952   4.737  1.1403 -1.5497  0.8649
14151TIP3    H263945   3.843   3.866   4.767 -0.7805  0.5586 -0.6634
14152TIP3   OH263946   0.959   5.605  16.574 -0.7669 -0.3911  0.4865
14152TIP3    H163947   0.913   5.680  16.612 -0.3786 -0.2628  0.7044
14152TIP3    H263948   0.961   5.540  16.644  0.5974  0.1204  0.9441
14153TIP3   OH263949   1.728   5.399  16.319  0.1364  0.1673 -0.1516
14153TIP3    H163950   1.674   5.419  16.243 -0.3252  0.8649  0.3610
14153TIP3    H263951   1.676   5.427  16.394  1.2067  0.8519  0.3455
14154TIP3   OH263952   5.853   4.843  14.755 -0.5412 -0.4204 -0.2153
14154TIP3    H163953   5.819   4.754  14.767  0.0038 -0.5415  0.4961
14154TIP3    H263954   5.936   4.830  14.710 -0.5581 -0.2585 -0.2910
14155TIP3   OH263955   5.418   2.572  14.701  0.2480 -0.1149 -0.0673
14155TIP3    H163956   5.435   2.609  14.788  0.4318 -0.1992 -0.0669
14155TIP3    H263957   5.505   2.547  14.668  0.4964  2.3856 -1.4050
14156TIP3   OH263958   2.297   0.809  15.501 -0.3142  0.0834  0.1796
14156TIP3    H163959   2.204   0.791  15.516 -0.0162  0.1972  2.2799
14156TIP3    H263960   2.298   0.860  15.420 -1.9882 -0.7783 -0.4227
14157TIP3   OH263961   3.628   4.623   4.046  0.1025 -0.2868  0.3564
14157TIP3    H163962   3.578   4.565   3.988 -0.5075  0.9203 -0.3307
14157TIP3    H263963   3.571   4.698   4.061  0.5624 -0.2167  1.9031
14158TIP3   OH263964   3.292   4.145   0.082 -0.3951  0.6188 -0.3742
14158TIP3    H163965   3.273   4.056   0.110 -2.5236  0.4427 -2.2288
14158TIP3    H263966   3.306   4.194   0.163  0.1507 -1.2510  0.6764
14159TIP3   OH263967   1.573   0.883   4.611 -0.4480 -0.0548  0.3977
14159TIP3    H163968   1.574   0.790   4.634 -1.4610 -0.2111 -0.1676
14159TIP3    H263969   1.496   0.918   4.656 -0.7598  0.2496 -0.3622
14160TIP3   OH263970   0.178   4.370   2.456  0.0080  0.0577  0.3792
14160TIP3    H163971   0.244   4.355   2.524  0.8281 -1.3352 -0.6835
14160TIP3    H263972   0.102   4.319   2.485 -0.4075  1.1404  1.2730
14161TIP3   OH263973   0.448   6.633   3.995 -0.0018 -0.6187  0.1201
14161TIP3    H163974   0.371   6.672   4.036  1.7832  1.7117  1.3257
14161TIP3    H263975   0.523   6.671   4.041  1.9107 -2.7995 -1.0503
14162TIP3   OH263976   1.845   3.893  14.354  0.1930  0.3278 -0.4061
14162TIP3    H163977   1.804   3.973  14.322  1.3572 -0.0010 -2.7688
14162TIP3    H263978   1.780   3.825  14.338 -0.2353  0.5515  0.3212
14163TIP3   OH263979   3.527   0.300   3.097  0.3099  0.4204 -0.0427
14163TIP3    H163980   3.592   0.230   3.086  0.5051  0.6805 -0.5472
14163TIP3    H263981   3.579   0.380   3.108  0.0932  0.4345  0.9380
14164TIP3   OH263982   2.181   6.466  11.474  0.0100  0.4724  0.3249
14164TIP3    H163983   2.135   6.446  11.393  1.0309  0.1112 -0.1709
14164TIP3    H263984   2.174   6.561  11.483  0.3382  0.5787 -0.4693
14165TIP3   OH263985   5.696   5.564   0.995 -0.4161  0.1164 -0.2827
14165TIP3    H163986   5.612   5.537   1.032 -0.7827  0.1770 -1.0481
14165TIP3    H263987   5.737   5.482   0.967 -0.3884  0.1205 -0.2563
14166TIP3   OH263988   4.177   3.827   3.021  0.8274  0.1507  0.5083
14166TIP3    H163989   4.087   3.861   3.020  0.9419  0.4466 -1.2235
14166TIP3    H263990   4.188   3.785   2.936  2.7144  1.1396  0.2412
14167TIP3   OH263991   5.600   4.583  15.956  0.1534  0.9906 -0.1878
14167TIP3    H163992   5.567   4.615  16.041 -0.0842  0.4189 -0.0654
14167TIP3    H263993   5.641   4.499  15.976 -1.6096 -0.0756 -0.9499
14168TIP3   OH263994   3.232   2.690   5.839  0.0859  0.6749  0.0721
14168TIP3    H163995   3.321   2.721   5.851 -0.1488  0.5674  2.2207
14168TIP3    H263996   3.177   2.765   5.861 -0.3839  0.2301  0.4264
14169TIP3   OH263997   4.278   2.222  11.195  0.2121 -0.3983 -0.0251
14169TIP3    H163998   4.306   2.138  11.160 -0.2393 -0.5735  0.0299
14169TIP3    H263999   4.308   2.287  11.131  0.6554 -0.5888 -0.0135
14170TIP3   OH264000   1.329   0.068   1.728 -0.0489  0.3111  0.3455
14170TIP3    H164001   1.353   0.103   1.813  1.4015  1.9900 -0.7294
14170TIP3    H264002   1.410   0.029   1.695 -0.6810 -0.6006 -0.1464
14171TIP3   OH264003   6.041   1.515  15.021 -0.0260 -0.1199  0.3148
14171TIP3    H164004   6.061   1.523  14.927  1.1437  2.1181  0.7199
14171TIP3    H264005   5.949   1.540  15.028  0.1371  0.6301 -0.1334
14172TIP3   OH264006   4.250   2.669  13.629 -0.5237 -0.4537 -0.1122
14172TIP3    H164007   4.158   2.691  13.615 -0.8095 -2.4465 -1.6512
14172TIP3    H264008   4.297   2.711  13.556 -0.3260 -0.1226  0.2057
14173TIP3   OH264009   3.835   6.364  13.586  0.0268 -0.4588 -0.1283
14173TIP3    H164010   3.746   6.360  13.622  0.0093 -0.1077 -0.1330
14173TIP3    H264011   3.882   6.423  13.645 -0.0889  0.3867 -0.8690
14174TIP3   OH264012   5.436   4.163  14.237 -0.3853  0.0300 -0.0484
14174TIP3    H164013   5.441   4.221  14.161 -1.2485  0.4189  0.1757
14174TIP3    H264014   5.364   4.103  14.216 -2.3917  1.8009  1.5543
14175TIP3   OH264015   5.272   1.417  12.312 -0.3919  0.3137 -0.5567
14175TIP3    H164016   5.236   1.506  12.321  1.5364  0.9265  1.6068
14175TIP3    H264017   5.340   1.426  12.245  1.2417  0.9924  1.1334
14176TIP3   OH264018   2.876   5.767  15.011  0.3720 -0.1709 -0.4291
14176TIP3    H164019   2.957   5.719  15.029  0.1778 -0.3983 -0.1658
14176TIP3    H264020   2.852   5.741  14.922 -0.0409 -1.0021 -0.0783
14177TIP3   OH264021   1.685   2.366   0.515 -0.5460 -0.2656 -0.3232
14177TIP3    H164022   1.664   2.277   0.543 -0.0028 -0.3617 -0.2185
14177TIP3    H264023   1.778   2.376   0.533 -0.9822  0.9474  1.3755
14178TIP3   OH264024   2.237   1.727   0.804  0.1671 -0.5049 -0.6716
14178TIP3    H164025   2.321   1.774   0.811  0.0960 -0.3763 -0.6900
14178TIP3    H264026   2.252   1.645   0.852 -0.1725  0.1840  0.6474
14179TIP3   OH264027   5.998   1.377  13.360  0.0411 -0.1450 -0.7162
14179TIP3    H164028   6.055   1.341  13.292 -1.5022  0.8776 -2.6239
14179TIP3    H264029   6.028   1.468  13.370  0.4173 -0.3631  0.1495
14180TIP3   OH264030   3.964   1.939   5.619 -0.2436  0.0698 -0.0433
14180TIP3    H164031   3.965   1.986   5.702 -0.1939 -0.5107  0.2867
14180TIP3    H264032   4.041   1.970   5.572  0.7085 -0.8858  0.8524
14181TIP3   OH264033   6.536   2.242  13.091  0.1817 -0.0509  0.0081
14181TIP3    H164034   6.531   2.321  13.145 -2.7124 -0.4684  0.4360
14181TIP3    H264035   6.485   2.263  13.012 -0.1320 -1.2859 -0.1360
14182TIP3   OH264036   4.403   4.289  13.221  0.0937 -0.0872  0.3325
14182TIP3    H164037   4.416   4.308  13.314 -0.7416  0.5961  0.3132
14182TIP3    H264038   4.460   4.214  13.204 -2.1087 -2.2660  2.1301
14183TIP3   OH264039   0.715   5.143   0.785 -0.4692 -0.1828 -0.4936
14183TIP3    H164040   0.721   5.067   0.727 -1.3887 -0.3125 -0.4359
14183TIP3    H264041   0.785   5.201   0.757  1.6415 -1.9974  0.8833
14184TIP3   OH264042   1.876   6.461  12.271 -0.1454 -0.3496  0.1154
14184TIP3    H164043   1.911   6.533  12.219  0.9897 -0.9841 -0.0057
14184TIP3    H264044   1.953   6.415  12.304 -0.7091  1.5347  4.5029
14185TIP3   OH264045   6.550   4.337  17.227 -0.6630  0.4258  0.2393
14185TIP3    H164046   6.462   4.325  17.190 -0.1529 -0.5550 -0.6623
14185TIP3    H264047   6.575   4.250  17.258 -0.2493  0.8291  1.0361
14186TIP3   OH264048   5.950   0.722   1.344 -0.1016  0.2922 -0.6711
14186TIP3    H164049   5.946   0.813   1.371  1.5224  0.0855  0.3347
14186TIP3    H264050   5.882   0.713   1.277 -0.6154  2.0970 -0.3957
14187TIP3   OH264051   0.591   3.643  16.476 -0.1181 -0.5646  0.0345
14187TIP3    H164052   0.633   3.718  16.433 -0.2388  0.1288  1.1075
14187TIP3    H264053   0.643   3.568  16.450  0.0111 -0.1115 -1.0567
14188TIP3   OH264054   5.031   1.461  14.566  0.2929  0.1163  0.0883
14188TIP3    H164055   5.073   1.539  14.601  3.4052 -0.7386 -1.5877
14188TIP3    H264056   5.092   1.390  14.583 -1.7780 -1.7151  0.1500
14189TIP3   OH264057   3.121   4.225   5.931  0.4312 -0.1420  0.0277
14189TIP3    H164058   3.131   4.300   5.989  0.7216  0.2133 -0.4828
14189TIP3    H264059   3.066   4.256   5.860 -1.8719 -1.2348  1.2778
14190TIP3   OH264060   0.951   5.604  13.769 -0.5764  0.6333 -0.2679
14190TIP3    H164061   0.894   5.647  13.833 -0.7310  1.2025 -0.7828
14190TIP3    H264062   1.038   5.607  13.810 -0.5313  1.6932 -0.4038
14191TIP3   OH264063   2.406   1.178  12.411 -0.7330 -0.2399 -0.1111
14191TIP3    H164064   2.347   1.105  12.393 -1.1911  0.0225  0.3040
14191TIP3    H264065   2.478   1.167  12.350 -0.7726 -1.0785 -0.0086
14192TIP3   OH264066   3.661   1.400  11.764  0.2662  0.3057  0.4483
14192TIP3    H164067   3.650   1.453  11.685  0.3441 -0.3874 -0.0367
14192TIP3    H264068   3.734   1.341  11.743 -0.0129 -0.1955  0.8667
14193TIP3   OH264069   2.545   3.527   3.086  0.1713 -0.8092  0.6129
14193TIP3    H164070   2.499   3.526   3.170  0.1076 -3.0574  0.5834
14193TIP3    H264071   2.607   3.455   3.092  0.2176 -0.9440 -1.2334
14194TIP3   OH264072   3.303   4.562   5.494  0.1848  0.5147  0.2237
14194TIP3    H164073   3.298   4.518   5.579  2.6349  1.4077  0.8643
14194TIP3    H264074   3.294   4.491   5.430 -2.3102 -0.0879  1.1830
14195TIP3   OH264075   5.936   0.784   1.983 -0.3626 -0.0571  0.2505
14195TIP3    H164076   5.996   0.768   1.910 -0.2391 -0.3625  0.4231
14195TIP3    H264077   5.993   0.813   2.054 -0.2169 -2.0925  0.9808
14196TIP3   OH264078   2.928   1.917   5.164  0.2751 -0.9383  0.5572
14196TIP3    H164079   2.912   1.970   5.086  1.8536 -2.6477 -0.9700
14196TIP3    H264080   2.890   1.967   5.235 -2.8957 -0.2061 -1.5615
14197TIP3   OH264081   3.349   5.009  12.483 -0.6578  0.0818 -0.1230
14197TIP3    H164082   3.399   4.942  12.528  2.0072  0.8229 -1.8343
14197TIP3    H264083   3.265   4.967  12.461 -0.1339 -1.7358  1.3032
14198TIP3   OH264084   5.787   6.546  13.787 -0.5610  0.1238 -0.1330
14198TIP3    H164085   5.708   6.568  13.738 -0.0019  3.0396  0.1599
14198TIP3    H264086   5.761   6.554  13.879  0.1938  1.6782 -0.0381
14199TIP3   OH264087   2.799   6.744  15.657  0.0262 -0.0046 -0.1124
14199TIP3    H164088   2.889   6.774  15.673 -0.5047  0.9248  1.2417
14199TIP3    H264089   2.775   6.697  15.737 -1.1687  0.9455  0.1119
14200TIP3   OH264090   6.173   5.251  16.557  0.1842 -0.2641 -0.3482
14200TIP3    H164091   6.165   5.164  16.520 -1.9941 -1.1710  2.1010
14200TIP3    H264092   6.196   5.236  16.649  0.5496  1.7567 -0.0860
14201TIP3   OH264093   3.138   3.790   4.264  0.5589  0.2250  0.0270
14201TIP3    H164094   3.139   3.874   4.310  1.1861 -0.1089  0.6367
14201TIP3    H264095   3.111   3.726   4.331 -3.1706  0.3772 -1.2237
14202TIP3   OH264096   5.914   1.880   5.032 -0.3833 -0.0250  0.2579
14202TIP3    H164097   5.826   1.865   4.999 -0.0469  0.8913 -1.1291
14202TIP3    H264098   5.919   1.975   5.045 -0.4853 -0.3682  2.9583
14203TIP3   OH264099   5.334   1.757  13.994  0.2944 -0.8140 -0.0393
14203TIP3    H164100   5.302   1.691  13.933 -0.3890  0.7094 -1.3608
14203TIP3    H264101   5.400   1.805  13.943  2.1339 -1.6339  1.5075
14204TIP3   OH264102   0.469   4.568  11.074 -0.4021 -0.1399 -0.2576
14204TIP3    H164103   0.535   4.629  11.040 -0.1030 -0.3385 -0.0382
14204TIP3    H264104   0.395   4.623  11.098  0.5271  0.3424  1.5865
14205TIP3   OH264105   0.859   4.025  13.674  0.5532  0.1353 -0.2005
14205TIP3    H164106   0.864   3.979  13.758 -0.8202 -0.5612 -0.4867
14205TIP3    H264107   0.923   3.981  13.619  1.2191  0.3739  0.3834
14206TIP3   OH264108   6.543   5.687   6.231  0.2669 -0.0892  0.2737
14206TIP3    H164109   6.540   5.739   6.150  0.3646  1.8504  1.4874
14206TIP3    H264110   6.635   5.663   6.240  0.7668  2.1018  1.2732
14207TIP3   OH264111   2.870   5.225   6.478 -0.4755  0.8262  0.1749
14207TIP3    H164112   2.885   5.167   6.403  2.6969  0.0444  1.3303
14207TIP3    H264113   2.900   5.311   6.447  0.9658  0.4759  0.5584
14208TIP3   OH264114   1.875   1.174  14.180  0.9955  0.5159  0.8277
14208TIP3    H164115   1.938   1.245  14.190  0.1130  1.2865  1.0136
14208TIP3    H264116   1.831   1.192  14.097  1.1185 -0.0905  0.6317
14209TIP3   OH264117   4.672   5.562   0.402 -0.3093  0.1218  0.2539
14209TIP3    H164118   4.606   5.620   0.364  0.4577  0.2625 -0.8754
14209TIP3    H264119   4.755   5.594   0.368  0.0924 -1.8979 -0.7153
14210TIP3   OH264120   6.481   0.054   0.166 -0.2128  0.0835 -0.0430
14210TIP3    H164121   6.522  -0.014   0.112 -0.7590 -0.7566  0.5952
14210TIP3    H264122   6.487   0.133   0.113  1.3185 -0.2373 -0.3966
14211TIP3   OH264123   5.762   1.491  12.687 -0.0726  0.4355 -0.4485
14211TIP3    H164124   5.705   1.436  12.634  0.3177 -0.5113  0.1011
14211TIP3    H264125   5.777   1.569  12.633 -1.8074  0.6699 -0.6247
14212TIP3   OH264126   1.856   5.080   3.842 -0.1877  0.0267 -0.2348
14212TIP3    H164127   1.947   5.081   3.873 -0.3871 -1.0041  0.4213
14212TIP3    H264128   1.852   5.004   3.784 -0.5190  0.3376 -0.6198
14213TIP3   OH264129   4.232   5.741   4.025  0.4124 -0.3140  0.1999
14213TIP3    H164130   4.200   5.709   4.109 -0.7756  0.4614  0.0557
14213TIP3    H264131   4.225   5.836   4.031  1.3999 -0.1956 -0.3617
14214TIP3   OH264132   3.325   1.732   0.711 -0.3388 -0.2048 -0.0432
14214TIP3    H164133   3.414   1.697   0.712 -0.6584 -1.0280 -0.1084
14214TIP3    H264134   3.330   1.808   0.653  0.5039  0.2446  0.6034
14215TIP3   OH264135   6.372   5.729  13.553  0.1395 -0.4299 -0.5140
14215TIP3    H164136   6.414   5.809  13.584 -1.2133  0.2344 -0.3340
14215TIP3    H264137   6.318   5.700  13.626 -0.0553 -1.0189 -0.8847
14216TIP3   OH264138   0.675   3.300  14.850 -0.5266 -0.1181  0.9018
14216TIP3    H164139   0.754   3.343  14.884  0.2593 -0.8754  0.0460
14216TIP3    H264140   0.630   3.368  14.800  1.1780 -0.5236 -1.2157
14217TIP3   OH264141   3.033   2.586  11.257  0.1305 -0.1181 -0.1514
14217TIP3    H164142   3.078   2.670  11.245 -0.4062  0.2944  0.6974
14217TIP3    H264143   3.017   2.555  11.168  1.7972 -0.1185 -0.4693
14218TIP3   OH264144   5.290   4.054  11.744 -0.3848  0.0963  0.3470
14218TIP3    H164145   5.278   4.102  11.662  1.1774  0.9473  0.5850
14218TIP3    H264146   5.260   4.115  11.812  1.3468  0.6842  0.6280
14219TIP3   OH264147   2.973   0.029  10.926  0.1470 -0.0988  0.0468
14219TIP3    H164148   3.008  -0.014  10.848 -0.1338 -2.9566  1.4228
14219TIP3    H264149   3.050   0.071  10.966  0.9428 -1.5281  0.0437
14220TIP3   OH264150   6.198   5.849   4.063 -0.2538  0.1418  0.1763
14220TIP3    H164151   6.211   5.941   4.043 -0.3633 -0.0120 -0.6346
14220TIP3    H264152   6.179   5.808   3.978  1.5814 -0.9260  0.2358
14221TIP3   OH264153   2.300   5.769   3.454 -0.2591  0.7283 -0.6035
14221TIP3    H164154   2.255   5.746   3.373 -0.8387  2.1209 -0.6968
14221TIP3    H264155   2.230   5.783   3.518  0.1911 -0.2297  0.1147
14222TIP3   OH264156   5.363   0.472  15.682  0.2940  0.6918 -1.1623
14222TIP3    H164157   5.330   0.533  15.616 -0.3868 -0.5042 -1.9409
14222TIP3    H264158   5.338   0.511  15.766 -1.6778  0.6051 -1.6962
14223TIP3   OH264159   5.617   2.415   2.267  0.2679 -0.2404  0.4049
14223TIP3    H164160   5.651   2.335   2.227  0.2882 -0.1984  0.3370
14223TIP3    H264161   5.610   2.395   2.360 -2.0990 -1.1902  0.0756
14224TIP3   OH264162   0.364   2.225   2.152 -0.5068 -0.2893 -0.1458
14224TIP3    H164163   0.415   2.231   2.233  0.1463  1.4976 -0.6501
14224TIP3    H264164   0.422   2.181   2.090 -0.8770 -1.3449  0.2500
14225TIP3   OH264165   0.143   1.824   5.092  0.2497  0.2422 -0.1278
14225TIP3    H164166   0.176   1.914   5.095 -0.6082  0.5859 -0.9086
14225TIP3    H264167   0.099   1.817   5.007  0.3347 -0.9255 -0.0830
14226TIP3   OH264168   1.455   4.072   5.523 -0.2775  0.4217 -0.4474
14226TIP3    H164169   1.423   3.991   5.564 -0.4986 -0.5923 -2.5430
14226TIP3    H264170   1.439   4.140   5.589  3.0135 -1.7223  2.7347
14227TIP3   OH264171   1.600   0.025   1.112  0.4979  0.4180  0.2120
14227TIP3    H164172   1.646   0.070   1.184 -0.5717  0.9018  0.6049
14227TIP3    H264173   1.518  -0.006   1.152  1.4243 -2.3402  0.0877
14228TIP3   OH264174   2.004   5.786  10.635  0.0920 -0.4344 -0.3298
14228TIP3    H164175   1.979   5.877  10.650 -1.0511 -0.4798 -1.8703
14228TIP3    H264176   1.991   5.743  10.719  0.7596  0.8391  0.4445
14229TIP3   OH264177   3.139   4.289  17.037 -0.1627  0.0003  0.2331
14229TIP3    H164178   3.150   4.384  17.032  1.0249 -0.1384 -0.0015
14229TIP3    H264179   3.071   4.276  17.103 -1.5111  1.0663 -0.9135
14230TIP3   OH264180   5.301   4.749  15.348  0.5997 -0.4905 -0.3057
14230TIP3    H164181   5.304   4.654  15.356  2.6844 -0.3836  0.4153
14230TIP3    H264182   5.387   4.774  15.315  0.6090  1.2621  0.9190
14231TIP3   OH264183   1.021   0.100   4.386  0.2014  0.4645  0.0735
14231TIP3    H164184   1.082   0.086   4.314 -0.0768 -0.6262  0.0319
14231TIP3    H264185   0.935   0.103   4.344  0.1813  1.4850  0.1838
14232TIP3   OH264186   1.530   6.374  14.679 -0.2906 -0.5386  0.2490
14232TIP3    H164187   1.538   6.387  14.774 -1.1701 -1.9913  0.5526
14232TIP3    H264188   1.600   6.313  14.657 -1.5438 -2.0884  0.4142
14233TIP3   OH264189   5.554   5.285   4.671 -0.2307 -0.2206 -0.0314
14233TIP3    H164190   5.461   5.291   4.649  0.3919 -2.5336 -3.8833
14233TIP3    H264191   5.588   5.373   4.655 -1.2860 -0.0231 -1.3130
14234TIP3   OH264192   2.565   0.138  16.519  0.3063  0.5781  0.6116
14234TIP3    H164193   2.583   0.210  16.579 -1.1824  0.0383  1.7250
14234TIP3    H264194   2.511   0.077  16.569  2.1140 -1.6650 -0.0679
14235TIP3   OH264195   3.684   4.099  14.975  0.2718  0.0206  0.3616
14235TIP3    H164196   3.596   4.081  15.009 -0.2164 -0.1942 -0.9739
14235TIP3    H264197   3.692   4.194  14.980 -0.7073  0.1964 -1.0840
14236TIP3   OH264198   1.297   2.472   0.553 -0.0272 -0.3132  0.3283
14236TIP3    H164199   1.376   2.526   0.558 -0.9220  1.0342  0.2302
14236TIP3    H264200   1.308   2.421   0.473  0.3333  0.5273 -0.1669
14237TIP3   OH264201   3.410   3.092   5.713  0.0824  0.0069  0.3776
14237TIP3    H164202   3.330   3.068   5.758  2.3805 -2.8718  3.1898
14237TIP3    H264203   3.436   3.175   5.753  0.1398 -0.6516  1.7353
14238TIP3   OH264204   6.713   5.833   0.519 -0.0607  0.2845 -0.2898
14238TIP3    H164205   6.661   5.776   0.575  1.4475 -1.3382 -0.5201
14238TIP3    H264206   6.648   5.882   0.467 -1.3574 -2.3666 -1.2311
14239TIP3   OH264207   1.008   0.615   0.452 -0.4470 -0.0109  0.0790
14239TIP3    H164208   1.009   0.519   0.450 -0.6601  0.0056 -2.7450
14239TIP3    H264209   0.925   0.637   0.494 -0.8337 -1.0815 -0.1087
14240TIP3   OH264210   0.011   0.237   3.955 -0.4953  0.0824 -0.3145
14240TIP3    H164211  -0.050   0.166   3.978 -1.0286  0.7715  0.4382
14240TIP3    H264212  -0.037   0.317   3.976  0.5013  0.6463 -0.1684
14241TIP3   OH264213   4.516   5.002  15.238 -0.5083  0.1799  0.9008
14241TIP3    H164214   4.598   5.002  15.287 -0.5417  0.4944  0.9586
14241TIP3    H264215   4.450   5.027  15.303 -0.4503  1.3134  0.5295
14242TIP3   OH264216   5.868   2.474  10.483  0.1878 -0.1415  0.3821
14242TIP3    H164217   5.865   2.548  10.422  1.2074 -0.6285 -0.2672
14242TIP3    H264218   5.868   2.397  10.427  0.3821 -0.6166  1.0306
14243TIP3   OH264219   0.741   6.682   5.563 -0.5616 -0.2847 -0.2728
14243TIP3    H164220   0.748   6.778   5.563 -0.6203 -0.2691  0.6154
14243TIP3    H264221   0.693   6.662   5.644 -1.0290 -1.0347 -0.7335
14244TIP3   OH264222   5.855   4.303  17.022 -0.4069 -0.2568 -0.2347
14244TIP3    H164223   5.849   4.356  17.102 -1.4272 -1.5955  0.6238
14244TIP3    H264224   5.904   4.226  17.049 -2.6342 -1.7474 -0.2865
14245TIP3   OH264225   3.458   6.077   1.324 -0.3514  0.0587  0.0393
14245TIP3    H164226   3.476   6.016   1.252  0.1887  0.1299  0.1111
14245TIP3    H264227   3.363   6.086   1.324 -0.4373 -0.7785  0.0210
14246TIP3   OH264228   5.973   1.445  12.491 -0.4187  0.0916  0.4212
14246TIP3    H164229   5.933   1.370  12.447 -1.5027  0.7857  0.2257
14246TIP3    H264230   5.986   1.509  12.422  0.2829  0.1855  0.6382
14247TIP3   OH264231   1.835   2.024  13.332  0.1302 -0.3649 -0.3603
14247TIP3    H164232   1.825   2.094  13.268  1.2177 -1.3133 -1.6065
14247TIP3    H264233   1.916   2.044  13.378  0.1984 -0.5505 -0.3977
14248TIP3   OH264234   4.287   4.992  13.925  0.0435 -0.0669  0.0439
14248TIP3    H164235   4.309   4.914  13.976 -0.5876 -1.4617 -1.8001
14248TIP3    H264236   4.213   4.966  13.871  1.7203  0.9095 -2.7991
14249TIP3   OH264237   2.403   6.762  13.601 -0.0911 -0.3502 -0.5641
14249TIP3    H164238   2.490   6.744  13.638 -0.4422 -1.7172 -0.3494
14249TIP3    H264239   2.344   6.708  13.654 -0.9881  0.0880 -1.1130
14250TIP3   OH264240   5.500   5.616  12.138 -0.1942 -0.3287 -0.4752
14250TIP3    H164241   5.536   5.655  12.059 -2.5237  1.2563 -0.8208
14250TIP3    H264242   5.541   5.664  12.210 -0.6683  0.5967 -0.8208
14251TIP3   OH264243   6.820   0.347  15.026  0.2030  0.3689  0.3845
14251TIP3    H164244   6.728   0.329  15.008  0.3059 -0.2523  0.4777
14251TIP3    H264245   6.837   0.429  14.980 -0.6726  1.0517  1.2357
14252TIP3   OH264246   4.411   3.323   2.943 -1.0453 -0.6898  0.1620
14252TIP3    H164247   4.329   3.293   2.903 -1.0334 -2.0019  1.0842
14252TIP3    H264248   4.466   3.245   2.946 -0.5981 -0.3289  1.6206
14253TIP3   OH264249   1.890   3.121   6.040  0.0021  0.7138  0.0731
14253TIP3    H164250   1.823   3.107   6.107  0.6383  1.6337  0.9183
14253TIP3    H264251   1.942   3.041   6.042 -0.2234  0.5718  0.4116
14254TIP3   OH264252   0.375   2.609  14.329  0.4052 -0.9719  0.1165
14254TIP3    H164253   0.320   2.680  14.362  0.7877 -0.9979  0.7972
14254TIP3    H264254   0.399   2.558  14.406  2.6691 -0.0670  0.0214
14255TIP3   OH264255   0.469   4.722  16.153  0.0598  0.5434 -0.5035
14255TIP3    H164256   0.428   4.770  16.224 -1.2168 -1.5149  0.2016
14255TIP3    H264257   0.561   4.748  16.156 -0.3330  1.8110  0.7688
14256TIP3   OH264258   5.825   3.009   0.765  0.5361  0.5852  0.3666
14256TIP3    H164259   5.820   3.104   0.753  1.6067  0.8567  1.8699
14256TIP3    H264260   5.773   2.991   0.843  0.2962 -0.0694  0.0583
14257TIP3   OH264261   1.946   5.090  17.145 -0.0078  0.1195 -0.4900
14257TIP3    H164262   1.967   5.175  17.182 -0.0200  0.5416 -1.4448
14257TIP3    H264263   1.856   5.073  17.173  0.1093  0.2697 -0.0213
14258TIP3   OH264264   2.099   5.589  11.240  0.5596  0.1746  0.7813
14258TIP3    H164265   2.120   5.662  11.299 -0.0857  0.6015  0.4800
14258TIP3    H264266   2.031   5.623  11.183  2.0526  0.1826 -1.0514
14259TIP3   OH264267   3.162   0.922   5.566 -0.6639 -0.3666  0.6060
14259TIP3    H164268   3.168   1.016   5.582  0.2204 -0.4878  0.9942
14259TIP3    H264269   3.210   0.908   5.484 -0.3182 -0.5526  0.8365
14260TIP3   OH264270   2.890   3.959   4.508  0.1980  1.1447 -0.1064
14260TIP3    H164271   2.830   4.009   4.564  1.3840  1.2723  1.0682
14260TIP3    H264272   2.971   4.009   4.507  1.0718 -0.2170  0.2373
14261TIP3   OH264273   5.544   5.667  14.170  0.2033  0.1755 -0.7385
14261TIP3    H164274   5.460   5.700  14.200  0.6593 -0.9221  1.8752
14261TIP3    H264275   5.592   5.745  14.142 -1.5681  0.8284 -2.0170
14262TIP3   OH264276   1.180   1.792  14.949  0.0498  0.5086  0.4219
14262TIP3    H164277   1.224   1.800  15.034  1.3315  0.8807 -0.2470
14262TIP3    H264278   1.231   1.850  14.891  2.0602 -3.2066 -1.7219
14263TIP3   OH264279   4.145   4.132   3.449  0.0919  0.4664 -0.2923
14263TIP3    H164280   4.096   4.059   3.485  1.0090 -0.6784 -1.2928
14263TIP3    H264281   4.232   4.126   3.490  0.4329  0.4897 -0.9954
14264TIP3   OH264282   6.407   3.748   1.591 -0.0612 -0.0100  0.0873
14264TIP3    H164283   6.372   3.707   1.671  2.2483 -0.0574  1.1025
14264TIP3    H264284   6.370   3.836   1.592 -2.5753 -0.9996 -0.4785
14265TIP3   OH264285   4.157   3.634   6.907  0.3964  0.2534 -0.1559
14265TIP3    H164286   4.207   3.616   6.987 -0.6821 -0.6001  0.3344
14265TIP3    H264287   4.206   3.590   6.838 -0.5829 -2.0711  0.5808
14266TIP3   OH264288   1.085   4.525  13.658  0.4492 -0.2093 -0.1481
14266TIP3    H164289   1.001   4.492  13.688 -0.1025  1.1149 -0.2022
14266TIP3    H264290   1.128   4.449  13.619 -0.7420 -0.8826 -0.1778
14267TIP3   OH264291   6.066   1.649   2.384  0.2472  0.3709  0.1443
14267TIP3    H164292   5.998   1.582   2.389  1.2741 -0.5889  1.8429
14267TIP3    H264293   6.081   1.662   2.291  0.2866 -2.0353 -0.2000
14268TIP3   OH264294   2.616   6.649   5.386  0.3538  0.2592  0.0752
14268TIP3    H164295   2.607   6.735   5.429  0.2579  1.0913 -1.5772
14268TIP3    H264296   2.708   6.627   5.396  0.4163  0.6332  0.3387
14269TIP3   OH264297   5.028   5.917  12.225 -0.1233  0.0707 -0.2070
14269TIP3    H164298   4.952   5.867  12.255 -0.9421  0.8461 -0.9405
14269TIP3    H264299   5.040   5.984  12.292  0.4383 -0.5684  0.3368
14270TIP3   OH264300   2.140   2.645   5.339  0.0169 -0.0832  0.2905
14270TIP3    H164301   2.195   2.685   5.406  0.8730 -1.5180  0.4804
14270TIP3    H264302   2.161   2.692   5.259  1.1299 -0.2504  0.4744
14271TIP3   OH264303   1.486   0.135  15.477 -0.2688  0.4129 -0.3257
14271TIP3    H164304   1.573   0.146  15.514 -0.3146  1.0131 -0.3904
14271TIP3    H264305   1.501   0.100  15.389 -0.1166  0.0085 -0.1360
14272TIP3   OH264306   1.300   3.203   4.742  0.2386  0.6011 -0.3940
14272TIP3    H164307   1.209   3.203   4.774  0.3875  0.1428  0.0471
14272TIP3    H264308   1.293   3.222   4.649 -0.3848 -0.2907 -0.5386
14273TIP3   OH264309   3.075   3.851   0.838 -0.0116 -0.4526 -0.4222
14273TIP3    H164310   3.011   3.913   0.803 -1.1990 -0.3193  1.8824
14273TIP3    H264311   3.146   3.906   0.870  0.1737 -0.4484 -0.8436
14274TIP3   OH264312   2.251   4.346   5.470 -0.0425  0.1047  0.1393
14274TIP3    H164313   2.259   4.398   5.390 -2.0185 -1.3133 -1.0062
14274TIP3    H264314   2.184   4.392   5.521  0.0473  0.0982  0.2627
14275TIP3   OH264315   1.486   5.312   6.163  0.0102  0.9249 -0.0731
14275TIP3    H164316   1.439   5.233   6.189  1.0720  0.1570 -0.4369
14275TIP3    H264317   1.425   5.358   6.105  0.0264 -0.4999 -1.2592
14276TIP3   OH264318   0.524   2.398  14.574 -0.3088 -0.0409 -0.3984
14276TIP3    H164319   0.567   2.373  14.656 -2.1688 -2.1027  0.0313
14276TIP3    H264320   0.550   2.330  14.512 -0.3088  0.5354 -1.0278
14277TIP3   OH264321   4.601   1.762  16.985  0.2034  0.0196  0.0667
14277TIP3    H164322   4.533   1.797  16.927 -0.8505  0.3700  1.4713
14277TIP3    H264323   4.630   1.838  17.035  0.7283 -0.3775  0.3675
14278TIP3   OH264324   0.460   5.692   1.017  0.0104 -0.4068  0.4233
14278TIP3    H164325   0.422   5.605   1.010 -0.0959 -0.3792  0.6410
14278TIP3    H264326   0.386   5.751   1.002 -0.2204 -0.3459  1.7367
14279TIP3   OH264327   4.864   6.419   4.802  0.3199 -0.3290  0.6925
14279TIP3    H164328   4.867   6.421   4.707 -1.3449 -0.6151  0.6160
14279TIP3    H264329   4.782   6.374   4.823 -0.3188  1.4572  2.2346
14280TIP3   OH264330   2.384   5.088  12.958  1.0446  0.6754 -0.8229
14280TIP3    H164331   2.447   5.029  12.917 -0.1754 -0.3609 -1.2445
14280TIP3    H264332   2.299   5.046  12.943  0.4273  1.1150  1.3654
14281TIP3   OH264333   6.215   0.193  14.296  0.2570 -0.5587  0.6743
14281TIP3    H164334   6.302   0.187  14.256 -0.4128  1.4229 -1.1718
14281TIP3    H264335   6.176   0.271  14.257 -2.4402 -1.5240  1.3417
14282TIP3   OH264336   5.951   0.666   0.649  0.0824  0.3342  0.7716
14282TIP3    H164337   5.978   0.577   0.625 -2.0405  0.1824 -1.2763
14282TIP3    H264338   5.865   0.655   0.689 -0.3972  1.4829  0.0792
14283TIP3   OH264339   2.717   4.199   2.266 -0.5164 -0.4271  0.5745
14283TIP3    H164340   2.767   4.118   2.270  0.4933 -0.1001 -3.3003
14283TIP3    H264341   2.647   4.180   2.203 -0.8075  1.4019  0.3256
14284TIP3   OH264342   0.324   5.437  13.221 -1.0227 -0.1067  0.0612
14284TIP3    H164343   0.340   5.353  13.178  0.6857  0.3195 -0.1847
14284TIP3    H264344   0.287   5.492  13.151 -1.7272 -0.5144  0.1083
14285TIP3   OH264345   6.610   0.922   0.180  0.6261  0.0689  0.5911
14285TIP3    H164346   6.546   0.985   0.147 -0.5414 -1.6547 -0.5290
14285TIP3    H264347   6.647   0.964   0.257 -0.0781  2.1467 -0.1513
14286TIP3   OH264348   0.563   0.296  12.205  0.0101  0.7132  0.0076
14286TIP3    H164349   0.632   0.362  12.193  0.2195  1.0812  2.8075
14286TIP3    H264350   0.482   0.347  12.209 -0.2919  0.4082 -1.8418
14287TIP3   OH264351   4.427   5.594   4.567  0.0023 -0.3029  0.4283
14287TIP3    H164352   4.343   5.638   4.558 -0.5926 -1.4199  0.4641
14287TIP3    H264353   4.406   5.509   4.605  1.2344 -0.2809  1.1873
14288TIP3   OH264354   0.005   4.365   5.642 -0.5051 -0.1034 -0.1505
14288TIP3    H164355  -0.031   4.447   5.676  0.6741  0.5614 -0.4747
14288TIP3    H264356  -0.044   4.296   5.687  0.9297  0.7353  2.7833
14289TIP3   OH264357   1.348   1.129  11.903  0.1900 -0.1034  0.5164
14289TIP3    H164358   1.332   1.169  11.989 -0.0921 -1.1004  0.9284
14289TIP3    H264359   1.422   1.070  11.918 -1.6071 -2.3588  0.7345
14290TIP3   OH264360   5.625   5.747  11.909  0.1629 -0.0733 -0.3330
14290TIP3    H164361   5.645   5.798  11.831 -0.2281 -1.6933 -1.5349
14290TIP3    H264362   5.589   5.810  11.971  3.7156  1.8950 -0.1211
14291TIP3   OH264363   3.183   4.188  16.142  0.0810  0.0084  0.3471
14291TIP3    H164364   3.183   4.266  16.199  0.0998  0.2063  0.0767
14291TIP3    H264365   3.101   4.144  16.162 -1.1187  1.4382 -1.3320
14292TIP3   OH264366   5.088   0.317  14.718 -0.0790 -0.2006  0.5005
14292TIP3    H164367   5.121   0.392  14.768 -1.0342 -0.2844  1.2805
14292TIP3    H264368   5.005   0.295  14.761 -2.3219  1.4420 -2.7176
14293TIP3   OH264369   2.779   4.481   5.116 -0.1701 -0.3193 -0.0211
14293TIP3    H164370   2.717   4.495   5.045 -1.4373 -2.8678  0.5343
14293TIP3    H264371   2.724   4.457   5.191  1.4385 -2.1412  0.6003
14294TIP3   OH264372   5.667   4.519  13.421  0.0360  0.4336  0.2039
14294TIP3    H164373   5.721   4.444  13.395 -0.4680  0.4766 -0.9931
14294TIP3    H264374   5.600   4.482  13.478 -0.8110 -0.2157 -1.1775
14295TIP3   OH264375   5.624   2.440  17.099 -0.2208 -0.2650  0.1298
14295TIP3    H164376   5.689   2.505  17.125 -1.1976  1.1658 -0.9337
14295TIP3    H264377   5.663   2.395  17.025  0.3932 -0.8095  0.7720
14296TIP3   OH264378   5.273   1.215  15.843  0.2761 -0.0979  0.6166
14296TIP3    H164379   5.340   1.148  15.859  1.4059  0.9107  0.2156
14296TIP3    H264380   5.304   1.292  15.892  0.7689  1.1969 -1.6395
14297TIP3   OH264381   5.144   2.930   6.356 -0.3043  0.2467  0.0677
14297TIP3    H164382   5.110   2.844   6.377 -1.3793  0.5112 -0.5731
14297TIP3    H264383   5.230   2.933   6.398  0.1842 -1.5119 -0.7973
14298TIP3   OH264384   5.766   5.051  15.856 -0.2997 -0.0797 -0.2874
14298TIP3    H164385   5.723   4.975  15.818  0.5190 -1.4067  1.3478
14298TIP3    H264386   5.847   5.060  15.808  0.1061 -0.9276  0.2203
14299TIP3   OH264387   1.716   5.237  12.477 -0.0709  0.4414 -0.4585
14299TIP3    H164388   1.744   5.296  12.407  0.0878  0.2202 -0.5810
14299TIP3    H264389   1.758   5.153  12.457  1.0901  0.7336  0.6472
14300TIP3   OH264390   3.007   0.498  15.493 -0.3865 -0.3097  0.2965
14300TIP3    H164391   2.967   0.533  15.413  1.0265 -1.9093 -1.1431
14300TIP3    H264392   2.953   0.422  15.516  0.0814 -0.7134  0.0465
14301TIP3   OH264393   5.559   4.727  13.570  0.0017  0.1895 -0.5719
14301TIP3    H164394   5.518   4.686  13.647 -1.9106 -0.7808 -2.0377
14301TIP3    H264395   5.620   4.661  13.538 -0.6058 -0.1915 -0.9709
14302TIP3   OH264396   2.678   1.186   1.994 -0.1595 -0.2879 -0.0446
14302TIP3    H164397   2.614   1.122   1.964 -1.7072  0.3334  1.8760
14302TIP3    H264398   2.628   1.250   2.044  1.9526  0.1458  1.6166
14303TIP3   OH264399   6.358   1.148  14.855 -0.9885 -0.9162 -0.2824
14303TIP3    H164400   6.321   1.217  14.800  1.8236  2.0117  1.3091
14303TIP3    H264401   6.302   1.146  14.932 -0.3901  0.5724  0.2309
14304TIP3   OH264402   4.058   5.509   0.203  0.1171 -0.6494 -0.1178
14304TIP3    H164403   4.133   5.454   0.181  1.8023  2.1632 -1.5989
14304TIP3    H264404   4.016   5.527   0.119 -1.8904 -1.6721  0.6269
14305TIP3   OH264405   2.263   0.078  14.717 -0.3948  0.2995 -0.1178
14305TIP3    H164406   2.276   0.069  14.622 -1.2278  0.4338 -0.2442
14305TIP3    H264407   2.339   0.034  14.755  0.9286  1.8749 -0.8703
14306TIP3   OH264408   2.530   4.966  11.467  0.2730  0.0563  0.3178
14306TIP3    H164409   2.563   5.046  11.427  1.0233 -0.5798 -0.3686
14306TIP3    H264410   2.437   4.982  11.481  0.6100  1.4110  1.1113
14307TIP3   OH264411   6.363   0.705   0.227  0.6232 -0.2791 -0.3322
14307TIP3    H164412   6.398   0.776   0.173 -1.8571 -0.7298 -2.6339
14307TIP3    H264413   6.358   0.742   0.315  0.5199  1.9930 -1.2644
14308TIP3   OH264414   1.572   4.607  11.073 -0.3613  0.0443  0.4693
14308TIP3    H164415   1.513   4.661  11.126 -0.0236 -0.1751  1.0763
14308TIP3    H264416   1.515   4.543  11.030 -0.7635  0.9076 -0.2784
14309TIP3   OH264417   3.996   5.614   2.132 -0.2725  0.4193  0.3253
14309TIP3    H164418   4.066   5.598   2.195 -0.5124 -1.2940  0.1809
14309TIP3    H264419   4.008   5.546   2.065 -0.1850  2.0292 -1.3254
14310TIP3   OH264420   5.230   4.514  10.073  0.2325 -0.1905 -0.3815
14310TIP3    H164421   5.278   4.452  10.019  1.8023 -0.2933  1.0787
14310TIP3    H264422   5.178   4.459  10.132 -0.2460 -0.0834 -0.6948
14311TIP3   OH264423   4.076   1.091  12.663 -0.0479  0.5976  0.1282
14311TIP3    H164424   4.031   1.031  12.723  0.5408 -0.0802 -0.0946
14311TIP3    H264425   4.103   1.165  12.718 -0.6653  0.5985  0.4323
14312TIP3   OH264426   3.341   6.110   3.179  0.1335  0.1768  0.1572
14312TIP3    H164427   3.308   6.087   3.266  0.7994  2.1009  0.9511
14312TIP3    H264428   3.414   6.049   3.164 -0.7264 -0.9348  0.4310
14313TIP3   OH264429   3.778   0.736   1.025 -0.3062 -0.1236 -0.3628
14313TIP3    H164430   3.792   0.827   1.000 -0.8809 -0.6767 -2.8845
14313TIP3    H264431   3.862   0.693   1.011  0.4932  0.3450  2.6198
14314TIP3   OH264432   2.124   0.879  14.653 -0.2441  0.6181 -0.2864
14314TIP3    H164433   2.029   0.890  14.644 -0.4397  2.6099  3.2691
14314TIP3    H264434   2.158   0.968  14.664  1.9867 -0.1173 -1.0451
14315TIP3   OH264435   3.095   1.724  13.010 -0.4878  0.0616 -0.2473
14315TIP3    H164436   3.047   1.803  13.035 -1.5210 -0.7325  0.2685
14315TIP3    H264437   3.090   1.668  13.087 -0.6930 -0.9693 -1.0125
14316TIP3   OH264438   5.907   6.662  11.139 -0.5637  0.6118 -0.0799
14316TIP3    H164439   5.931   6.716  11.214 -0.3732  0.8098 -0.2814
14316TIP3    H264440   5.826   6.701  11.107  0.2542  1.5790 -1.0111
14317TIP3   OH264441   0.844   5.307  13.938 -0.4335 -0.1521 -0.4667
14317TIP3    H164442   0.924   5.289  13.888  0.3691  0.3462  0.5976
14317TIP3    H264443   0.776   5.319  13.872  0.5017 -0.0230 -1.4187
14318TIP3   OH264444   4.764   5.089  15.064  0.0281 -0.0604 -0.2792
14318TIP3    H164445   4.819   5.012  15.054 -0.7457 -0.5224 -1.0461
14318TIP3    H264446   4.817   5.150  15.115  0.2833 -1.4536  1.1476
14319TIP3   OH264447   4.374   4.020  12.540  0.0493 -0.0241 -0.3208
14319TIP3    H164448   4.283   4.010  12.512 -0.2162 -0.3856  0.6628
14319TIP3    H264449   4.378   3.977  12.625  0.7244  1.5211  0.4448
14320TIP3   OH264450   3.535   0.529   2.585 -0.1916 -0.6188  0.2342
14320TIP3    H164451   3.520   0.612   2.539 -1.4969 -1.3075 -0.6241
14320TIP3    H264452   3.580   0.554   2.666 -0.6287  0.9229  0.0181
14321TIP3   OH264453   4.077   1.006   0.368 -0.0658  0.3374  0.1698
14321TIP3    H164454   4.061   1.097   0.393 -0.3022 -0.1495  1.8304
14321TIP3    H264455   3.994   0.961   0.385  1.3632 -1.1103  3.7949
14322TIP3   OH264456   2.294   3.398  15.459 -0.5998  0.0217 -0.3907
14322TIP3    H164457   2.318   3.346  15.382 -0.1815 -1.5214  0.7707
14322TIP3    H264458   2.238   3.341  15.511 -2.3365  1.6843 -0.3828
14323TIP3   OH264459   1.614   1.922   0.789 -0.0416  0.1257 -0.1862
14323TIP3    H164460   1.531   1.944   0.831 -0.6648 -1.0626 -0.7643
14323TIP3    H264461   1.610   1.827   0.777  1.2888  0.0995 -0.4543
14324TIP3   OH264462   6.090   6.170   4.567 -0.2318 -0.7258 -0.4199
14324TIP3    H164463   6.146   6.247   4.559 -0.9475 -0.1805 -0.1661
14324TIP3    H264464   6.084   6.136   4.477  0.9568 -1.1147 -0.3672
14325TIP3   OH264465   1.136   2.923   4.823  0.2752 -0.6407  0.2085
14325TIP3    H164466   1.076   2.863   4.867 -0.1452  0.0283  0.5592
14325TIP3    H264467   1.107   3.010   4.850  2.2523 -0.3531  1.4929
14326TIP3   OH264468   3.162   5.805   3.968  0.2570 -0.2001 -0.4283
14326TIP3    H164469   3.190   5.850   3.888 -1.7861 -1.2641 -1.7797
14326TIP3    H264470   3.142   5.716   3.940  0.1662 -0.7883  1.4239
14327TIP3   OH264471   5.701   1.401   2.888 -0.0665 -0.2235  0.5135
14327TIP3    H164472   5.779   1.401   2.832  0.1007  0.3038  0.7433
14327TIP3    H264473   5.731   1.434   2.972 -0.8210  1.3543  0.1948
14328TIP3   OH264474   3.015   0.060   6.364  0.3686  0.0432 -0.1683
14328TIP3    H164475   3.012  -0.009   6.430  1.1519  0.4102  0.2606
14328TIP3    H264476   2.932   0.107   6.375 -0.8792 -1.7614 -1.5125
14329TIP3   OH264477   2.974   2.639  15.193  0.1596  0.5942  0.1007
14329TIP3    H164478   2.926   2.569  15.148  0.2398  0.0093  0.9112
14329TIP3    H264479   2.907   2.684  15.244  0.2352  0.6355  0.1627
14330TIP3   OH264480   6.701   2.861   1.428  0.6661 -0.7158  0.1960
14330TIP3    H164481   6.618   2.844   1.473  0.5440 -0.6040  0.0094
14330TIP3    H264482   6.678   2.916   1.354  1.0002 -0.1229  0.5282
14331TIP3   OH264483   1.907   6.132   2.452  0.0230 -0.0439 -0.3814
14331TIP3    H164484   1.933   6.154   2.542 -0.9780 -1.4213  0.2596
14331TIP3    H264485   1.984   6.151   2.400  1.1028 -0.5897  0.9819
14332TIP3   OH264486   1.761   0.216   1.008 -0.6746  0.4784  0.4771
14332TIP3    H164487   1.747   0.217   0.913  0.0855  0.9725  0.3660
14332TIP3    H264488   1.708   0.143   1.039 -0.5485  0.0080 -0.3911
14333TIP3   OH264489   3.479   2.649   0.916  0.5055 -0.7696  0.2221
14333TIP3    H164490   3.553   2.659   0.856  1.1822  0.0913  1.1926
14333TIP3    H264491   3.510   2.586   0.981  0.2295 -0.7304  0.3911
14334TIP3   OH264492   3.032   4.620   4.260  0.0451  0.3202 -0.7249
14334TIP3    H164493   3.092   4.668   4.317  0.6731 -0.5041 -0.6736
14334TIP3    H264494   3.066   4.530   4.261 -2.4734 -0.6856  1.1454
14335TIP3   OH264495   4.814   6.770   5.009 -0.7306 -0.5445 -0.1568
14335TIP3    H164496   4.832   6.772   5.103 -0.9786 -0.0987 -0.1179
14335TIP3    H264497   4.898   6.746   4.970  0.3057  2.6736 -0.0578
14336TIP3   OH264498   1.532   3.838   4.821 -0.6936 -0.2267  0.1303
14336TIP3    H164499   1.471   3.896   4.867 -0.7682  0.2772 -0.5985
14336TIP3    H264500   1.546   3.765   4.881 -0.9246  0.3450  0.8799
14337TIP3   OH264501   6.095   3.129  11.938 -0.1494  0.3296 -0.1983
14337TIP3    H164502   6.183   3.166  11.938  0.5673 -1.3224  0.0020
14337TIP3    H264503   6.048   3.177  12.006  0.7187  0.9584 -0.0411
14338TIP3   OH264504   1.543   1.436  14.275  0.1415 -0.2423 -0.5755
14338TIP3    H164505   1.575   1.509  14.328  0.3215 -0.6209 -0.1542
14338TIP3    H264506   1.509   1.477  14.195 -1.9184  0.5318  0.6570
14339TIP3   OH264507   0.320   1.324  16.014 -0.1522  0.4747  0.0224
14339TIP3    H164508   0.373   1.309  15.936 -1.0487  0.2627 -0.5547
14339TIP3    H264509   0.382   1.322  16.087  0.4332 -1.1165 -0.5199
14340TIP3   OH264510   2.994   4.032  14.011  0.0607  0.6316 -0.1041
14340TIP3    H164511   3.045   4.085  13.950  2.1090 -1.6290 -0.4502
14340TIP3    H264512   2.985   3.947  13.966 -0.7187 -0.2018  1.5951
14341TIP3   OH264513   3.676   3.182   4.720  0.0936  0.1565 -0.3378
14341TIP3    H164514   3.646   3.228   4.798 -0.5166 -0.8725  0.0492
14341TIP3    H264515   3.657   3.243   4.648 -2.4825 -0.2272 -0.0499
14342TIP3   OH264516   5.169   6.453  11.414  0.0807 -0.1769 -0.5327
14342TIP3    H164517   5.078   6.479  11.403  0.4151  0.2449 -2.4289
14342TIP3    H264518   5.218   6.535  11.405  0.6390 -0.3717  0.6858
14343TIP3   OH264519   5.061   0.046  13.666  0.9063 -0.6886  0.0989
14343TIP3    H164520   5.022   0.126  13.701 -0.1602 -1.6023  1.0241
14343TIP3    H264521   5.145   0.039  13.713  0.1217 -1.1513  1.4709
14344TIP3   OH264522   2.671   2.099  16.452  0.3309  0.4803  0.0656
14344TIP3    H164523   2.682   2.100  16.357  0.9361 -0.4785  0.1112
14344TIP3    H264524   2.755   2.065  16.485 -0.7614 -1.6207  0.7782
14345TIP3   OH264525   1.473   3.930  17.095 -0.3519  0.2282  0.0033
14345TIP3    H164526   1.515   3.851  17.060  0.2854  0.1849  0.8474
14345TIP3    H264527   1.400   3.946  17.036  1.3580  0.8080 -2.0274
14346TIP3   OH264528   3.752   5.315   4.548  0.0403 -0.1937 -0.1862
14346TIP3    H164529   3.797   5.400   4.547  0.7130 -0.5407  0.0966
14346TIP3    H264530   3.800   5.264   4.612 -1.3573 -0.2624  0.8273
14347TIP3   OH264531   4.229   6.659   0.829 -0.0037  0.2618  0.5284
14347TIP3    H164532   4.177   6.734   0.798 -0.9429 -0.3280  0.6546
14347TIP3    H264533   4.248   6.680   0.921 -0.3480  0.3040  0.5920
14348TIP3   OH264534   5.435   6.157  14.262 -0.3178  0.0353  0.1538
14348TIP3    H164535   5.452   6.131  14.353  0.7098 -0.9511 -0.3110
14348TIP3    H264536   5.498   6.107  14.211 -0.8171  0.6779 -1.1019
14349TIP3   OH264537   4.779   5.240   5.085 -0.3136 -0.0063  0.0066
14349TIP3    H164538   4.840   5.298   5.132 -2.1290  2.9831 -1.2080
14349TIP3    H264539   4.823   5.223   5.001 -0.5574  1.0852 -0.3482
14350TIP3   OH264540   3.931   4.031   1.533  0.1732 -0.0120  0.0548
14350TIP3    H164541   3.986   3.963   1.493  0.8141 -0.3151  1.4392
14350TIP3    H264542   3.895   4.080   1.458  0.7631 -1.0408 -0.9076
14351TIP3   OH264543   5.119   2.304   4.432  0.2994  0.5526  0.1155
14351TIP3    H164544   5.189   2.362   4.402 -0.4722  2.1063  1.2340
14351TIP3    H264545   5.070   2.357   4.495 -0.7553 -1.1475  0.7518
14352TIP3   OH264546   3.206   5.534   1.899 -0.1762  0.4838  0.3430
14352TIP3    H164547   3.162   5.593   1.960  0.7062 -0.1901  1.6535
14352TIP3    H264548   3.263   5.590   1.847 -0.3600  0.9608  0.6553
14353TIP3   OH264549   6.522   5.052   4.251  0.0304  0.1227 -0.2278
14353TIP3    H164550   6.539   5.064   4.158  0.0083 -0.3955 -0.2990
14353TIP3    H264551   6.482   5.135   4.279  4.5584  2.2143  0.4170
14354TIP3   OH264552   2.380   0.978   4.342  0.4237  0.1332  0.1089
14354TIP3    H164553   2.373   0.957   4.435 -2.0291 -2.4739 -0.5919
14354TIP3    H264554   2.328   1.057   4.331 -1.3703 -0.9557  0.5733
14355TIP3   OH264555   5.403   5.522  11.106  0.1584 -0.3641  0.2299
14355TIP3    H164556   5.331   5.490  11.160 -0.0223  0.3482  0.4249
14355TIP3    H264557   5.482   5.488  11.148 -0.0236 -0.4556  0.4955
14356TIP3   OH264558   2.703   1.608   0.706  0.1656 -0.4619  0.0289
14356TIP3    H164559   2.751   1.541   0.657  0.3703 -0.4691  0.2391
14356TIP3    H264560   2.753   1.619   0.787 -0.0828 -0.3329  0.1650
14357TIP3   OH264561   6.656   6.233  15.790 -0.4453  0.0336 -0.0074
14357TIP3    H164562   6.627   6.210  15.878  1.9062 -0.0611  0.7931
14357TIP3    H264563   6.708   6.158  15.761  0.7603  1.0450 -0.5157
14358TIP3   OH264564   0.231   4.676  15.386  0.6687 -0.0860 -0.0486
14358TIP3    H164565   0.195   4.614  15.323  0.6991  0.2258 -0.3708
14358TIP3    H264566   0.279   4.622  15.448  0.3140 -0.4303 -0.0693
14359TIP3   OH264567   1.832   2.442  12.968  0.0139  0.5379  0.4197
14359TIP3    H164568   1.922   2.452  12.936 -0.2488  1.8178  0.0384
14359TIP3    H264569   1.797   2.368  12.919  0.6099  0.5491 -0.0279
14360TIP3   OH264570   4.687   4.579   2.000 -0.4188  0.1701 -0.6255
14360TIP3    H164571   4.603   4.624   1.990 -0.6778 -0.1553  0.0900
14360TIP3    H264572   4.667   4.503   2.054  0.3605  0.1533 -0.3617
14361TIP3   OH264573   6.639   5.948  16.734  0.0583 -0.4025 -0.0313
14361TIP3    H164574   6.680   5.884  16.676 -2.2347 -1.4496 -0.5321
14361TIP3    H264575   6.603   6.015  16.675 -0.6019 -0.4624  0.3111
14362TIP3   OH264576   0.061   1.209   4.152  0.4034  0.7197  0.1298
14362TIP3    H164577   0.043   1.282   4.093  0.0196  1.8191  1.5645
14362TIP3    H264578   0.149   1.180   4.129 -0.0035  0.6548 -1.4419
14363TIP3   OH264579   4.164   1.333   1.544  0.0090  0.1199 -0.0211
14363TIP3    H164580   4.133   1.411   1.498 -1.9041 -0.4261  0.2990
14363TIP3    H264581   4.179   1.362   1.634 -0.0110  0.2837 -0.0702
14364TIP3   OH264582   3.143   3.850  12.518  0.2903  0.0127  0.1412
14364TIP3    H164583   3.094   3.910  12.462 -0.4972  1.5606  2.4451
14364TIP3    H264584   3.077   3.810  12.574  1.1808 -0.8237  0.6013
14365TIP3   OH264585   2.719   2.693  16.095  0.0011  0.1051 -0.7170
14365TIP3    H164586   2.741   2.786  16.088 -0.0230  0.5248  3.5803
14365TIP3    H264587   2.626   2.692  16.116  0.2003 -0.8350  0.1676
14366TIP3   OH264588   3.867   1.999   4.522 -0.1336 -0.4445  0.3045
14366TIP3    H164589   3.868   2.002   4.618 -1.9069  0.0841  0.3210
14366TIP3    H264590   3.776   1.979   4.499  0.4105 -1.1860 -1.2570
14367TIP3   OH264591   6.465   2.125  15.653  0.8453  0.1284  0.3948
14367TIP3    H164592   6.404   2.198  15.666  0.5923  0.0164 -0.1285
14367TIP3    H264593   6.413   2.059  15.607  0.6501 -0.9628  2.1427
14368TIP3   OH264594   5.591   3.974  16.175 -0.8151 -0.0913  0.2363
14368TIP3    H164595   5.550   3.968  16.261  0.7181  0.6047  1.0353
14368TIP3    H264596   5.685   3.967  16.192 -0.5144 -0.5168 -1.4385
14369TIP3   OH264597   1.694   6.031   1.521  0.1426  0.6874  0.9311
14369TIP3    H164598   1.770   6.014   1.465 -1.9331 -0.6428 -1.5892
14369TIP3    H264599   1.620   6.036   1.461 -1.8768  1.4525  3.3734
14370TIP3   OH264600   6.596   2.061  14.456  0.0367 -0.0273  0.1204
14370TIP3    H164601   6.510   2.098  14.438  0.8064  1.6114 -0.3303
14370TIP3    H264602   6.588   1.969  14.433 -2.3554 -0.5191  2.6550
14371TIP3   OH264603   2.550   6.260   0.242 -0.3469  0.5523 -0.0753
14371TIP3    H164604   2.586   6.254   0.153  1.2284  2.3674  0.4022
14371TIP3    H264605   2.494   6.337   0.239 -0.7812  0.2498  0.3395
14372TIP3   OH264606   0.132   4.077   2.709  0.1382  0.1018 -0.2988
14372TIP3    H164607   0.114   4.104   2.799  0.4393  2.6491 -0.9784
14372TIP3    H264608   0.214   4.122   2.687 -1.5144  1.9124 -2.8745
14373TIP3   OH264609   1.125   1.881   4.474  0.4545  0.0306 -0.0581
14373TIP3    H164610   1.050   1.936   4.495  1.1158  0.8970  0.0350
14373TIP3    H264611   1.183   1.888   4.550  0.9539 -0.0801 -0.4233
14374TIP3   OH264612   5.391   1.135   4.352 -0.2029 -0.0380 -0.1369
14374TIP3    H164613   5.406   1.058   4.407 -1.1704 -1.4963 -1.8702
14374TIP3    H264614   5.478   1.175   4.343  0.0351  0.0161  2.1050
14375TIP3   OH264615   3.247   1.171  11.858  0.0426 -0.0434 -1.3193
14375TIP3    H164616   3.318   1.210  11.908 -0.2650 -0.3410 -0.6456
14375TIP3    H264617   3.267   1.193  11.767  0.3069  0.9738 -1.0183
14376TIP3   OH264618   2.715   0.695   0.619  0.5843 -0.0742  0.3848
14376TIP3    H164619   2.655   0.712   0.546  0.6991 -0.5107  0.1868
14376TIP3    H264620   2.739   0.603   0.609  0.4475 -0.1860  1.0900
14377TIP3   OH264621   3.724   0.026  12.998  0.1649  0.3191  0.1722
14377TIP3    H164622   3.783  -0.045  12.973  0.1736 -0.1690  1.5275
14377TIP3    H264623   3.636  -0.007  12.979  0.2587  0.5738 -0.7080
14378TIP3   OH264624   2.404   5.070   2.074  0.0424 -0.1617 -0.1167
14378TIP3    H164625   2.352   4.990   2.063 -0.2514  0.1281 -0.8508
14378TIP3    H264626   2.354   5.137   2.029  1.5457 -0.0794 -1.6772
14379TIP3   OH264627   2.582   4.696   3.181  0.0990 -0.6376  0.1756
14379TIP3    H164628   2.529   4.625   3.216 -0.5626 -0.3357 -0.2067
14379TIP3    H264629   2.545   4.715   3.095 -0.1135  0.5572  0.5143
14380TIP3   OH264630   1.835   6.162  17.008 -0.3881 -0.3057  0.0461
14380TIP3    H164631   1.902   6.167  16.939 -1.2446  1.8819 -0.6718
14380TIP3    H264632   1.793   6.077  16.994 -0.6395  0.1482 -2.2491
14381TIP3   OH264633   3.069   4.563  14.625  0.0940 -0.3607 -0.2294
14381TIP3    H164634   2.977   4.587  14.632  0.3747  1.0231 -1.1153
14381TIP3    H264635   3.069   4.483  14.572 -0.3996  1.3935 -3.0010
14382TIP3   OH264636   0.813   1.747   3.429  0.7551  0.3217 -0.3820
14382TIP3    H164637   0.758   1.820   3.460  0.0661 -0.9229  1.4535
14382TIP3    H264638   0.765   1.711   3.355  0.4676  0.9670 -0.5118
14383TIP3   OH264639   2.297   3.203   3.596 -0.3349  0.0743  0.0067
14383TIP3    H164640   2.309   3.115   3.631 -1.3661 -0.3684 -0.7373
14383TIP3    H264641   2.369   3.215   3.535  0.9358  0.4977  1.5559
14384TIP3   OH264642   0.656   3.375  16.419 -0.2568 -0.5484 -1.0159
14384TIP3    H164643   0.731   3.315  16.412  1.5826  1.3311  1.5527
14384TIP3    H264644   0.649   3.414  16.332  0.8956 -1.7574 -1.6796
14385TIP3   OH264645   5.942   4.415  13.733 -0.1311  0.3694 -0.0263
14385TIP3    H164646   5.944   4.391  13.640 -0.6212 -0.8086  0.2562
14385TIP3    H264647   5.858   4.458  13.745 -0.0347  0.5917 -0.1461
14386TIP3   OH264648   5.952   3.035   3.318  0.0264 -0.0569 -0.1106
14386TIP3    H164649   5.898   3.112   3.306 -0.3789 -0.0865  1.4931
14386TIP3    H264650   6.041   3.065   3.303 -0.1049  0.7861  0.7938
14387TIP3   OH264651   5.038   5.912  11.178  0.2798 -0.2245  0.1440
14387TIP3    H164652   5.127   5.949  11.177 -0.2209  0.9598 -1.3571
14387TIP3    H264653   5.020   5.891  11.087 -0.7600 -1.0553  0.5362
14388TIP3   OH264654   2.944   4.491  16.773  0.1100 -0.0624  0.3329
14388TIP3    H164655   2.966   4.400  16.754  0.0526  0.2559 -1.3503
14388TIP3    H264656   2.943   4.533  16.687 -0.4490  1.3927  1.0500
14389TIP3   OH264657   6.551   6.733   5.657 -0.1013 -0.4581  0.1762
14389TIP3    H164658   6.497   6.720   5.735 -0.7381  0.4356 -0.1062
14389TIP3    H264659   6.627   6.782   5.689 -0.3204 -0.1682  0.2613
14390TIP3   OH264660   4.035   0.657  15.296  0.3561 -0.2252 -0.2265
14390TIP3    H164661   3.971   0.616  15.238  0.4127  0.8045 -1.0372
14390TIP3    H264662   3.985   0.679  15.375 -0.2919  0.4990 -0.8213
14391TIP3   OH264663   6.629   1.115   5.423 -0.1921  0.1485 -0.2025
14391TIP3    H164664   6.693   1.104   5.493  1.0097 -2.9169 -1.6891
14391TIP3    H264665   6.675   1.089   5.343 -2.6438 -0.1372 -1.6004
14392TIP3   OH264666   3.037   4.328  11.928 -0.0406 -0.1753 -0.1164
14392TIP3    H164667   3.045   4.233  11.939 -1.0978 -0.1934  0.5719
14392TIP3    H264668   3.016   4.339  11.836  2.6049 -0.4350 -0.7838
14393TIP3   OH264669   4.692   5.944  15.417 -0.4413 -0.7593  0.0255
14393TIP3    H164670   4.769   5.939  15.361  1.2219  3.7849  1.6502
14393TIP3    H264671   4.620   5.966  15.357  0.3063 -1.1349 -1.0059
14394TIP3   OH264672   5.691   6.394   2.280  0.1522  0.0099 -0.5986
14394TIP3    H164673   5.660   6.457   2.346  0.2512 -0.8887  0.3225
14394TIP3    H264674   5.633   6.407   2.205 -1.2286 -0.3088  0.3870
14395TIP3   OH264675   0.789   6.759  14.105  0.1077  0.0567 -0.6346
14395TIP3    H164676   0.795   6.750  14.200 -1.4576 -0.4930 -0.5761
14395TIP3    H264677   0.721   6.697  14.079  1.2311 -0.5294 -2.2378
14396TIP3   OH264678   6.368   1.880   4.078 -0.3998  0.1904  0.2175
14396TIP3    H164679   6.357   1.785   4.086  1.5790 -0.0794  0.0134
14396TIP3    H264680   6.350   1.914   4.166  0.7345 -0.5960  0.7780
14397TIP3   OH264681   1.707   1.638   4.767  0.4459  0.0283 -0.7173
14397TIP3    H164682   1.730   1.546   4.783 -0.0491 -0.0617 -0.5241
14397TIP3    H264683   1.791   1.681   4.750  0.7199 -0.3771 -0.3924
14398TIP3   OH264684   5.406   0.263   0.019  0.0881  0.0865 -0.3329
14398TIP3    H164685   5.404   0.185   0.075 -1.7236  0.7863  0.6071
14398TIP3    H264686   5.464   0.324   0.065 -2.1324  1.0150  1.3170
14399TIP3   OH264687   5.674   1.557   0.293  0.8767 -0.5851  0.2518
14399TIP3    H164688   5.639   1.553   0.383 -2.2869 -1.6341 -0.9526
14399TIP3    H264689   5.668   1.649   0.270 -0.4122 -0.6223  0.3656
14400TIP3   OH264690   0.327   3.913   4.333 -0.1483  0.0242  0.3848
14400TIP3    H164691   0.359   3.852   4.267 -0.1127 -0.0908  0.5083
14400TIP3    H264692   0.405   3.934   4.385  0.0667  0.9757 -0.2928
14401TIP3   OH264693   3.326   3.111   4.322  0.1992  0.2134 -0.1012
14401TIP3    H164694   3.246   3.160   4.303  0.2026  0.6051  0.8922
14401TIP3    H264695   3.297   3.039   4.378  0.3642 -0.3286 -0.6992
14402TIP3   OH264696   3.227   0.746   2.466  0.4319  0.9670  0.4086
14402TIP3    H164697   3.200   0.683   2.532  0.8284  0.0172 -0.3203
14402TIP3    H264698   3.145   0.774   2.425  0.3448 -0.1075 -0.1798
14403TIP3   OH264699   5.399   0.789  16.898  0.4795 -0.6594 -0.3875
14403TIP3    H164700   5.337   0.810  16.968 -0.8191 -0.7737 -1.4819
14403TIP3    H264701   5.375   0.848  16.826  0.9549 -1.4407 -1.2004
14404TIP3   OH264702   4.962   0.762   0.173  0.3682  0.0698  0.3723
14404TIP3    H164703   4.961   0.673   0.208  1.2678 -1.0236 -2.2167
14404TIP3    H264704   4.909   0.756   0.093 -0.6090  2.1646  0.8389
14405TIP3   OH264705   6.656   5.009  16.758 -0.4383  0.2504 -0.2439
14405TIP3    H164706   6.724   4.942  16.764  0.7446  1.3045 -1.7130
14405TIP3    H264707   6.641   5.036  16.849  1.0060 -0.0863  0.0969
14406TIP3   OH264708   4.575   0.603   4.674  0.0511  0.3949 -0.3532
14406TIP3    H164709   4.652   0.652   4.644  0.6438 -0.4151 -0.1711
14406TIP3    H264710   4.512   0.611   4.603  0.7698  0.0128 -1.0379
14407TIP3   OH264711   3.388   4.588   6.673 -0.1292  0.1734  0.3664
14407TIP3    H164712   3.317   4.648   6.696  0.4711  1.5913 -1.3460
14407TIP3    H264713   3.357   4.544   6.594  0.7732  0.5766 -0.2177
14408TIP3   OH264714   3.687   6.320  12.046  0.1321  0.0218  0.0542
14408TIP3    H164715   3.600   6.347  12.074  0.6518  1.9041 -0.0475
14408TIP3    H264716   3.690   6.343  11.953  1.4181  1.8527  0.5245
14409TIP3   OH264717   5.182   0.871   0.304 -0.1517  0.4134 -0.2058
14409TIP3    H164718   5.156   0.857   0.395  0.7215 -1.8904 -0.2853
14409TIP3    H264719   5.114   0.828   0.253  1.3768 -1.6658 -0.5251
14410TIP3   OH264720   5.136   4.085  17.197 -0.2332  0.5283  0.1504
14410TIP3    H164721   5.117   4.173  17.231 -0.6775  0.7985 -0.7496
14410TIP3    H264722   5.213   4.097  17.142 -0.2970  0.3639  0.0227
14411TIP3   OH264723   3.338   6.341   5.664 -0.2086 -0.6218  0.3991
14411TIP3    H164724   3.410   6.287   5.632 -0.6403 -1.0985  0.2307
14411TIP3    H264725   3.283   6.280   5.714 -0.4235 -0.2308  0.6416
14412TIP3   OH264726   3.236   1.013  13.359 -0.2937  0.6601 -0.2597
14412TIP3    H164727   3.291   0.977  13.429 -1.7548  2.0780  1.6434
14412TIP3    H264728   3.261   1.105  13.354 -2.4316  1.2949  0.5546
14413TIP3   OH264729   2.901   1.226  11.203 -0.4922  0.0039 -0.4665
14413TIP3    H164730   2.958   1.277  11.261 -0.8381  0.1941 -0.2941
14413TIP3    H264731   2.825   1.203  11.257 -1.3795  1.2079 -1.1804
14414TIP3   OH264732   3.842   4.773  13.720 -0.1208  0.7649  0.7836
14414TIP3    H164733   3.755   4.734  13.733 -0.6720  1.4231 -0.7746
14414TIP3    H264734   3.874   4.734  13.638 -0.2651  2.7991 -0.2882
14415TIP3   OH264735   4.488   0.996  14.178  0.2616 -0.7365 -0.5734
14415TIP3    H164736   4.527   1.059  14.117  1.6594 -0.4018  0.6312
14415TIP3    H264737   4.402   1.033  14.198  0.6746  0.2790 -0.6425
14416TIP3   OH264738   0.844   6.357  11.511  0.4197 -0.0289 -0.4492
14416TIP3    H164739   0.937   6.364  11.490  1.3976 -0.4692  3.2765
14416TIP3    H264740   0.829   6.264  11.522  0.1143  0.1931  1.1660
14417TIP3   OH264741   5.348   0.485   0.355  0.2028  0.3621  0.2897
14417TIP3    H164742   5.339   0.576   0.328 -0.9146  0.7521  1.8975
14417TIP3    H264743   5.387   0.488   0.442 -0.9704 -0.6272  0.8741
14418TIP3   OH264744   2.232   1.868   5.608  0.6687 -0.4479 -0.3744
14418TIP3    H164745   2.206   1.815   5.683 -0.3274 -1.5184 -1.4409
14418TIP3    H264746   2.149   1.897   5.569  1.1966  1.1845 -0.3021
14419TIP3   OH264747   4.855   3.092  16.557  0.2931  0.2154  0.2531
14419TIP3    H164748   4.852   3.056  16.468  0.3358  0.0334  0.3225
14419TIP3    H264749   4.948   3.101  16.576  0.3183 -1.2756  0.8811
14420TIP3   OH264750   4.940   1.214  13.817 -0.0523  0.2462  0.0451
14420TIP3    H164751   4.927   1.288  13.876  0.4019  0.5964 -0.2926
14420TIP3    H264752   4.879   1.147  13.848  0.2728  0.3843  0.9857
14421TIP3   OH264753   5.966   5.509  15.016 -0.0522  0.3170  0.1699
14421TIP3    H164754   5.985   5.537  14.926 -1.8628  0.8507 -0.0794
14421TIP3    H264755   6.018   5.430  15.029  0.5960  0.5143 -1.1852
14422TIP3   OH264756   3.041   4.085  13.735  0.2281 -0.0941 -0.2733
14422TIP3    H164757   3.055   4.099  13.641 -2.4153  0.6486 -0.5951
14422TIP3    H264758   2.982   4.009  13.739 -0.3262  0.3938  0.7572
14423TIP3   OH264759   6.486   3.569   4.376  0.1976 -0.6408  0.8885
14423TIP3    H164760   6.461   3.482   4.345  0.4322  0.4078 -2.4598
14423TIP3    H264761   6.578   3.561   4.400  0.2660 -1.2880  0.4165
14424TIP3   OH264762   2.931   3.733  16.845  0.2449  0.0693  0.3173
14424TIP3    H164763   2.856   3.692  16.887  0.1127  0.3514  0.3573
14424TIP3    H264764   2.898   3.817  16.814 -0.4976 -1.4186 -3.1304
14425TIP3   OH264765   5.412   0.769   2.562  0.0111  0.1594  0.9595
14425TIP3    H164766   5.468   0.808   2.494 -2.8906 -0.3192 -1.8255
14425TIP3    H264767   5.443   0.678   2.568  0.6854  0.3694  0.7062
14426TIP3   OH264768   3.695   6.638   1.350 -1.2487  0.1739  0.4218
14426TIP3    H164769   3.635   6.644   1.424 -0.6292  2.1216  0.8025
14426TIP3    H264770   3.646   6.676   1.277 -1.2638 -0.2473  0.2099
14427TIP3   OH264771   4.605   2.937   0.000 -0.8621 -0.0110 -0.1372
14427TIP3    H164772   4.635   3.005  -0.060 -1.3642  0.3204 -0.0116
14427TIP3    H264773   4.667   2.939   0.073 -0.1561 -0.5213 -0.7151
14428TIP3   OH264774   1.852   1.616   3.745  0.0163 -0.2032 -0.4799
14428TIP3    H164775   1.913   1.549   3.777  0.2261  0.8301  1.3511
14428TIP3    H264776   1.903   1.697   3.748 -0.7464  0.2996 -1.1247
14429TIP3   OH264777   4.224   2.617   0.995  0.2060  0.3182 -0.1042
14429TIP3    H164778   4.151   2.584   1.048  0.8884  0.4659  0.9502
14429TIP3    H264779   4.187   2.691   0.946 -0.5998 -0.2286 -0.3361
14430TIP3   OH264780   0.285   2.995  11.624  0.5076  0.3930  0.4599
14430TIP3    H164781   0.258   2.932  11.690  0.4534  0.1363  0.1945
14430TIP3    H264782   0.293   3.078  11.671  0.7156  0.1604  0.8352
14431TIP3   OH264783   2.588   4.063  15.998 -0.0256  0.1631 -0.5934
14431TIP3    H164784   2.626   3.994  16.052  2.6162  1.4809 -0.6675
14431TIP3    H264785   2.534   4.113  16.059 -0.0468 -0.5762  0.0009
14432TIP3   OH264786   2.025   5.004   6.629  0.2348 -0.3396 -0.6602
14432TIP3    H164787   2.033   5.065   6.703  2.1695  0.0412 -1.1404
14432TIP3    H264788   2.072   4.926   6.658  1.7225  0.1118 -1.7523
14433TIP3   OH264789   5.830   1.742   0.892  0.2208 -0.0217  0.3836
14433TIP3    H164790   5.853   1.834   0.899 -0.9205  0.1788  1.8237
14433TIP3    H264791   5.847   1.719   0.801  0.8600  1.5186  0.1144
14434TIP3   OH264792   1.961   2.062   0.586  0.0865 -0.1969 -0.7793
14434TIP3    H164793   2.023   1.991   0.572  0.6106  0.0752  0.1487
14434TIP3    H264794   1.931   2.086   0.498 -1.4903 -2.7871 -0.9764
14435TIP3   OH264795   3.128   3.782  15.975  0.2974  0.4786  0.2649
14435TIP3    H164796   3.033   3.770  15.969  0.2198  1.0816  0.2740
14435TIP3    H264797   3.140   3.875  15.996  0.9534  0.9738 -2.0862
14436TIP3   OH264798   2.421   0.398   4.817  0.2993  0.9328 -0.0961
14436TIP3    H164799   2.494   0.335   4.825  0.6294  1.2832 -0.3255
14436TIP3    H264800   2.394   0.392   4.725  0.3822  1.1828 -0.1370
14437TIP3   OH264801   5.438   3.995   1.510  0.5604  0.4508 -0.4144
14437TIP3    H164802   5.501   3.991   1.581 -1.0689  0.4805  1.0554
14437TIP3    H264803   5.439   4.087   1.482  0.5147  0.6406  0.2058
14438TIP3   OH264804   0.966   5.121  16.730 -0.5143  1.0402  0.4591
14438TIP3    H164805   0.940   5.046  16.783  0.5080  2.0530  2.4843
14438TIP3    H264806   1.012   5.084  16.655  1.4131 -0.3228  2.2728
14439TIP3   OH264807   6.615   1.030   2.423  0.1412  0.0666 -0.4016
14439TIP3    H164808   6.535   1.058   2.379  0.1750  0.2142 -0.3702
14439TIP3    H264809   6.659   0.975   2.360  1.0969  1.7682 -1.2496
14440TIP3   OH264810   5.528   1.542   5.768 -0.1376  0.5194 -0.0625
14440TIP3    H164811   5.471   1.487   5.821 -1.2860  1.2341 -0.5435
14440TIP3    H264812   5.469   1.587   5.707  0.8731  1.6471 -0.2316
14441TIP3   OH264813   1.076   5.486  16.053 -0.1118  0.0792 -0.2812
14441TIP3    H164814   1.110   5.575  16.062  0.5084 -0.1683 -0.1249
14441TIP3    H264815   1.100   5.460  15.964 -1.6199  0.6056 -0.8707
14442TIP3   OH264816   1.196   4.661  12.792 -0.6935  0.4519  0.5393
14442TIP3    H164817   1.127   4.595  12.780  0.1661 -0.7293  1.9433
14442TIP3    H264818   1.255   4.622  12.856  1.2706  1.4624 -0.6251
14443TIP3   OH264819   3.482   2.771   3.499 -0.0812 -0.8375  0.3223
14443TIP3    H164820   3.449   2.682   3.510 -0.0701 -1.0165 -1.0173
14443TIP3    H264821   3.419   2.826   3.546 -2.0057 -1.2284 -1.7336
14444TIP3   OH264822   0.657   0.422  10.882 -0.4682  0.3932 -0.0589
14444TIP3    H164823   0.710   0.345  10.863 -0.2499  0.7266 -0.8345
14444TIP3    H264824   0.597   0.394  10.951  1.4383  0.3253  1.6128
14445TIP3   OH264825   2.713   3.567  16.944 -0.5280 -0.1362  0.0372
14445TIP3    H164826   2.698   3.475  16.923  1.1143 -0.2771 -0.5578
14445TIP3    H264827   2.717   3.569  17.040 -0.8100 -0.6445  0.0617
14446TIP3   OH264828   2.359   5.168   0.802  0.7389  0.2191 -0.0260
14446TIP3    H164829   2.442   5.166   0.850  1.1858 -1.2969 -0.8557
14446TIP3    H264830   2.379   5.127   0.718 -0.4137  1.4901 -0.9318
14447TIP3   OH264831   2.160   5.054  15.216 -0.0442 -0.0042 -0.4868
14447TIP3    H164832   2.192   5.130  15.265  0.2407  1.0938 -2.3546
14447TIP3    H264833   2.103   5.009  15.278  1.4985  0.5139  1.3776
14448TIP3   OH264834   4.230   1.302  11.418  0.0934 -0.0093  0.1676
14448TIP3    H164835   4.170   1.377  11.414 -1.0356 -0.9551 -1.3081
14448TIP3    H264836   4.227   1.273  11.509 -1.8975 -0.1818  0.0712
14449TIP3   OH264837   0.859   0.495  13.298 -0.4123 -0.3949  0.4467
14449TIP3    H164838   0.893   0.496  13.209 -1.4790 -0.1266  0.0243
14449TIP3    H264839   0.928   0.456  13.351 -0.4295 -2.1178 -0.7691
14450TIP3   OH264840   4.410   1.052  12.863  0.3351  0.1477  0.2474
14450TIP3    H164841   4.397   1.083  12.773 -1.2339  1.7302  0.9865
14450TIP3    H264842   4.504   1.064  12.879  0.7600 -0.7987 -1.3948
14451TIP3   OH264843   3.659   1.579   0.261  0.0905 -0.5435  0.5677
14451TIP3    H164844   3.697   1.507   0.210 -0.6746 -0.6767  0.1678
14451TIP3    H264845   3.654   1.546   0.350  3.1909  0.3708  1.1188
14452TIP3   OH264846   2.242   0.742   3.058  0.3136 -0.2839  0.1343
14452TIP3    H164847   2.155   0.774   3.036  0.1282 -1.1093 -0.3609
14452TIP3    H264848   2.300   0.785   2.995  0.2261  0.0277  0.2658
14453TIP3   OH264849   3.116   4.339  11.440 -0.1441 -0.1372  0.2631
14453TIP3    H164850   3.131   4.245  11.451 -1.3845 -0.5763 -1.5358
14453TIP3    H264851   3.203   4.375  11.423  0.2796 -1.0291  0.4811
14454TIP3   OH264852   0.160   4.231  16.212  0.0575  0.3262 -0.1389
14454TIP3    H164853   0.240   4.279  16.192  0.9228 -0.3806  1.5854
14454TIP3    H264854   0.150   4.169  16.140  1.5882 -0.2522  0.1407
14455TIP3   OH264855   4.418   3.412   4.729  0.0970  0.0963 -0.5410
14455TIP3    H164856   4.461   3.458   4.801  0.5827 -0.0154 -0.7564
14455TIP3    H264857   4.490   3.378   4.676 -0.2381 -1.2673 -0.1500
14456TIP3   OH264858   2.445   6.738  13.348 -0.0691  0.0591  0.3647
14456TIP3    H164859   2.527   6.688  13.355  0.5737  0.9256 -0.7841
14456TIP3    H264860   2.420   6.755  13.439  0.6076 -0.8941  0.7400
14457TIP3   OH264861   1.465   4.484  11.953 -0.3487 -0.1527  0.4277
14457TIP3    H164862   1.472   4.532  11.871 -0.2999 -0.9117 -0.0120
14457TIP3    H264863   1.482   4.550  12.021 -1.7726  0.7901 -0.1045
14458TIP3   OH264864   0.115   0.001  11.869  0.0806  0.2513 -0.0858
14458TIP3    H164865   0.173   0.025  11.796  0.9317 -0.8667  0.2116
14458TIP3    H264866   0.041   0.061  11.861  1.3042  1.7566 -0.4248
14459TIP3   OH264867   4.979   5.888   0.904 -0.3806 -0.4005 -0.5124
14459TIP3    H164868   4.975   5.796   0.880 -0.7379 -0.3715 -0.5627
14459TIP3    H264869   5.071   5.913   0.890  0.1573 -1.2349  1.3408
14460TIP3   OH264870   0.603   1.050  15.787  0.2289 -0.0122  0.0686
14460TIP3    H164871   0.585   1.040  15.693  0.4357 -0.8989  0.1175
14460TIP3    H264872   0.519   1.073  15.825  0.1253  0.2663 -0.3281
14461TIP3   OH264873   5.038   2.638   0.658  0.2594 -0.1490  0.2378
14461TIP3    H164874   5.128   2.665   0.673  0.6875 -0.8129 -1.1173
14461TIP3    H264875   5.045   2.556   0.609 -1.0478 -1.3040  1.8788
14462TIP3   OH264876   4.180   3.123   3.475  0.2064 -0.0080  0.0378
14462TIP3    H164877   4.097   3.168   3.491  0.1870 -0.3099  0.8086
14462TIP3    H264878   4.246   3.193   3.481  0.0137  0.2223 -0.5293
14463TIP3   OH264879   2.869   2.714   2.707  0.5924  0.6161  0.5220
14463TIP3    H164880   2.792   2.732   2.652  1.3835 -0.7340 -1.0630
14463TIP3    H264881   2.846   2.633   2.754  0.6870  0.7078  0.7254
14464TIP3   OH264882   4.033   1.500  16.976 -0.6247  0.3881 -0.5000
14464TIP3    H164883   4.113   1.552  16.976 -1.3421  1.5325 -1.5670
14464TIP3    H264884   4.038   1.446  16.897  0.1590 -1.2498  0.6546
14465TIP3   OH264885   5.582   6.101   2.063  0.1161 -0.1571  0.4032
14465TIP3    H164886   5.536   6.028   2.022  0.7591 -0.9507  1.0924
14465TIP3    H264887   5.543   6.108   2.151  0.9966 -0.5340  0.8219
14466TIP3   OH264888   4.425   0.994   5.684  0.4106 -0.2520  0.3943
14466TIP3    H164889   4.426   1.080   5.726  0.3698 -0.7688  1.4664
14466TIP3    H264890   4.385   0.936   5.749 -1.7292 -0.6414 -1.2276
14467TIP3   OH264891   5.630   1.289  14.535  0.0483 -0.6160  0.0397
14467TIP3    H164892   5.563   1.347  14.572 -0.5239 -0.6069 -0.9940
14467TIP3    H264893   5.594   1.261  14.451  0.7383 -1.7144  0.0943
14468TIP3   OH264894   0.222   4.644  13.552  0.4023  0.1576  0.7093
14468TIP3    H164895   0.315   4.647  13.530  0.4408 -0.1388  0.8240
14468TIP3    H264896   0.180   4.701  13.487  0.6996  0.5521  0.8584
14469TIP3   OH264897   1.889   0.462  17.116  0.3839  0.6790  0.4973
14469TIP3    H164898   1.874   0.373  17.084  0.7547  0.4044  1.0814
14469TIP3    H264899   1.841   0.466  17.199 -1.1538  1.6039 -0.3937
14470TIP3   OH264900   5.776   2.820  11.758 -0.5040  0.5274 -0.1286
14470TIP3    H164901   5.802   2.733  11.786 -0.2093  0.8059  0.4716
14470TIP3    H264902   5.851   2.876  11.779 -0.3046  0.7699 -1.3845
14471TIP3   OH264903   2.901   5.199  11.678  0.2213 -0.7520  0.2298
14471TIP3    H164904   2.963   5.251  11.728 -0.3699 -0.0307  0.2216
14471TIP3    H264905   2.816   5.218  11.717 -0.3254  0.2503 -1.3845
14472TIP3   OH264906   6.432   1.377  13.061 -0.0169  0.0819 -0.0746
14472TIP3    H164907   6.382   1.329  12.996 -1.0227  0.3268  0.4989
14472TIP3    H264908   6.451   1.461  13.019 -2.0054  0.8555  0.4660
14473TIP3   OH264909   1.599   1.086  16.206  0.2826  0.0720 -0.3085
14473TIP3    H164910   1.623   1.086  16.298 -1.0598  0.2890  0.0641
14473TIP3    H264911   1.652   1.017  16.167  0.4410 -0.4146  0.7441
14474TIP3   OH264912   2.300   1.514   6.008 -0.2529  0.0327  0.2166
14474TIP3    H164913   2.301   1.512   6.104 -1.2288 -0.9659  0.2180
14474TIP3    H264914   2.267   1.601   5.986  3.2718  1.5930  0.7285
14475TIP3   OH264915   3.817   1.539  15.788  0.2897 -0.4859  0.0952
14475TIP3    H164916   3.755   1.535  15.715  0.1383 -1.5679  0.2697
14475TIP3    H264917   3.861   1.454  15.786  0.0194 -0.6723  1.4832
14476TIP3   OH264918   1.346   3.326   5.764  0.4515 -0.0957 -0.0353
14476TIP3    H164919   1.338   3.304   5.671  2.1173 -2.1093  0.2717
14476TIP3    H264920   1.256   3.342   5.792 -0.3915 -2.4072 -1.3006
14477TIP3   OH264921   2.271   2.241   4.252 -0.1643  0.0502  0.5973
14477TIP3    H164922   2.213   2.297   4.304 -1.9850 -0.0830 -1.1954
14477TIP3    H264923   2.240   2.152   4.270  0.8681 -0.1993  1.2226
14478TIP3   OH264924   0.332   3.838   5.076  0.1804 -0.5524 -0.2093
14478TIP3    H164925   0.299   3.928   5.069 -0.0777 -0.5578  0.8074
14478TIP3    H264926   0.389   3.828   5.000  0.3968  0.5488 -0.2117
14479TIP3   OH264927   0.876   6.010   6.185  0.1892  0.0357  0.0966
14479TIP3    H164928   0.914   5.922   6.190 -0.9534 -0.5047 -0.6112
14479TIP3    H264929   0.783   5.996   6.170 -0.2339  1.3594  1.3758
14480TIP3   OH264930   2.465   6.670  14.599  0.2077  0.1655  0.4810
14480TIP3    H164931   2.518   6.721  14.661  1.5806  0.3504 -0.8180
14480TIP3    H264932   2.444   6.731  14.529 -2.2424  0.2457  1.2338
14481TIP3   OH264933   1.113   3.612  17.047  0.0080  0.3561  0.3653
14481TIP3    H164934   1.136   3.544  16.984 -0.7494  1.4792 -1.1678
14481TIP3    H264935   1.042   3.574  17.098  0.1463 -0.3171  0.0586
14482TIP3   OH264936   1.770   0.837   5.641  0.5993 -0.2512 -0.4728
14482TIP3    H164937   1.812   0.815   5.724  0.4630 -0.8532 -0.5605
14482TIP3    H264938   1.679   0.855   5.664  0.3847 -1.1559 -0.5904
14483TIP3   OH264939   2.990   0.544  16.686 -0.6262 -0.3803 -0.0679
14483TIP3    H164940   2.912   0.489  16.683 -1.0646  0.2053  0.4748
14483TIP3    H264941   3.048   0.500  16.749 -1.4296  0.3387  1.2171
14484TIP3   OH264942   1.183   0.908   0.467  0.2499 -0.2515 -0.4087
14484TIP3    H164943   1.263   0.898   0.518 -0.0367  0.4380  0.1765
14484TIP3    H264944   1.142   0.987   0.501  0.5848  0.8118 -2.4074
14485TIP3   OH264945   4.254   5.507  16.344 -1.1756  0.5067  0.5723
14485TIP3    H164946   4.268   5.490  16.251 -0.6209  1.5875  0.4544
14485TIP3    H264947   4.293   5.432  16.388 -0.8941  0.2878 -0.0464
14486TIP3   OH264948   1.791   5.436   3.182 -0.4069  0.3359  0.3329
14486TIP3    H164949   1.866   5.490   3.158 -0.9046  0.4361 -1.0370
14486TIP3    H264950   1.821   5.346   3.168 -0.2869  0.3401  0.5564
14487TIP3   OH264951   0.392   6.645  15.926  0.0451 -0.2840 -0.3651
14487TIP3    H164952   0.439   6.693  15.995 -2.1660  2.3728 -0.6201
14487TIP3    H264953   0.353   6.571  15.972  0.2163  0.3670  0.8534
14488TIP3   OH264954   2.566   4.721  11.643  0.0510  0.5496 -0.2403
14488TIP3    H164955   2.654   4.690  11.625 -0.1211 -1.3500  1.8568
14488TIP3    H264956   2.555   4.798  11.588  2.3983 -0.1729 -1.7789
14489TIP3   OH264957   5.796   1.109  13.729  0.3891  0.6554 -0.1098
14489TIP3    H164958   5.726   1.103  13.664  0.8599 -0.2102 -0.5558
14489TIP3    H264959   5.875   1.130  13.678  0.8673 -0.5785  0.0952
14490TIP3   OH264960   6.062   2.426   0.875  0.3364 -0.1139  0.3684
14490TIP3    H164961   5.975   2.451   0.905  0.0637  0.9171 -1.2049
14490TIP3    H264962   6.059   2.441   0.780  3.2673  3.1047  0.7222
14491TIP3   OH264963   1.009   4.818  15.564 -0.1892 -0.0118  0.5114
14491TIP3    H164964   1.062   4.739  15.554  1.6954  1.5158 -2.2737
14491TIP3    H264965   0.951   4.818  15.489 -2.6977 -0.5215  2.3840
14492TIP3   OH264966   5.609   5.351  13.367 -0.1965 -0.4734  0.0459
14492TIP3    H164967   5.573   5.408  13.434  0.8731  0.4490 -0.1402
14492TIP3    H264968   5.669   5.293  13.414  0.6921  0.2940 -0.1140
14493TIP3   OH264969   2.140   5.114  11.379 -0.3370 -0.0605  0.2176
14493TIP3    H164970   2.148   5.188  11.319  0.3214 -0.5985 -0.3695
14493TIP3    H264971   2.211   5.128  11.443 -0.6583  0.1893  0.5212
14494TIP3   OH264972   0.072   3.502  12.377  0.1158 -0.4024 -0.0053
14494TIP3    H164973  -0.006   3.516  12.325 -0.7021 -0.7604  1.1095
14494TIP3    H264974   0.144   3.532  12.321 -1.0426  2.5459 -0.0193
14495TIP3   OH264975   1.699   6.124  15.871 -0.5207  0.3106  0.3233
14495TIP3    H164976   1.781   6.082  15.844 -0.0671  0.5998  1.2442
14495TIP3    H264977   1.695   6.111  15.966 -2.0410 -0.5793  0.1604
14496TIP3   OH264978   4.627   1.430  13.375 -0.3988  0.8279 -0.2156
14496TIP3    H164979   4.612   1.382  13.293  1.2362  1.5398 -0.9619
14496TIP3    H264980   4.577   1.382  13.441 -1.6256  0.1596 -1.6100
14497TIP3   OH264981   1.381   4.213   2.886  0.0852 -0.5552 -0.0191
14497TIP3    H164982   1.404   4.294   2.932 -0.7571  0.3871 -1.2109
14497TIP3    H264983   1.458   4.193   2.832 -0.3415  0.4229 -1.0244
14498TIP3   OH264984   4.452   0.598  15.044 -0.0104 -0.0753  0.0772
14498TIP3    H164985   4.377   0.646  15.079  0.2124  1.1185 -1.0540
14498TIP3    H264986   4.487   0.551  15.119 -0.0359  1.8038  1.2761
14499TIP3   OH264987   0.096   3.735   0.436  0.1023  0.1093  0.1838
14499TIP3    H164988   0.166   3.796   0.460  0.5768  1.0711 -3.3616
14499TIP3    H264989   0.025   3.790   0.403 -1.2823 -1.0192  1.1992
14500TIP3   OH264990   3.393   5.047   5.701 -0.0311  0.4265  0.6404
14500TIP3    H164991   3.479   5.013   5.679 -0.8283 -1.6642  0.5820
14500TIP3    H264992   3.407   5.104   5.777  1.4635  0.5650  0.2606
14501TIP3   OH264993   4.729   3.925   5.663  0.2936 -0.2444 -0.2159
14501TIP3    H164994   4.712   4.016   5.637  0.5252 -0.4348 -1.0345
14501TIP3    H264995   4.817   3.927   5.701 -0.1361  0.0764  0.7802
14502TIP3   OH264996   3.519   6.735   1.153 -0.0389  0.7431  0.0731
14502TIP3    H164997   3.518   6.817   1.202 -0.2768  0.5544  0.3879
14502TIP3    H264998   3.450   6.682   1.193  1.1405 -0.2021  0.8844
14503TIP3   OH264999   1.273   5.241   3.546 -0.2059  0.0034  0.7309
14503TIP3    H165000   1.292   5.333   3.527  2.8398 -0.8833 -0.8146
14503TIP3    H265001   1.180   5.241   3.570 -0.2918  3.4582  0.7112
14504TIP3   OH265002   0.510   1.420   3.565 -0.3881 -0.1702  0.0510
14504TIP3    H165003   0.559   1.487   3.612  0.4784 -0.4312 -0.4577
14504TIP3    H265004   0.521   1.341   3.617 -3.2030  0.5023  1.8207
14505TIP3   OH265005   2.647   0.966  13.978  0.0228 -0.1171 -0.4921
14505TIP3    H165006   2.647   0.882  13.932  0.2371 -0.3108 -0.1472
14505TIP3    H265007   2.600   0.948  14.060 -0.8123  0.3514 -0.8626
14506TIP3   OH265008   5.754   4.002   3.598  0.1703  0.0064 -0.0665
14506TIP3    H165009   5.774   3.913   3.570  1.1122 -0.1081  0.9688
14506TIP3    H265010   5.838   4.040   3.621 -0.0589  1.6372 -1.8273
14507TIP3   OH265011   3.232   4.562  16.603  0.0626  0.4523 -0.5775
14507TIP3    H165012   3.303   4.621  16.579  2.5366 -2.5064 -0.7583
14507TIP3    H265013   3.235   4.558  16.698  0.3877  0.0661 -0.6013
14508TIP3   OH265014   3.784   6.342   5.470  0.3239 -0.7499  0.4334
14508TIP3    H165015   3.721   6.384   5.410  0.1239 -0.7765  0.6259
14508TIP3    H265016   3.768   6.384   5.555  1.0033 -0.2938  0.3476
14509TIP3   OH265017   2.134   3.247   7.014 -0.3632 -0.4157 -0.7160
14509TIP3    H165018   2.083   3.309   6.962 -0.7275 -0.5547 -0.5226
14509TIP3    H265019   2.135   3.167   6.962 -2.9193 -1.3802  0.6609
14510TIP3   OH265020   5.282   1.618   1.991 -0.2605 -1.0269 -0.1282
14510TIP3    H165021   5.207   1.612   1.931  0.0819 -0.0287 -0.6583
14510TIP3    H265022   5.244   1.638   2.076 -0.5453  0.2629 -0.5507
14511TIP3   OH265023   3.420   1.072  14.707  0.4198  0.2424  0.5373
14511TIP3    H165024   3.480   1.017  14.756  0.6891  0.8093  0.8567
14511TIP3    H265025   3.336   1.026  14.710  0.5815 -0.0192  1.0151
14512TIP3   OH265026   5.711   0.103   2.927 -0.7266  0.2013 -1.0088
14512TIP3    H165027   5.618   0.088   2.944 -0.4166  0.0959  0.6806
14512TIP3    H265028   5.742   0.021   2.887 -0.2167 -1.7776  3.2461
14513TIP3   OH265029   0.905   4.562  12.533 -0.0189 -0.2183  0.6813
14513TIP3    H165030   0.994   4.560  12.497 -1.4978 -2.0430 -3.1205
14513TIP3    H265031   0.911   4.511  12.613  2.0483 -1.7328 -0.3678
14514TIP3   OH265032   4.617   6.526  10.501 -0.0380 -0.1199 -0.2266
14514TIP3    H165033   4.531   6.492  10.476  0.4770 -1.0177 -0.8150
14514TIP3    H265034   4.675   6.449  10.498  0.6062  0.3027  1.0283
14515TIP3   OH265035   0.613   3.506  14.680  0.0958  0.0822  0.0686
14515TIP3    H165036   0.606   3.523  14.586 -1.7686  0.1066  0.1944
14515TIP3    H265037   0.601   3.592  14.720  2.2091  0.2917  0.3013
14516TIP3   OH265038   3.125   0.224  11.944  0.6861 -0.4169 -0.1131
14516TIP3    H165039   3.128   0.253  11.853  1.3484  0.0859  0.0678
14516TIP3    H265040   3.194   0.158  11.951 -0.9495 -2.2386 -0.5761
14517TIP3   OH265041   0.798   0.401   4.463  0.5237 -0.0495 -0.0041
14517TIP3    H165042   0.725   0.356   4.421 -1.4118  1.4269  1.7077
14517TIP3    H265043   0.859   0.330   4.487 -1.1295 -1.4671  0.0835
14518TIP3   OH265044   3.521   4.482  12.980 -0.0692  0.4410  0.2873
14518TIP3    H165045   3.590   4.534  12.938  1.2864 -0.8791  0.8122
14518TIP3    H265046   3.494   4.535  13.056  0.4087  0.9489  0.1079
14519TIP3   OH265047   1.910   2.762   4.321 -0.2143  0.4428  0.5469
14519TIP3    H165048   1.834   2.811   4.352 -0.5897  2.4864 -3.3686
14519TIP3    H265049   1.882   2.723   4.238  1.9224 -1.7243  0.7892
14520TIP3   OH265050   5.086   2.214   5.930  0.0337  0.1306  0.2297
14520TIP3    H165051   5.175   2.249   5.928 -0.0359  0.3284  0.5447
14520TIP3    H265052   5.035   2.277   5.878 -0.4959  1.6566  2.5165
14521TIP3   OH265053   0.675   5.743  14.873 -0.3723  0.0181 -0.2723
14521TIP3    H165054   0.762   5.769  14.842  1.1070  0.2304  3.7557
14521TIP3    H265055   0.644   5.818  14.924 -1.6521 -1.1917  0.7805
14522TIP3   OH265056   0.243   5.012   4.947  0.0592  0.1347 -0.5349
14522TIP3    H165057   0.291   5.045   4.871  1.3558  1.2141  0.7258
14522TIP3    H265058   0.214   4.925   4.921  2.1767 -0.2959 -1.5810
14523TIP3   OH265059   6.230   5.186  14.776 -0.7717 -0.7828 -0.1367
14523TIP3    H165060   6.325   5.194  14.787 -0.6905  0.6528 -1.6380
14523TIP3    H265061   6.208   5.103  14.817  1.3456 -1.8020 -0.9933
14524TIP3   OH265062   4.858   4.514  14.129 -0.0436  0.0307 -0.0724
14524TIP3    H165063   4.916   4.501  14.205 -2.1520  0.6693  1.6975
14524TIP3    H265064   4.867   4.433  14.078  0.5397 -0.8962  1.4571
14525TIP3   OH265065   2.049   0.906   6.462 -0.6028  0.1546  0.5319
14525TIP3    H165066   2.013   0.995   6.460 -2.7701 -0.7042  0.2940
14525TIP3    H265067   1.973   0.849   6.447  1.3009 -1.6070 -3.0223
14526TIP3   OH265068   6.722   5.906  17.012 -0.0150  0.2909  0.0555
14526TIP3    H165069   6.710   5.910  16.917 -0.1558 -0.6799  0.0275
14526TIP3    H265070   6.766   5.823  17.028 -1.1050 -0.1412  0.9463
14527TIP3   OH265071   0.956   2.885  10.824  0.4866  0.3937  0.3257
14527TIP3    H165072   0.960   2.936  10.905 -0.8952 -0.0545  0.6897
14527TIP3    H265073   0.884   2.824  10.838  1.5420 -1.0749 -0.4424
14528TIP3   OH265074   1.564   3.794  12.715 -0.0040  0.4810  0.1113
14528TIP3    H165075   1.650   3.752  12.713 -0.6440 -0.8368 -0.3040
14528TIP3    H265076   1.568   3.860  12.646 -0.6317 -2.2593 -2.6522
14529TIP3   OH265077   2.448   5.365  11.635  1.1522  0.5544 -0.3222
14529TIP3    H165078   2.536   5.397  11.657  0.7683 -0.3202  2.7889
14529TIP3    H265079   2.389   5.429  11.676  0.3337  0.6848 -1.6887
14530TIP3   OH265080   6.674   6.557   1.107 -0.9992 -0.2089 -1.2878
14530TIP3    H165081   6.761   6.521   1.088  1.4617  4.3055  0.7465
14530TIP3    H265082   6.664   6.547   1.201 -1.4606  1.8412 -1.1106
14531TIP3   OH265083   0.733   6.524   2.180 -0.3804 -0.1896 -0.3454
14531TIP3    H165084   0.807   6.463   2.185 -0.4358 -0.2364 -0.1220
14531TIP3    H265085   0.745   6.584   2.253 -1.8936 -1.6944  1.2172
14532TIP3   OH265086   2.070   5.439  15.822 -0.7662 -0.4542  0.0783
14532TIP3    H165087   2.052   5.389  15.901 -0.8431 -0.5428  0.0048
14532TIP3    H265088   2.048   5.380  15.750 -1.3440 -0.1480 -0.0069
14533TIP3   OH265089   2.775   1.482   5.935 -0.1181  0.1837  0.0295
14533TIP3    H165090   2.749   1.547   6.000  0.2247  1.8863 -1.4713
14533TIP3    H265091   2.870   1.491   5.930  0.0631 -1.2796  0.6494
14534TIP3   OH265092   6.354   4.787   2.157 -0.1169 -0.6465  0.4289
14534TIP3    H165093   6.371   4.701   2.195 -2.0994 -1.0783  0.4131
14534TIP3    H265094   6.299   4.832   2.221 -1.3939 -0.4460 -0.7643
14535TIP3   OH265095   1.779   1.291   2.527  0.3855  0.4670 -0.2631
14535TIP3    H165096   1.704   1.265   2.580  1.1185 -0.0106  0.5664
14535TIP3    H265097   1.797   1.381   2.553  2.4723 -0.6492  2.4129
14536TIP3   OH265098   0.619   1.436  11.668 -0.1450  0.1353 -0.3220
14536TIP3    H165099   0.537   1.409  11.627 -0.5789  1.9556 -0.6886
14536TIP3    H265100   0.661   1.492  11.603  1.2058 -0.4549  0.0280
14537TIP3   OH265101   0.717   3.178   0.844  0.2757 -0.1293  0.8704
14537TIP3    H165102   0.655   3.159   0.914 -0.5441  1.0804  0.4889
14537TIP3    H265103   0.802   3.152   0.879 -0.5546 -2.7371  1.0344
14538TIP3   OH265104   6.722   6.056   1.202 -0.3465 -0.2044 -0.1357
14538TIP3    H165105   6.699   5.965   1.217  0.5904 -0.4967 -0.4386
14538TIP3    H265106   6.717   6.067   1.107  1.5371 -0.5093 -0.3059
14539TIP3   OH265107   4.886   1.393  10.635  0.4961 -0.1029  0.4248
14539TIP3    H165108   4.792   1.394  10.615  0.2072 -1.7390  1.6274
14539TIP3    H265109   4.911   1.301  10.625  1.8890  0.2662  0.5226
14540TIP3   OH265110   0.533   3.187  10.908 -0.4620  0.0251 -0.0459
14540TIP3    H165111   0.595   3.115  10.916 -0.9031 -0.1868  1.7645
14540TIP3    H265112   0.544   3.220  10.819  0.2047 -1.8613 -0.6685
14541TIP3   OH265113   0.882   3.741   3.877  0.0401  0.5037  0.4502
14541TIP3    H165114   0.905   3.649   3.889  1.2474  0.8218  0.6164
14541TIP3    H265115   0.924   3.766   3.795  0.1880  1.0597  0.6913
14542TIP3   OH265116   3.268   0.214  15.936  0.5133 -0.2629  0.4226
14542TIP3    H165117   3.299   0.226  15.847  1.5903  0.3898  0.8785
14542TIP3    H265118   3.212   0.291  15.953  1.1394  0.1482  0.6556
14543TIP3   OH265119   1.847   3.026  12.971 -0.2371 -0.2890  0.3684
14543TIP3    H165120   1.935   2.995  12.948 -0.1117 -1.8106  2.6664
14543TIP3    H265121   1.831   3.099  12.912  2.6545  0.1312  0.0126
14544TIP3   OH265122   3.574   4.699  14.338  0.0905  0.4527 -0.4922
14544TIP3    H165123   3.544   4.777  14.386 -0.7975  0.4371 -0.9983
14544TIP3    H265124   3.669   4.704  14.341  0.0568  0.0618  1.8758
14545TIP3   OH265125   2.209   3.681  12.715 -0.4236 -0.0616 -0.0995
14545TIP3    H165126   2.239   3.592  12.733 -0.5294 -0.1263 -0.2444
14545TIP3    H265127   2.134   3.670  12.658 -1.3250  0.0543  1.0440
14546TIP3   OH265128   6.358   2.862  11.804  0.7675  0.3121 -0.4219
14546TIP3    H165129   6.355   2.776  11.762 -1.3187  0.9582 -1.6779
14546TIP3    H265130   6.304   2.853  11.882 -0.6429  0.8746 -1.3297
14547TIP3   OH265131   5.995   5.141  11.142  0.5958 -0.2422 -0.0631
14547TIP3    H165132   5.952   5.111  11.062 -1.5310  1.1874  0.5220
14547TIP3    H265133   6.087   5.117  11.130 -0.1175 -2.1449 -1.9059
14548TIP3   OH265134   2.445   1.728   5.816 -0.1583 -0.2881  0.1123
14548TIP3    H165135   2.388   1.682   5.754 -0.9900 -1.5182  1.7576
14548TIP3    H265136   2.532   1.691   5.800 -0.4394 -0.8825 -0.0660
14549TIP3   OH265137   1.589   1.397   3.713  0.2731 -1.0520  0.0464
14549TIP3    H165138   1.629   1.321   3.755  1.2658 -1.1546 -1.0679
14549TIP3    H265139   1.500   1.368   3.691 -0.0765 -1.1762  1.5444
14550TIP3   OH265140   1.244   5.246   0.160 -0.1610 -0.5714  0.2500
14550TIP3    H165141   1.311   5.257   0.093 -1.1988  0.3879 -0.6351
14550TIP3    H265142   1.208   5.159   0.143  0.0710 -0.6240  0.0171
14551TIP3   OH265143   4.428   3.124   3.722  0.2405  0.7093  0.2398
14551TIP3    H165144   4.380   3.195   3.766  0.6234  1.9120 -1.2226
14551TIP3    H265145   4.478   3.169   3.654  2.7686 -0.6346  1.1584
14552TIP3   OH265146   2.896   5.469   2.244 -0.6933  0.5810 -0.6357
14552TIP3    H165147   2.966   5.532   2.264  0.2425 -0.2110 -1.3924
14552TIP3    H265148   2.856   5.450   2.329 -0.8305  1.9997 -0.3583
14553TIP3   OH265149   3.771   1.359   1.427  0.1229  0.3939  0.0606
14553TIP3    H165150   3.804   1.307   1.500 -1.5406  1.1300  1.3685
14553TIP3    H265151   3.792   1.449   1.449 -1.9911  0.8031  0.5421
14554TIP3   OH265152   2.070   4.665  14.292  0.0633  0.3636  0.0215
14554TIP3    H165153   2.039   4.702  14.209 -0.7552 -2.9356 -1.2431
14554TIP3    H265154   2.123   4.590  14.266 -0.7397 -1.1248  2.4938
14555TIP3   OH265155   0.885   3.413  14.989  0.4507  0.3145 -0.0597
14555TIP3    H165156   0.900   3.350  15.059  2.4392  0.9601  0.1512
14555TIP3    H265157   0.823   3.476  15.025 -0.5883 -0.8398  0.1612
14556TIP3   OH265158   4.585   3.157   0.504  0.3697  0.4512 -0.1164
14556TIP3    H165159   4.671   3.196   0.521 -0.5742  2.0005  1.3588
14556TIP3    H265160   4.544   3.151   0.591  0.1714 -3.1898 -0.4082
14557TIP3   OH265161   5.606   5.330  12.078  0.0850  0.4524 -0.5829
14557TIP3    H165162   5.677   5.392  12.058  0.3045  1.1046  2.0385
14557TIP3    H265163   5.526   5.380  12.066  0.2417  1.0796  0.8987
14558TIP3   OH265164   4.389   3.809   4.508 -0.2883 -0.6155 -0.2964
14558TIP3    H165165   4.454   3.742   4.488 -0.6113 -1.0853  0.2353
14558TIP3    H265166   4.329   3.806   4.433  0.4197 -0.0213 -0.9023
14559TIP3   OH265167   0.548   0.130   1.200 -0.1355  0.1787 -0.4005
14559TIP3    H165168   0.550   0.207   1.257  0.5697  0.4644 -0.7980
14559TIP3    H265169   0.606   0.153   1.127  0.4309 -0.8965 -0.3041
14560TIP3   OH265170   4.071   2.094  17.139 -0.1904 -0.1850  0.2038
14560TIP3    H165171   4.067   2.107  17.234 -0.8638  0.1059  0.1393
14560TIP3    H265172   3.996   2.036  17.120 -0.0665 -0.2310 -0.1490
14561TIP3   OH265173   2.625   4.716   1.930  0.1250 -0.3704 -0.5445
14561TIP3    H165174   2.619   4.809   1.953 -3.8062 -0.3529 -1.3437
14561TIP3    H265175   2.639   4.672   2.014  1.6931  0.8745 -0.1264
14562TIP3   OH265176   1.853   1.240  12.337  0.1131 -0.1497  0.2225
14562TIP3    H165177   1.892   1.298  12.272 -0.1517  0.7458  0.8642
14562TIP3    H265178   1.845   1.156  12.291  1.0817  0.1365 -0.5037
14563TIP3   OH265179   6.679   0.378  15.700  0.4216 -0.2836  0.3532
14563TIP3    H165180   6.600   0.430  15.683 -0.8483 -1.5734  2.1886
14563TIP3    H265181   6.670   0.302  15.643  1.3097  0.4969 -0.8582
14564TIP3   OH265182   5.234   5.911   2.856  0.3350 -0.0064  0.5726
14564TIP3    H165183   5.167   5.874   2.799  0.0378 -0.4962  1.2332
14564TIP3    H265184   5.314   5.863   2.833  0.0777 -0.6499  1.0047
14565TIP3   OH265185   1.212   4.865  12.372 -0.5259  0.0262 -0.6844
14565TIP3    H165186   1.282   4.930  12.366  0.0888 -0.4595  1.0794
14565TIP3    H265187   1.152   4.901  12.437 -1.6226  0.1330 -1.7261
14566TIP3   OH265188   1.637   2.706  11.705 -0.6377  0.1863 -0.4277
14566TIP3    H165189   1.628   2.716  11.800 -0.0561  0.9145 -0.4420
14566TIP3    H265190   1.629   2.795  11.671 -1.2120 -0.1205 -1.0939
14567TIP3   OH265191   6.735   4.506   0.029 -0.1903 -0.4932 -0.6369
14567TIP3    H165192   6.692   4.587   0.000 -0.9549 -0.6753 -0.0302
14567TIP3    H265193   6.674   4.437   0.002  0.6904 -0.9078 -1.5916
14568TIP3   OH265194   2.729   0.261   3.171  0.5021  0.2339 -0.6671
14568TIP3    H165195   2.694   0.178   3.138 -1.0710  0.5859  0.0443
14568TIP3    H265196   2.729   0.251   3.266 -0.8798  1.4837 -0.5153
14569TIP3   OH265197   6.133   1.566   2.115  0.4160 -0.2666  0.5004
14569TIP3    H165198   6.065   1.623   2.078  0.2837 -0.5458  0.3136
14569TIP3    H265199   6.214   1.596   2.075  0.1874 -1.0253 -0.5680
14570TIP3   OH265200   1.207   1.397  13.502  0.6659 -0.2960  0.0300
14570TIP3    H165201   1.238   1.323  13.553  1.0591  1.3267  2.2321
14570TIP3    H265202   1.117   1.412  13.532  0.9399  0.7525  0.3573
14571TIP3   OH265203   6.685   2.107  15.851 -0.3351  0.3299 -0.0708
14571TIP3    H165204   6.605   2.056  15.836  1.7844 -3.5073  1.0883
14571TIP3    H265205   6.739   2.089  15.774  0.4033  0.9391  0.3013
14572TIP3   OH265206   0.850   3.600   1.959  0.1954 -0.5074  0.4946
14572TIP3    H165207   0.827   3.507   1.968 -1.4105 -0.1920 -0.2273
14572TIP3    H265208   0.879   3.608   1.868  1.0693 -0.4510  0.7756
14573TIP3   OH265209   4.828   0.793   5.928 -0.3410  0.5091 -0.1500
14573TIP3    H165210   4.813   0.873   5.979 -0.4805 -0.1107  0.8027
14573TIP3    H265211   4.817   0.820   5.837 -2.2506  1.1827  0.2463
14574TIP3   OH265212   2.364   6.399   2.953  0.2978 -0.2265  0.2366
14574TIP3    H165213   2.313   6.447   3.018 -0.2789 -0.3681 -0.1036
14574TIP3    H265214   2.450   6.388   2.993  1.1209  2.9437 -0.5079
14575TIP3   OH265215   1.488   3.609   4.270  0.6496  0.3554 -0.6290
14575TIP3    H165216   1.455   3.697   4.255  5.0858  2.0637 -1.0356
14575TIP3    H265217   1.473   3.593   4.363  0.6292  1.9185 -0.3475
14576TIP3   OH265218   2.739   0.675  13.372  0.2389  0.4175 -0.6472
14576TIP3    H165219   2.810   0.738  13.360  0.8560  0.5222  2.9726
14576TIP3    H265220   2.783   0.592  13.389 -0.5230 -0.0052 -0.7174
14577TIP3   OH265221   5.339   6.324  15.570 -0.0811  0.3771  0.2518
14577TIP3    H165222   5.382   6.243  15.542 -0.6762 -0.2403  1.0953
14577TIP3    H265223   5.246   6.301  15.577 -0.4898  1.5660 -1.0535
14578TIP3   OH265224   5.948   6.033   0.862 -0.1007 -0.0865 -0.1025
14578TIP3    H165225   5.981   5.943   0.852 -1.6357 -0.7031  0.2810
14578TIP3    H265226   5.916   6.036   0.953 -1.4463  0.3796 -0.5871
14579TIP3   OH265227   1.110   0.306  11.443 -0.0695  0.2403 -0.2859
14579TIP3    H165228   1.040   0.284  11.505  0.0828 -0.0012 -0.1953
14579TIP3    H265229   1.068   0.302  11.357 -0.5242  1.5531 -0.1392
14580TIP3   OH265230   0.879   4.441  12.197 -0.3749 -0.1111 -0.2276
14580TIP3    H165231   0.820   4.396  12.258  0.1118 -0.4608 -0.0088
14580TIP3    H265232   0.850   4.532  12.198 -1.8025 -0.5338 -1.1824
14581TIP3   OH265233   4.882   0.121  16.428 -0.4101  0.1442 -0.0474
14581TIP3    H165234   4.910   0.037  16.392 -0.0125  0.7057 -1.0684
14581TIP3    H265235   4.957   0.150  16.481 -0.9224 -0.5918  1.1153
14582TIP3   OH265236   2.184   1.972  12.957  0.1534  0.4258 -0.5195
14582TIP3    H165237   2.201   1.906  12.890 -1.5831 -1.3963  0.7544
14582TIP3    H265238   2.256   1.963  13.019 -0.7329 -1.1560  0.2948
14583TIP3   OH265239   2.216   0.175   2.454 -0.4901 -0.3994 -0.0404
14583TIP3    H165240   2.125   0.206   2.446  0.3474  1.9928 -0.8890
14583TIP3    H265241   2.235   0.137   2.368 -0.2477  0.3748 -0.3320
14584TIP3   OH265242   0.859   0.701   6.060 -0.2563  0.2283  0.2917
14584TIP3    H165243   0.835   0.618   6.019 -1.3429  0.4544  0.4525
14584TIP3    H265244   0.950   0.690   6.086 -0.3873 -0.9031  0.2791
14585TIP3   OH265245   5.200   5.200  12.130 -0.7051 -0.1559 -1.0593
14585TIP3    H165246   5.262   5.139  12.171 -1.5523 -0.8771 -0.8333
14585TIP3    H265247   5.242   5.226  12.048  0.5966  0.5856 -0.1821
14586TIP3   OH265248   2.641   0.338  15.088  0.6734  0.3984  0.1641
14586TIP3    H165249   2.576   0.274  15.117  0.7942  0.8548  1.4637
14586TIP3    H265250   2.723   0.288  15.086  0.4493  0.0545 -0.5947
14587TIP3   OH265251   0.979   5.612   5.774 -0.2780  0.0958  0.4270
14587TIP3    H165252   1.007   5.695   5.813  0.1506  0.2241 -0.1484
14587TIP3    H265253   0.934   5.638   5.694  0.6598 -0.2695 -0.2245
14588TIP3   OH265254   2.777   2.277   2.662 -0.0789  0.2344  0.0473
14588TIP3    H165255   2.691   2.295   2.623  1.4131  2.7164 -2.2681
14588TIP3    H265256   2.787   2.345   2.729  1.8010  2.7252 -2.6240
14589TIP3   OH265257   1.568   2.758   1.110  0.2753 -0.0583 -0.3093
14589TIP3    H165258   1.613   2.819   1.169  1.6141 -0.7266 -0.6238
14589TIP3    H265259   1.477   2.758   1.141  0.7383  0.3732  1.1168
14590TIP3   OH265260   0.670   2.227  13.452  0.2921  0.2589 -0.1540
14590TIP3    H165261   0.745   2.169  13.441  0.1838 -0.0422  0.6809
14590TIP3    H265262   0.699   2.311  13.416  0.8910  0.0336 -0.1999
14591TIP3   OH265263   1.821   3.592  16.234  0.4101 -0.0411  0.8281
14591TIP3    H165264   1.803   3.684  16.255  0.3170 -0.4592  2.6818
14591TIP3    H265265   1.913   3.580  16.258  1.0831  0.1364 -1.5450
14592TIP3   OH265266   2.485   6.457   4.734 -0.2574  0.2054  0.1159
14592TIP3    H165267   2.414   6.393   4.724 -0.0375 -0.0556  0.2499
14592TIP3    H265268   2.512   6.450   4.825  1.0505 -0.8490 -0.3435
14593TIP3   OH265269   1.651   1.750   6.005  0.0608  0.4549  0.0042
14593TIP3    H165270   1.580   1.813   6.010 -0.5842 -0.3421  1.0581
14593TIP3    H265271   1.626   1.680   6.066  2.0305  0.4757  0.8873
14594TIP3   OH265272   3.090   5.391  13.600  0.1151 -0.1951  0.1303
14594TIP3    H165273   3.045   5.311  13.574  1.2688 -1.0618  0.7221
14594TIP3    H265274   3.154   5.407  13.531  0.1542 -0.0132  0.2078
14595TIP3   OH265275   6.057   4.619  17.222  0.4660  0.4654  0.4742
14595TIP3    H165276   6.148   4.592  17.215  0.5362  0.8025  0.1057
14595TIP3    H265277   6.032   4.643  17.133  0.3618  1.5104  0.7813
14596TIP3   OH265278   5.230   6.649  15.537 -0.5260 -0.1563  0.1712
14596TIP3    H165279   5.285   6.588  15.488 -0.4471 -0.2528  0.3794
14596TIP3    H265280   5.291   6.696  15.593 -0.5049  0.5658 -0.4468
14597TIP3   OH265281   6.357   4.667   3.597 -0.0765  0.2940 -0.3226
14597TIP3    H165282   6.361   4.602   3.526  0.5401 -0.7129  0.6130
14597TIP3    H265283   6.399   4.745   3.560 -0.0254 -0.1208 -1.1665
14598TIP3   OH265284   2.278   0.627   4.570  0.3322  0.2965 -0.3167
14598TIP3    H165285   2.310   0.541   4.544  0.2788  0.2971 -0.3850
14598TIP3    H265286   2.183   0.623   4.553  0.3228  0.3524 -0.2772
14599TIP3   OH265287   1.188   2.749  11.858  0.5778  0.4639  0.6738
14599TIP3    H165288   1.236   2.780  11.935  2.8067  0.5302 -0.7277
14599TIP3    H265289   1.237   2.783  11.783 -1.3324  0.0421 -0.8080
14600TIP3   OH265290   6.272   1.962  14.500  0.1082 -0.1279  0.4180
14600TIP3    H165291   6.338   1.903  14.538 -0.2671 -1.1388 -0.4655
14600TIP3    H265292   6.264   1.933  14.409  0.2172  1.5712 -0.1495
14601TIP3   OH265293   4.110   0.105  13.265  0.7512  0.3220  0.2714
14601TIP3    H165294   4.034   0.142  13.309  0.7126 -0.1580  0.6187
14601TIP3    H265295   4.081   0.088  13.176  0.0571 -1.0276  0.7363
14602TIP3   OH265296   5.163   4.360  16.906 -0.8529 -0.1496 -0.0487
14602TIP3    H165297   5.127   4.326  16.824 -1.8496  0.3105  0.1863
14602TIP3    H265298   5.239   4.305  16.924 -0.6660 -0.2878 -1.2539
14603TIP3   OH265299   6.271   3.595  10.675  0.4555  0.1304 -0.4160
14603TIP3    H165300   6.243   3.613  10.586  1.6341  1.2693 -0.5856
14603TIP3    H265301   6.361   3.629  10.679  0.8297 -0.9414  0.8648
14604TIP3   OH265302   3.834   1.381   5.174  0.0252 -0.1047 -0.1134
14604TIP3    H165303   3.848   1.414   5.085  0.4194 -1.1694 -0.4498
14604TIP3    H265304   3.864   1.451   5.231 -3.0559  1.8523 -0.8013
14605TIP3   OH265305   5.958   4.493   0.343  0.6189 -0.3570 -0.3358
14605TIP3    H165306   5.968   4.587   0.326 -0.7900  0.1645  1.5491
14605TIP3    H265307   6.046   4.463   0.364  0.8062  0.9154  0.7472
14606TIP3   OH265308   2.537   5.082  16.041  0.3327  0.1260  0.1463
14606TIP3    H165309   2.582   5.120  15.966  1.7291 -1.1451  0.3391
14606TIP3    H265310   2.540   5.151  16.108 -2.0960  1.8000 -1.3308
14607TIP3   OH265311   6.035   0.024   2.980  0.0663  0.7229  0.4109
14607TIP3    H165312   6.085   0.101   2.951  0.1155  0.8940  0.9455
14607TIP3    H265313   6.090  -0.015   3.049  1.3363 -1.3428 -1.7179
14608TIP3   OH265314   5.384   3.563  17.254 -0.0802 -0.4002  0.4838
14608TIP3    H165315   5.454   3.583  17.316 -0.1416 -0.5926  0.6175
14608TIP3    H265316   5.319   3.630  17.270 -0.2105 -0.6010  0.8092
14609TIP3   OH265317   6.713   2.490  12.920  0.0734 -0.1290 -0.3350
14609TIP3    H165318   6.765   2.410  12.930 -1.2155 -1.0468 -0.7986
14609TIP3    H265319   6.766   2.546  12.862  1.2963 -0.3589  0.5447
14610TIP3   OH265320   4.416   3.157  12.462  0.0761 -0.9359  0.0618
14610TIP3    H165321   4.379   3.222  12.402  0.0176 -0.4640  0.6048
14610TIP3    H265322   4.511   3.167  12.451  0.0854 -0.1831  0.7400
14611TIP3   OH265323   6.550   2.573  12.586  0.1970 -0.0705 -0.1679
14611TIP3    H165324   6.637   2.544  12.616  0.8996  0.5365 -1.5482
14611TIP3    H265325   6.561   2.587  12.492 -1.6503 -0.8499 -0.5207
14612TIP3   OH265326   5.408   0.673  14.677  0.4486 -0.4885 -0.3510
14612TIP3    H165327   5.477   0.612  14.702  1.1661  1.0152  1.4558
14612TIP3    H265328   5.408   0.670  14.581  2.6947 -0.8631 -0.3816
14613TIP3   OH265329   2.167   6.346   2.022 -0.0101  0.3343  0.1223
14613TIP3    H165330   2.179   6.440   2.036 -0.6463  0.3830  0.3562
14613TIP3    H265331   2.138   6.338   1.931  1.6060  0.2293 -0.3909
14614TIP3   OH265332   5.607   4.240  15.975 -0.4253  0.7238 -0.4695
14614TIP3    H165333   5.658   4.285  16.042 -1.1079  1.4306 -0.4148
14614TIP3    H265334   5.572   4.163  16.020  1.2932 -0.2499 -0.7493
14615TIP3   OH265335   6.678   2.432   0.079  0.4751 -0.2625  1.0610
14615TIP3    H165336   6.612   2.421   0.011  1.2789  1.3704 -0.0297
14615TIP3    H265337   6.645   2.503   0.134  1.1883  0.3972  0.6520
14616TIP3   OH265338   2.234   2.073  11.502 -0.0212 -0.4052  0.0831
14616TIP3    H165339   2.282   2.156  11.494  0.4906 -0.6660  0.3943
14616TIP3    H265340   2.215   2.047  11.412 -0.0566 -0.0184 -0.0209
14617TIP3   OH265341   0.529   1.079  13.444 -0.2121  0.0144  0.5084
14617TIP3    H165342   0.606   1.023  13.434 -0.8327 -0.5560 -1.2650
14617TIP3    H265343   0.557   1.148  13.504  1.2944 -0.8855  0.8549
14618TIP3   OH265344   2.330   2.163   0.682 -0.2205  0.1980 -0.3138
14618TIP3    H165345   2.344   2.081   0.634  1.8135 -0.1521  0.8178
14618TIP3    H265346   2.418   2.199   0.694 -1.1431  2.9902 -1.5116
14619TIP3   OH265347   4.272   4.206  17.132 -0.0054 -0.1284  0.4902
14619TIP3    H165348   4.224   4.285  17.156  0.9002  0.6074 -0.0717
14619TIP3    H265349   4.360   4.220  17.167  0.1853 -0.8481  0.3043
14620TIP3   OH265350   3.695   3.848  12.196  1.1536 -0.2872 -0.6597
14620TIP3    H165351   3.627   3.841  12.129 -1.0665  0.2340  1.4838
14620TIP3    H265352   3.751   3.919  12.165 -0.4460  0.6562 -1.4636
14621TIP3   OH265353   6.246   6.265   3.280 -0.5620 -0.2364  0.1579
14621TIP3    H165354   6.187   6.339   3.267 -0.7671 -0.0006  2.2663
14621TIP3    H265355   6.187   6.190   3.288 -0.4780 -0.2765  0.3963
14622TIP3   OH265356   4.637   2.711   0.888  0.1112  0.6934  0.3923
14622TIP3    H165357   4.721   2.667   0.900 -0.2228  0.5452  2.4087
14622TIP3    H265358   4.647   2.759   0.806  1.8501 -0.0187  0.1539
14623TIP3   OH265359   1.367   6.693  16.206  0.3727 -0.5994 -0.6185
14623TIP3    H165360   1.406   6.650  16.282  0.9413  0.5621 -0.2396
14623TIP3    H265361   1.411   6.654  16.131  2.5116  0.8819 -0.1839
14624TIP3   OH265362   0.377   3.811  16.511 -0.6374 -0.2567  0.5312
14624TIP3    H165363   0.453   3.753  16.507  0.2038  0.7161  1.7177
14624TIP3    H265364   0.388   3.872  16.438  1.0558  1.4219  2.1283
14625TIP3   OH265365   4.059   4.380   5.042 -0.6034  0.2988  0.1837
14625TIP3    H165366   4.051   4.462   4.995 -0.4490  0.0054 -0.3544
14625TIP3    H265367   3.995   4.387   5.114  0.7514  1.6699  1.2943
14626TIP3   OH265368   5.451   5.875   0.086  0.1669 -0.3731 -0.1903
14626TIP3    H165369   5.433   5.782   0.073 -0.3060 -0.3715  0.4498
14626TIP3    H265370   5.464   5.884   0.181  0.3440  0.1885 -0.2658
14627TIP3   OH265371   0.434   5.807  15.304 -0.3107  0.0846  0.2130
14627TIP3    H165372   0.426   5.900  15.323  0.0042 -0.0153  0.8304
14627TIP3    H265373   0.528   5.791  15.297 -0.2943 -0.4794  1.6046
14628TIP3   OH265374   0.813   1.130   3.937 -0.0401 -0.4210  0.3460
14628TIP3    H165375   0.774   1.210   3.974  0.8913  1.0239 -1.6897
14628TIP3    H265376   0.904   1.153   3.922 -0.0315 -1.4970 -1.3210
14629TIP3   OH265377   5.663   3.206  13.300 -0.0932  0.1516  0.0433
14629TIP3    H165378   5.719   3.145  13.349 -1.3733 -0.5487  0.6596
14629TIP3    H265379   5.678   3.183  13.208  1.0613  0.3550  0.1698
14630TIP3   OH265380   1.778   6.028  13.278 -0.2324  0.0043 -0.0185
14630TIP3    H165381   1.715   6.088  13.318 -1.0390 -1.1193  0.4264
14630TIP3    H265382   1.776   6.050  13.185 -0.4879  0.7001  0.1464
14631TIP3   OH265383   2.195   3.439   2.205 -0.3185  0.3180 -0.4189
14631TIP3    H165384   2.160   3.380   2.272  0.0833 -0.1857 -0.6497
14631TIP3    H265385   2.265   3.487   2.249  1.2592 -1.4166 -1.0145
14632TIP3   OH265386   0.289   5.605   5.279 -0.5716 -0.0212  0.2240
14632TIP3    H165387   0.224   5.638   5.342 -0.2208  0.1627  0.4916
14632TIP3    H265388   0.323   5.684   5.237 -0.3754 -0.1057  0.2249
14633TIP3   OH265389   0.506   2.188   5.266  0.1155  0.1849  0.0203
14633TIP3    H165390   0.595   2.197   5.233  0.1652 -1.2438 -0.2981
14633TIP3    H265391   0.457   2.149   5.194 -1.0202  1.8790 -0.1501
14634TIP3   OH265392   2.168   0.386   1.702  0.0021  0.0157  0.1149
14634TIP3    H165393   2.151   0.297   1.733  1.0431 -0.3422 -0.3140
14634TIP3    H265394   2.125   0.390   1.616 -0.3067  0.0231  0.2718
14635TIP3   OH265395   0.213   2.820   6.577  0.1244  0.2993  0.3943
14635TIP3    H165396   0.238   2.909   6.555  0.0410 -0.0172 -1.0222
14635TIP3    H265397   0.269   2.765   6.523 -1.3257 -0.4700 -0.3522
14636TIP3   OH265398   1.747   4.169   1.802  1.0012 -0.1235  0.1199
14636TIP3    H165399   1.757   4.074   1.811  0.0805 -0.1916  0.4354
14636TIP3    H265400   1.769   4.187   1.711 -1.8258 -1.0416 -0.7703
14637TIP3   OH265401   2.912   4.363  12.573  0.6614 -0.4213  0.2336
14637TIP3    H165402   2.848   4.306  12.531 -0.5688  0.3674  1.0181
14637TIP3    H265403   2.971   4.303  12.619 -0.5983 -1.0803  1.0322
14638TIP3   OH265404   2.530   2.841   1.502 -0.2086 -0.0042 -0.3639
14638TIP3    H165405   2.495   2.881   1.581 -1.5794 -1.9027  0.0207
14638TIP3    H265406   2.614   2.803   1.529 -0.4325 -0.2029  0.0520
14639TIP3   OH265407   1.732   4.542   5.056  0.0462  0.3782 -0.2410
14639TIP3    H165408   1.718   4.616   5.116 -0.0299  0.5300 -0.4462
14639TIP3    H265409   1.729   4.581   4.969 -3.2688 -0.3318 -0.5068
14640TIP3   OH265410   0.344   6.246  16.043 -0.5193  0.1974  0.2037
14640TIP3    H165411   0.265   6.279  16.000 -0.0512 -1.7860 -2.3471
14640TIP3    H265412   0.351   6.155  16.012  1.3668 -0.4483  2.4128
14641TIP3   OH265413   1.643   1.341  12.494  0.2179  0.5249 -0.3115
14641TIP3    H165414   1.696   1.290  12.433  0.3004  0.7672 -0.4447
14641TIP3    H265415   1.571   1.283  12.517 -0.0365  0.5804 -0.9638
14642TIP3   OH265416   4.801   4.763   0.893  0.0200 -0.1823  0.0772
14642TIP3    H165417   4.808   4.831   0.960  0.9697 -0.3291  0.1447
14642TIP3    H265418   4.888   4.723   0.891 -0.1720 -0.5727 -0.8240
14643TIP3   OH265419   4.203   5.587   2.564  0.0894  0.0052  0.4796
14643TIP3    H165420   4.185   5.592   2.470  0.9934  1.4862  0.3645
14643TIP3    H265421   4.161   5.506   2.593 -0.8511 -0.0729 -1.0583
14644TIP3   OH265422   1.227   4.334   5.301  0.2356  0.6939  0.1761
14644TIP3    H165423   1.187   4.410   5.257  0.2862  0.0465 -1.0054
14644TIP3    H265424   1.321   4.353   5.301  0.1317  1.2189  1.0242
14645TIP3   OH265425   2.151   2.681  13.067  0.4611  0.3770  0.3836
14645TIP3    H165426   2.132   2.631  13.147 -0.2067 -1.5459 -0.9507
14645TIP3    H265427   2.231   2.729  13.088  0.0395  0.2763  2.3814
14646TIP3   OH265428   4.294   0.434   3.128 -0.3069 -0.0809 -0.1822
14646TIP3    H165429   4.349   0.377   3.182  0.1173  0.8344  0.3594
14646TIP3    H265430   4.326   0.421   3.039  0.8612  0.5224  0.1444
14647TIP3   OH265431   6.223   6.565  13.332  0.3115  0.2400  0.1813
14647TIP3    H165432   6.300   6.512  13.352  1.5388  1.7677 -0.3256
14647TIP3    H265433   6.253   6.624  13.263 -1.4395  0.5974 -0.2877
14648TIP3   OH265434   6.295   3.259  13.615  0.1559  0.2058 -0.1706
14648TIP3    H165435   6.363   3.192  13.608 -0.0699  0.1302 -1.7745
14648TIP3    H265436   6.213   3.211  13.602 -0.3442  0.0671  3.0279
14649TIP3   OH265437   6.682   3.444   0.468 -0.3196  0.1998  0.5827
14649TIP3    H165438   6.745   3.515   0.458 -0.1934 -0.0534 -0.4366
14649TIP3    H265439   6.701   3.385   0.396  1.0331 -2.0057  2.6792
14650TIP3   OH265440   4.303   0.309  11.906 -0.2961  0.2779 -0.2807
14650TIP3    H165441   4.297   0.214  11.909  1.1170  0.1588 -0.8018
14650TIP3    H265442   4.213   0.339  11.895 -1.1164 -0.8708  2.7305
14651TIP3   OH265443   4.961   2.418   4.231 -0.0763  0.3862  0.0273
14651TIP3    H165444   4.996   2.366   4.304  1.7849  0.7787 -0.5574
14651TIP3    H265445   5.034   2.427   4.171 -1.0420  1.7368 -0.9767
14652TIP3   OH265446   4.439   1.878  11.870 -0.0815 -0.1129 -0.2187
14652TIP3    H165447   4.390   1.833  11.801 -0.1465 -1.5586  0.7537
14652TIP3    H265448   4.383   1.951  11.896 -0.3488  0.0503 -1.2252
14653TIP3   OH265449   5.403   3.958   5.882 -0.4691  0.2127  0.4327
14653TIP3    H165450   5.392   4.039   5.930 -2.3442 -1.6542  3.3179
14653TIP3    H265451   5.347   3.967   5.805 -1.5128  1.1933  1.3048
14654TIP3   OH265452   5.213   2.085  11.012 -0.1731 -0.0275  0.1998
14654TIP3    H165453   5.159   2.025  10.960 -0.2767  1.3600 -1.3038
14654TIP3    H265454   5.234   2.156  10.953  1.9012  0.3010  1.2975
14655TIP3   OH265455   0.969   5.271   1.748  0.2499 -0.2100 -0.3903
14655TIP3    H165456   0.974   5.277   1.844 -1.0667  1.2989 -0.3880
14655TIP3    H265457   0.888   5.222   1.733 -1.4736  2.6315 -0.7424
14656TIP3   OH265458   4.175   3.707  12.950  0.1366 -0.3821 -0.6001
14656TIP3    H165459   4.181   3.801  12.928  1.7667 -0.8435 -2.2308
14656TIP3    H265460   4.215   3.700  13.036 -1.3635  0.6371  0.2129
14657TIP3   OH265461   4.295   4.889  12.268  0.2865 -0.0934 -0.2416
14657TIP3    H165462   4.370   4.831  12.258 -0.1516 -0.5589 -0.9310
14657TIP3    H265463   4.245   4.876  12.187 -1.7187 -1.5008  1.1676
14658TIP3   OH265464   2.877   2.844  11.286 -0.2804 -0.2399 -0.3129
14658TIP3    H165465   2.874   2.854  11.191  0.5271  0.5319 -0.2699
14658TIP3    H265466   2.895   2.932  11.319  0.9155 -0.7557  0.4654
14659TIP3   OH265467   2.816   6.183   1.022  0.0138  0.5422  0.8116
14659TIP3    H165468   2.885   6.154   0.963  1.2634  1.1462  1.9374
14659TIP3    H265469   2.756   6.233   0.966 -0.4547 -1.4488 -0.5018
14660TIP3   OH265470   3.402   1.312  11.430 -0.5708  0.1961 -0.0858
14660TIP3    H165471   3.345   1.261  11.372 -0.3222  0.3902 -0.5014
14660TIP3    H265472   3.467   1.351  11.371  1.3388 -1.8099  0.6095
14661TIP3   OH265473   4.843   4.941   4.639 -0.2436  1.0975 -0.1328
14661TIP3    H165474   4.810   5.011   4.695 -1.1541  0.4129  0.2087
14661TIP3    H265475   4.838   4.977   4.550 -3.7925  0.3704 -0.3049
14662TIP3   OH265476   1.322   1.115  13.581  0.1989  0.4227  0.2268
14662TIP3    H165477   1.411   1.099  13.613  0.4811  1.3346 -0.0761
14662TIP3    H265478   1.309   1.049  13.512  0.3129 -0.2716  0.8643
14663TIP3   OH265479   5.155   2.028   2.404  0.2020  0.2789  0.5377
14663TIP3    H165480   5.238   2.075   2.400  1.0099 -1.2108 -0.5717
14663TIP3    H265481   5.097   2.076   2.344  0.0808  1.6293  1.7145
14664TIP3   OH265482   4.998   5.565   2.744 -0.1240  0.4606  0.0255
14664TIP3    H165483   5.004   5.653   2.706 -0.0985  0.8974  1.0131
14664TIP3    H265484   4.909   5.537   2.724 -0.5731  1.2566  0.8213
14665TIP3   OH265485   1.559   2.807  13.580  0.0327 -0.2493  0.1991
14665TIP3    H165486   1.558   2.735  13.517  0.6952  0.3984 -0.5600
14665TIP3    H265487   1.471   2.844  13.574  0.3499  0.3368 -0.9676
14666TIP3   OH265488   2.079   1.716  14.987 -0.6591 -0.9947 -0.3027
14666TIP3    H165489   2.042   1.636  15.025  1.4348 -1.3516  1.0634
14666TIP3    H265490   2.103   1.770  15.063 -2.2077  1.0371 -1.2049
14667TIP3   OH265491   4.741   4.172   4.828 -0.0857  0.0142  0.0305
14667TIP3    H165492   4.672   4.230   4.796  0.7889  0.9581 -0.1816
14667TIP3    H265493   4.796   4.228   4.882 -0.7738 -1.2656  2.0890
14668TIP3   OH265494   6.384   2.794   5.875  0.0969 -0.4112  0.0991
14668TIP3    H165495   6.451   2.853   5.840  0.9458 -1.8616 -0.7763
14668TIP3    H265496   6.304   2.847   5.876  1.0288  1.0334  0.1934
14669TIP3   OH265497   0.124   5.186   5.455  0.2426 -0.5081  0.2691
14669TIP3    H165498   0.072   5.118   5.412  0.3615 -0.9034  0.7463
14669TIP3    H265499   0.201   5.196   5.400 -1.2365  1.4757 -1.5410
14670TIP3   OH265500   6.818   1.263  13.445 -0.3175 -0.1212 -0.1239
14670TIP3    H165501   6.895   1.258  13.501  0.9763  0.2322 -1.8516
14670TIP3    H265502   6.835   1.200  13.375 -1.6657 -0.1279 -0.4704
14671TIP3   OH265503   3.252   6.802  12.529  0.0812 -0.3283 -0.1436
14671TIP3    H165504   3.238   6.736  12.461 -0.6502 -0.1586 -0.1638
14671TIP3    H265505   3.205   6.879  12.498  2.0089  0.6376 -0.7419
14672TIP3   OH265506   3.541   5.517  15.815 -0.3364 -0.2992  0.2445
14672TIP3    H165507   3.550   5.518  15.719  0.3702 -0.5254  0.3077
14672TIP3    H265508   3.493   5.597  15.835  0.9923  0.6241 -0.1561
14673TIP3   OH265509   5.538   0.325   0.724 -0.7321 -0.3406 -0.2245
14673TIP3    H165510   5.470   0.266   0.691  0.4537 -0.6231 -2.2606
14673TIP3    H265511   5.613   0.310   0.666  0.8945  0.3538  1.6359
14674TIP3   OH265512   5.185   4.434  15.132 -0.6916  0.1673  0.3782
14674TIP3    H165513   5.125   4.447  15.206 -2.0329 -0.3461 -0.6067
14674TIP3    H265514   5.151   4.491  15.063  0.3284  0.3414  0.0061
14675TIP3   OH265515   3.545   2.913  12.574 -0.3648 -0.2095  0.2738
14675TIP3    H165516   3.581   3.001  12.571 -0.6398 -0.0820  0.7796
14675TIP3    H265517   3.622   2.857  12.587 -0.0453 -0.1531 -1.2942
14676TIP3   OH265518   5.539   2.973  14.714 -0.5661  0.6305  0.4586
14676TIP3    H165519   5.454   2.929  14.705 -1.3301  2.1157  0.2018
14676TIP3    H265520   5.599   2.904  14.739 -1.6532 -0.6468 -0.3728
14677TIP3   OH265521   2.678   5.884  12.631 -0.2485 -0.1474 -0.1841
14677TIP3    H165522   2.759   5.907  12.587 -0.2340  0.0435 -0.0582
14677TIP3    H265523   2.637   5.968  12.652 -0.5696 -0.2431 -0.4178
14678TIP3   OH265524   0.786   1.908   2.139 -0.4507 -0.6897  0.4350
14678TIP3    H165525   0.820   1.822   2.116  1.1118 -0.0694  0.3319
14678TIP3    H265526   0.796   1.960   2.060  1.1768  0.3259  1.2740
14679TIP3   OH265527   5.110   1.640  14.307 -0.9491  0.0134  0.2445
14679TIP3    H165528   5.107   1.570  14.372 -3.0910 -0.1875 -0.0433
14679TIP3    H265529   5.156   1.711  14.351 -1.7738 -0.3543  1.7557
14680TIP3   OH265530   6.659   2.656  14.303  0.0992  0.2604  0.2077
14680TIP3    H165531   6.739   2.605  14.294  0.6386  0.9232  1.1681
14680TIP3    H265532   6.625   2.665  14.214  3.1841  3.3382 -0.7467
14681TIP3   OH265533   4.297   4.465  14.133  0.1826  0.1578 -0.5035
14681TIP3    H165534   4.275   4.377  14.161 -0.6023  0.9367  1.3721
14681TIP3    H265535   4.387   4.478  14.163  0.8608 -0.5522 -2.1662
14682TIP3   OH265536   1.197   5.478  12.587  0.1295  0.1527 -0.1786
14682TIP3    H165537   1.283   5.444  12.611  0.0320  0.4137  0.5479
14682TIP3    H265538   1.136   5.434  12.647 -0.4180 -1.1195 -1.6181
14683TIP3   OH265539   0.582   4.942   0.950 -0.2284  0.1455  0.4298
14683TIP3    H165540   0.618   5.024   0.919 -1.2329  0.0978 -0.9131
14683TIP3    H265541   0.567   4.956   1.043 -2.5879  2.3075 -0.2194
14684TIP3   OH265542   5.232   5.433  15.162  0.1260 -0.0615 -0.0355
14684TIP3    H165543   5.254   5.400  15.075  1.0415 -0.2866  0.2809
14684TIP3    H265544   5.283   5.379  15.222  0.2307  0.7194  0.5898
14685TIP3   OH265545   5.560   4.774  12.712  0.6358 -0.4071  0.4741
14685TIP3    H165546   5.490   4.783  12.777 -1.4891 -3.1056 -1.3314
14685TIP3    H265547   5.605   4.693  12.735  2.2942  0.5781  0.7792
14686TIP3   OH265548   4.074   6.418   5.250  0.2975 -0.4119 -0.0315
14686TIP3    H165549   4.070   6.449   5.160 -2.4072 -3.2765 -0.9968
14686TIP3    H265550   4.069   6.497   5.303 -0.8994  1.1309 -2.3861
14687TIP3   OH265551   1.397   4.979   0.728  0.3653  0.0219 -0.4971
14687TIP3    H165552   1.423   4.934   0.647 -2.3181  0.8399 -1.8854
14687TIP3    H265553   1.395   5.071   0.704  0.1638  0.3247  0.6910
14688TIP3   OH265554   0.712   6.318   4.396 -0.3663 -0.3068  0.7773
14688TIP3    H165555   0.695   6.379   4.324 -1.1452 -0.4717  0.8169
14688TIP3    H265556   0.751   6.242   4.354 -0.2738 -0.1640  0.6041
14689TIP3   OH265557   6.685   1.972   0.675 -0.6359 -0.1476 -0.3164
14689TIP3    H165558   6.750   1.996   0.610  0.4283 -0.8960  0.4410
14689TIP3    H265559   6.601   1.974   0.628  0.2017 -1.5361 -1.9339
14690TIP3   OH265560   2.292   1.731  11.690 -0.1183  0.6279 -0.4755
14690TIP3    H165561   2.344   1.673  11.746  0.6810  2.0549  0.2850
14690TIP3    H265562   2.250   1.792  11.751 -1.2456  0.6316 -1.2372
14691TIP3   OH265563   0.534   2.605   6.407 -0.2723 -0.4903  0.1529
14691TIP3    H165564   0.500   2.592   6.496 -2.1583 -0.9531 -0.6151
14691TIP3    H265565   0.500   2.531   6.358  0.6577 -0.1595 -1.0009
14692TIP3   OH265566   6.403   6.029  15.926 -0.6494 -0.2441  0.0662
14692TIP3    H165567   6.383   5.969  15.997  0.5705 -1.0753 -0.2749
14692TIP3    H265568   6.476   6.082  15.959 -0.1669 -0.5433 -0.5154
14693TIP3   OH265569   5.428   3.127  14.494 -0.2066  0.4574 -0.4143
14693TIP3    H165570   5.475   3.140  14.411  1.8343  1.7801  0.9142
14693TIP3    H265571   5.479   3.062  14.541 -1.6843 -0.7254 -0.4073
14694TIP3   OH265572   5.880   3.999   1.365 -0.1877  0.3022 -0.1647
14694TIP3    H165573   5.926   4.073   1.324  1.0177 -0.6635 -0.6093
14694TIP3    H265574   5.823   3.965   1.297  0.6148 -0.2959 -0.5519
14695TIP3   OH265575   5.139   3.785  13.778 -0.3599 -0.2987  0.5687
14695TIP3    H165576   5.077   3.857  13.765 -0.4561 -0.9140 -2.6865
14695TIP3    H265577   5.085   3.709  13.798 -0.6621 -0.6891 -1.6239
14696TIP3   OH265578   0.961   6.397   5.392 -0.5514  0.3025 -0.0140
14696TIP3    H165579   0.871   6.367   5.383 -1.4692  2.6644  0.9263
14696TIP3    H265580   1.011   6.317   5.411 -2.6083 -0.8768  0.6359
14697TIP3   OH265581   4.087   4.463  13.707  0.3760  0.2572  0.2279
14697TIP3    H165582   4.174   4.424  13.694  0.6094  0.4506  1.1441
14697TIP3    H265583   4.086   4.488  13.800 -1.3357 -1.3865  0.6750
14698TIP3   OH265584   1.721   2.552  12.420 -0.0538 -0.8580 -0.1880
14698TIP3    H165585   1.646   2.605  12.392 -0.4098 -0.9479  0.5841
14698TIP3    H265586   1.742   2.498  12.344 -1.5045 -1.6565 -0.0396
14699TIP3   OH265587   3.227   1.313   2.002  0.1500 -0.3990 -0.2529
14699TIP3    H165588   3.294   1.373   1.968  0.7909 -2.4034 -2.6711
14699TIP3    H265589   3.144   1.356   1.982  0.6452  0.9950  0.6160
14700TIP3   OH265590   1.166   1.606   1.350 -0.2992  0.6287  0.5138
14700TIP3    H165591   1.221   1.567   1.419  1.7843  1.2281 -0.7652
14700TIP3    H265592   1.139   1.691   1.386 -1.6168 -0.2861  1.7307
14701TIP3   OH265593   0.672   5.167  15.754 -0.4757  0.3144  0.0327
14701TIP3    H165594   0.765   5.187  15.764 -0.4532 -0.0779  0.6140
14701TIP3    H265595   0.628   5.250  15.769 -0.1519  0.7847 -1.4852
14702TIP3   OH265596   1.494   3.244   1.421 -0.0998  0.6444  0.7534
14702TIP3    H165597   1.481   3.224   1.329 -0.3688 -0.5159  1.0418
14702TIP3    H265598   1.583   3.278   1.426  0.2272 -0.1337  0.2071
14703TIP3   OH265599   0.666   2.880  13.488  0.3025 -0.7353  0.9640
14703TIP3    H165600   0.740   2.936  13.511  0.5812 -0.6084 -0.2466
14703TIP3    H265601   0.622   2.926  13.416  1.3001 -2.7092 -0.9359
14704TIP3   OH265602   0.532   5.188  11.085  0.8183 -0.1063  0.0506
14704TIP3    H165603   0.599   5.167  11.019  0.8502  1.0849 -0.3180
14704TIP3    H265604   0.450   5.191  11.035  1.0469  2.2454 -0.2349
14705TIP3   OH265605   2.928   6.778  11.935 -0.1244  0.3539  0.1596
14705TIP3    H165606   2.983   6.745  11.863  0.2999 -0.1500  0.7065
14705TIP3    H265607   2.866   6.837  11.893 -1.2407 -1.5302 -0.9520
14706TIP3   OH265608   0.034   3.466  14.915  0.4775  0.1721 -0.1494
14706TIP3    H165609  -0.010   3.384  14.892  0.4350  0.0906  0.2194
14706TIP3    H265610  -0.036   3.530  14.925  0.5057  0.2373 -0.3759
14707TIP3   OH265611   5.666   3.437   1.281 -0.8039 -0.5824  0.2145
14707TIP3    H165612   5.677   3.438   1.376 -0.4163 -0.5554  0.1716
14707TIP3    H265613   5.575   3.409   1.267 -1.2816  0.7186  0.6262
14708TIP3   OH265614   3.413   1.871   0.928 -0.7110 -0.2723  0.3100
14708TIP3    H165615   3.507   1.862   0.943 -0.3150  3.1232  0.0873
14708TIP3    H265616   3.396   1.815   0.852  1.5266  0.7264 -0.9853
14709TIP3   OH265617   5.326   4.890  11.569 -0.1043 -0.2870 -0.0459
14709TIP3    H165618   5.237   4.895  11.604 -0.0904 -0.8914  0.0750
14709TIP3    H265619   5.319   4.925  11.480 -0.2944  0.4791  0.2660
14710TIP3   OH265620   1.338   2.702  11.415 -0.2569  0.1859  0.4248
14710TIP3    H165621   1.406   2.667  11.473 -0.2399  1.2758  1.0762
14710TIP3    H265622   1.376   2.782  11.379 -0.1722 -0.5942 -1.3041
14711TIP3   OH265623   6.035   4.072   4.134  0.7247 -0.4271  0.2728
14711TIP3    H165624   5.964   4.136   4.126 -0.3189 -1.6171 -0.0428
14711TIP3    H265625   6.059   4.076   4.227 -1.0347 -1.3546  0.7988
14712TIP3   OH265626   6.432   5.686   5.714 -0.2707  0.0787 -0.3127
14712TIP3    H165627   6.406   5.721   5.800 -0.7583  1.3698 -0.9607
14712TIP3    H265628   6.476   5.760   5.671 -0.4840 -0.3999 -1.3687
14713TIP3   OH265629   4.884   1.187  15.400  0.1678 -0.5892  0.1660
14713TIP3    H165630   4.935   1.195  15.320  1.6731  2.8601  1.3831
14713TIP3    H265631   4.941   1.138  15.460  0.5948  0.0725  0.3135
14714TIP3   OH265632   4.032   2.068   4.820 -0.0092  0.2709 -0.1282
14714TIP3    H165633   4.122   2.052   4.849 -0.1264 -0.5444 -0.1960
14714TIP3    H265634   4.009   2.153   4.857  1.3697  1.2608 -1.4940
14715TIP3   OH265635   0.430   0.202  16.453 -0.0689 -0.4503 -0.0145
14715TIP3    H165636   0.377   0.175  16.527 -0.9029 -2.4795 -1.2957
14715TIP3    H265637   0.489   0.128  16.437  0.6005  0.2559 -0.8967
14716TIP3   OH265638   6.239   0.047  13.472 -0.6553 -0.2180 -0.1846
14716TIP3    H165639   6.163   0.036  13.414 -1.0256 -0.0657  0.2699
14716TIP3    H265640   6.210   0.112  13.537 -0.1068 -0.0957 -0.0619
14717TIP3   OH265641   4.723   2.046  16.501 -0.2752  0.9540  0.2717
14717TIP3    H165642   4.760   2.017  16.585  0.1312  1.8040  0.3965
14717TIP3    H265643   4.632   2.019  16.504 -0.2722  1.0157  1.0063
14718TIP3   OH265644   4.542   4.675   3.757 -0.1066  0.2066  0.5501
14718TIP3    H165645   4.599   4.601   3.738  0.3134 -0.1731  3.1017
14718TIP3    H265646   4.600   4.752   3.754 -0.2302  0.2589 -0.5693
14719TIP3   OH265647   1.191   0.584  14.310  0.7795 -0.1120 -0.4955
14719TIP3    H165648   1.123   0.590  14.243  2.2266  2.2160 -1.8282
14719TIP3    H265649   1.144   0.566  14.391 -1.1943 -0.8348 -1.7802
14720TIP3   OH265650   1.570   6.381  11.161 -0.5208  0.1296 -0.8544
14720TIP3    H165651   1.621   6.303  11.180 -0.3065  0.6575  0.8079
14720TIP3    H265652   1.525   6.361  11.078  1.8267 -0.5795 -1.9885
14721TIP3   OH265653   1.754   1.601  14.685  0.1117  0.5855 -0.1456
14721TIP3    H165654   1.680   1.566  14.736 -0.3185  1.0335 -0.4607
14721TIP3    H265655   1.713   1.653  14.616  0.6918 -0.1218 -1.0364
14722TIP3   OH265656   3.572   3.632   0.214  0.5731 -0.3831 -0.2604
14722TIP3    H165657   3.592   3.573   0.287  2.5664  0.2935 -0.2368
14722TIP3    H265658   3.511   3.696   0.252  1.3739 -0.2020  0.7517
14723TIP3   OH265659   5.160   1.113  15.297 -0.5253 -0.1351 -0.3358
14723TIP3    H165660   5.179   1.124  15.390  0.9493 -1.4876 -0.4702
14723TIP3    H265661   5.154   1.203  15.263  1.2704  0.3564  0.5993
14724TIP3   OH265662   5.382   6.501  16.637  0.3849  0.1424 -0.5526
14724TIP3    H165663   5.384   6.454  16.554  1.1887 -0.4122 -0.2289
14724TIP3    H265664   5.358   6.435  16.702 -2.9174  1.1153 -0.6715
14725TIP3   OH265665   1.618   1.499  11.456  0.3020  0.5010  0.4495
14725TIP3    H165666   1.536   1.456  11.481 -0.3257  0.6203 -1.3197
14725TIP3    H265667   1.665   1.433  11.405  0.3307  1.1475 -0.3780
14726TIP3   OH265668   3.690   2.507   3.849  0.4683  0.1614 -0.2708
14726TIP3    H165669   3.659   2.445   3.783  1.4292  1.5404 -2.0857
14726TIP3    H265670   3.780   2.528   3.821  0.1917  2.2659  0.3400
14727TIP3   OH265671   6.246   0.922   0.867 -0.7041  0.0020 -0.2363
14727TIP3    H165672   6.193   0.936   0.788 -0.3772 -0.7658 -0.5955
14727TIP3    H265673   6.247   0.827   0.879 -1.6662  0.1688  1.3350
14728TIP3   OH265674   6.162   3.134   4.151  0.3028 -0.2142 -0.3096
14728TIP3    H165675   6.238   3.098   4.105  2.4318  1.4933  1.7435
14728TIP3    H265676   6.186   3.129   4.244 -1.8266  0.9821  0.3404
14729TIP3   OH265677   3.494   1.943  11.767  0.7875 -0.1647  0.0460
14729TIP3    H165678   3.526   1.905  11.849 -0.1749 -0.0409  0.4825
14729TIP3    H265679   3.401   1.961  11.783  0.5103 -0.4531 -1.1851
14730TIP3   OH265680   6.813   2.292   2.387  0.1271 -0.3375  0.1131
14730TIP3    H165681   6.891   2.299   2.441  0.6899 -0.5401 -0.6712
14730TIP3    H265682   6.824   2.361   2.321  0.7498 -1.8521 -1.3976
14731TIP3   OH265683   5.521   1.118   1.715  0.0809  0.2309  0.8934
14731TIP3    H165684   5.569   1.150   1.639 -1.8722  1.3292  0.0807
14731TIP3    H265685   5.523   1.023   1.706  0.3823  0.3300 -0.2099
14732TIP3   OH265686   5.832   4.560  11.967  0.1647  0.6379  0.2845
14732TIP3    H165687   5.740   4.576  11.950  0.1980 -1.1245 -1.6818
14732TIP3    H265688   5.835   4.470  12.001  1.2002  0.5201 -0.1055
14733TIP3   OH265689   6.742   3.339  16.086 -0.6100 -0.2392  0.0221
14733TIP3    H165690   6.824   3.305  16.122 -1.0575  0.1115  1.4138
14733TIP3    H265691   6.692   3.365  16.163 -1.9849 -0.3476 -0.8263
14734TIP3   OH265692   4.415   5.109   5.267  0.4928 -0.6732  0.1610
14734TIP3    H165693   4.347   5.155   5.316 -0.0551 -0.4360 -0.8097
14734TIP3    H265694   4.414   5.019   5.301 -0.7196 -0.8246 -0.2650
14735TIP3   OH265695   5.412   5.764  17.137  0.1671 -0.0297  0.1036
14735TIP3    H165696   5.456   5.847  17.121  1.8974 -0.6249  1.5161
14735TIP3    H265697   5.453   5.702  17.077 -0.1112 -0.1669  0.0548
14736TIP3   OH265698   5.712   2.924   2.134 -0.2262  0.7151 -0.2353
14736TIP3    H165699   5.720   2.833   2.164  0.3395  0.8549  0.0530
14736TIP3    H265700   5.743   2.922   2.044 -0.7695  0.5170 -0.4208
14737TIP3   OH265701   4.458   4.595  13.176 -0.3440 -0.0765 -0.3178
14737TIP3    H165702   4.428   4.505  13.166  1.1267 -0.6246  0.0519
14737TIP3    H265703   4.463   4.629  13.086 -0.4867 -0.5051 -0.4864
14738TIP3   OH265704   2.434   5.966   3.973  0.4386 -0.0948 -0.0202
14738TIP3    H165705   2.411   5.873   3.977 -1.3298  0.2530 -1.4826
14738TIP3    H265706   2.411   5.993   3.885 -0.6879  2.1381  0.9123
14739TIP3   OH265707   5.912   3.720  10.338 -0.4004 -0.0504 -0.3019
14739TIP3    H165708   5.965   3.797  10.359  2.4116 -2.2664  1.1662
14739TIP3    H265709   5.884   3.733  10.248 -0.0972  2.7402 -0.0104
14740TIP3   OH265710   4.134   4.874   3.909 -0.0824  0.0385 -0.0516
14740TIP3    H165711   4.157   4.871   3.816 -1.0860 -0.4574 -0.2972
14740TIP3    H265712   4.048   4.915   3.910  0.8874  2.0593  0.8590
14741TIP3   OH265713   2.451   4.095   0.684 -0.0752  0.3419  0.4640
14741TIP3    H165714   2.524   4.062   0.735  0.3449 -0.2568 -0.5125
14741TIP3    H265715   2.395   4.019   0.669  0.0687  0.3931 -0.3957
14742TIP3   OH265716   0.066   6.614  16.277  0.4485  0.8393 -0.2051
14742TIP3    H165717   0.045   6.600  16.185  0.3657 -0.8734  0.0634
14742TIP3    H265718   0.010   6.553  16.324  0.5948  1.6045  0.9783
14743TIP3   OH265719   4.114   0.091   3.017  0.4394 -0.4485 -0.0964
14743TIP3    H165720   4.097   0.035   2.942  1.2445 -0.2676 -0.4193
14743TIP3    H265721   4.109   0.180   2.982  0.3398 -0.3471  0.1706
14744TIP3   OH265722   1.842   0.143  14.950 -0.9264 -0.4505 -0.7384
14744TIP3    H165723   1.771   0.079  14.949 -1.3174 -0.0196 -1.5576
14744TIP3    H265724   1.863   0.156  14.857 -1.9207  1.7776 -0.6990
14745TIP3   OH265725   2.586   1.201   4.017 -0.0680  0.3637  0.3125
14745TIP3    H165726   2.612   1.263   3.949 -0.8388  0.8475  0.4569
14745TIP3    H265727   2.636   1.228   4.094 -0.1000  0.5525  0.2664
14746TIP3   OH265728   6.440   5.586   2.949  0.1285 -0.7066  0.7032
14746TIP3    H165729   6.445   5.572   2.855 -1.5938  0.9753  0.3236
14746TIP3    H265730   6.346   5.588   2.968  0.4513 -0.4218  2.3536
14747TIP3   OH265731   4.846   5.359   0.887 -0.5787  0.0960 -0.0241
14747TIP3    H165732   4.802   5.276   0.867 -0.7519  0.5613 -1.6925
14747TIP3    H265733   4.782   5.408   0.938 -0.2838 -0.9808  1.4107
14748TIP3   OH265734   5.679   4.194   5.368  0.5444  0.3404  0.0258
14748TIP3    H165735   5.746   4.175   5.433 -0.7760 -0.1372  1.2709
14748TIP3    H265736   5.721   4.177   5.284  1.3701 -1.9239  0.8713
14749TIP3   OH265737   3.343   5.194   4.780  0.3953 -0.5253  0.0125
14749TIP3    H165738   3.334   5.124   4.716 -0.5046 -0.1700 -0.2484
14749TIP3    H265739   3.259   5.196   4.826  0.8414 -0.4154  0.8329
14750TIP3   OH265740   4.850   5.420  14.729 -0.0080  0.8014  0.4858
14750TIP3    H165741   4.826   5.399  14.639 -1.1461 -0.1050  0.9937
14750TIP3    H265742   4.867   5.336  14.770  2.3073  1.3220  0.6367
14751TIP3   OH265743   6.190   1.044   2.525  0.2463  0.2216  1.0778
14751TIP3    H165744   6.258   1.045   2.593  2.5368  2.6723 -1.1145
14751TIP3    H265745   6.234   1.008   2.449 -1.6912 -0.5516  0.2976
14752TIP3   OH265746   0.280   3.383  10.317  0.4996  0.0326 -0.2592
14752TIP3    H165747   0.258   3.301  10.274 -0.1008  1.1669 -2.1611
14752TIP3    H265748   0.374   3.392  10.304  0.7719 -0.8773  0.9326
14753TIP3   OH265749   4.638   3.177   2.185  0.5837  0.0257 -0.3573
14753TIP3    H165750   4.641   3.153   2.278 -1.1154  2.0437  0.2659
14753TIP3    H265751   4.718   3.226   2.170  0.3236  0.6732  0.3460
14754TIP3   OH265752   2.467   0.229   5.555  0.7292 -0.6797  0.1098
14754TIP3    H165753   2.549   0.270   5.581  0.6853 -1.2677  1.1889
14754TIP3    H265754   2.417   0.222   5.636  0.1839 -1.6292 -0.3058
14755TIP3   OH265755   2.830   6.586   1.159  0.0289 -0.3520  0.1567
14755TIP3    H165756   2.755   6.527   1.164  1.7713 -2.5933  0.3929
14755TIP3    H265757   2.814   6.650   1.229 -1.1698 -1.3794  0.8532
14756TIP3   OH265758   4.469   6.121   4.646 -0.5198 -0.2893  0.4761
14756TIP3    H165759   4.389   6.095   4.691 -0.2473  1.5763  2.1096
14756TIP3    H265760   4.441   6.149   4.559 -1.5370 -0.4677  0.7502
14757TIP3   OH265761   0.827   4.456  12.941  0.8327 -0.1631  0.7824
14757TIP3    H165762   0.776   4.536  12.924  0.7598 -0.3733  0.0043
14757TIP3    H265763   0.796   4.394  12.875  1.1469 -0.7216  1.1620
14758TIP3   OH265764   2.436   3.774   2.841 -0.1746 -0.0324 -0.4017
14758TIP3    H165765   2.430   3.683   2.814 -1.0106  0.0266 -0.4014
14758TIP3    H265766   2.498   3.813   2.779  0.0896 -0.5632 -0.4785
14759TIP3   OH265767   1.967   2.023   0.080  0.1125  0.0722 -0.1609
14759TIP3    H165768   1.901   1.985   0.021 -1.5418 -0.7760  2.1509
14759TIP3    H265769   1.949   2.117   0.078  0.1022  0.0600 -1.0202
14760TIP3   OH265770   6.494   2.132   5.086  0.5895 -0.2223  0.4281
14760TIP3    H165771   6.515   2.093   5.001  0.2301 -2.4511  1.3234
14760TIP3    H265772   6.412   2.090   5.112  1.5173 -0.7416  2.5988
14761TIP3   OH265773   6.610   1.083   6.351  0.3624 -0.2040  0.1164
14761TIP3    H165774   6.693   1.096   6.307  0.4460 -1.5465 -0.1568
14761TIP3    H265775   6.567   1.168   6.348  1.3362  0.2720 -0.5403
14762TIP3   OH265776   1.434   2.287  14.963  0.2433  0.3023 -0.3480
14762TIP3    H165777   1.359   2.331  15.003 -0.2498 -0.1520 -0.7751
14762TIP3    H265778   1.483   2.252  15.038 -0.8536 -0.8271 -0.1339
14763TIP3   OH265779   2.124   0.237  12.701 -0.3269 -0.0815  0.7381
14763TIP3    H165780   2.123   0.160  12.644  0.5522  1.2821 -1.2116
14763TIP3    H265781   2.068   0.214  12.774 -1.5343 -1.8944 -0.7093
14764TIP3   OH265782   0.390   3.933   0.012  0.2347 -0.0969 -0.5147
14764TIP3    H165783   0.472   3.936   0.062  0.3594 -2.3525 -0.5261
14764TIP3    H265784   0.321   3.939   0.078  0.4126 -1.7591 -0.1446
14765TIP3   OH265785   2.566   1.674  15.436  0.3426 -0.3206  0.7085
14765TIP3    H165786   2.620   1.601  15.467 -0.7869 -0.6029  2.0400
14765TIP3    H265787   2.476   1.644  15.448 -0.1651 -0.0901 -2.0244
14766TIP3   OH265788   4.726   4.975  10.342 -0.0786  0.1457  0.1448
14766TIP3    H165789   4.659   4.997  10.407 -1.0136  0.0827 -0.7821
14766TIP3    H265790   4.778   4.906  10.383 -1.5120 -0.8675  0.2915
14767TIP3   OH265791   6.654   0.914   1.655  0.2807  0.6015  0.3807
14767TIP3    H165792   6.698   0.829   1.658  0.5969  0.7991  1.5068
14767TIP3    H265793   6.587   0.904   1.587 -1.8657 -1.6096  2.7330
14768TIP3   OH265794   2.617   1.970  13.031 -0.6007 -0.0069  0.2671
14768TIP3    H165795   2.615   1.916  12.952  1.9075  0.6259 -0.2878
14768TIP3    H265796   2.653   1.913  13.098 -1.1728 -0.0382  0.5529
14769TIP3   OH265797   6.377   6.311   1.949  0.1629 -0.2860  0.6224
14769TIP3    H165798   6.346   6.330   1.860 -2.9849 -0.9233  1.5236
14769TIP3    H265799   6.388   6.216   1.951  0.2495 -0.2695  0.8984
14770TIP3   OH265800   3.317   3.682  16.460 -0.6377  0.3491 -0.0942
14770TIP3    H165801   3.412   3.675  16.469 -0.4312 -0.4598 -2.4650
14770TIP3    H265802   3.303   3.754  16.399 -1.5089  0.2030 -0.0799
14771TIP3   OH265803   4.835   3.069  12.688 -0.1657 -0.5627  0.3659
14771TIP3    H165804   4.894   3.128  12.735  1.6892  0.2067 -2.7381
14771TIP3    H265805   4.874   2.982  12.698  0.6737 -0.2807 -0.3847
14772TIP3   OH265806   3.562   4.407  12.491 -0.0213  0.1970  0.1417
14772TIP3    H165807   3.485   4.465  12.484  0.0334  0.1452 -0.9571
14772TIP3    H265808   3.528   4.320  12.469  0.5521  0.3405 -1.3590
14773TIP3   OH265809   6.759   3.510   4.420  0.3509 -0.1077  0.0932
14773TIP3    H165810   6.819   3.447   4.378 -0.1684 -1.5568  1.4636
14773TIP3    H265811   6.812   3.588   4.434  2.0160 -1.4548  1.5019
14774TIP3   OH265812   2.102   5.585  11.906  0.1856 -0.3863  0.4435
14774TIP3    H165813   2.186   5.541  11.895  0.1140 -0.4924  0.3256
14774TIP3    H265814   2.109   5.627  11.992  1.1250  1.2814 -0.4266
14775TIP3   OH265815   0.534   5.419  10.864 -0.1050 -0.4108 -0.4062
14775TIP3    H165816   0.607   5.361  10.883  0.7484  0.8145  0.1475
14775TIP3    H265817   0.465   5.391  10.924  0.5468 -0.4034  0.3594
14776TIP3   OH265818   6.679   1.579  12.936  0.2501  0.0198  0.3702
14776TIP3    H165819   6.589   1.605  12.958 -0.5487 -0.9431 -1.5831
14776TIP3    H265820   6.689   1.603  12.844  1.7727 -0.4888  0.3830
14777TIP3   OH265821   0.845   3.575   5.963 -0.6737 -0.2212  0.1347
14777TIP3    H165822   0.842   3.552   5.870  0.9970 -1.1032  0.2753
14777TIP3    H265823   0.789   3.510   6.005 -0.4527 -0.5869 -0.1273
14778TIP3   OH265824   4.484   3.220  14.552 -0.5146  0.7614 -0.6563
14778TIP3    H165825   4.505   3.176  14.470 -0.3622  1.7915 -1.1842
14778TIP3    H265826   4.544   3.181  14.616 -0.2981  0.3001 -1.1344
14779TIP3   OH265827   0.097   0.135  12.391  0.4338 -0.3529  0.0159
14779TIP3    H165828   0.161   0.099  12.452  0.2327  0.2984  0.6165
14779TIP3    H265829   0.013   0.098  12.418  0.1520  0.9534  0.9557
14780TIP3   OH265830   5.171   5.072  14.934 -0.1814 -0.1727 -0.3293
14780TIP3    H165831   5.243   5.060  14.996  0.8755  0.6420 -1.3620
14780TIP3    H265832   5.213   5.109  14.856 -1.3905 -1.7278 -1.7434
14781TIP3   OH265833   2.019   4.517  15.488 -0.0264  0.1803 -0.5547
14781TIP3    H165834   1.983   4.566  15.561  0.7458  1.5164 -1.0513
14781TIP3    H265835   2.072   4.448  15.528  2.3549  2.3822  0.1636
14782TIP3   OH265836   3.448   4.980  15.322  1.1974 -0.1797 -0.2652
14782TIP3    H165837   3.501   4.912  15.280  0.2224 -0.7628 -0.5731
14782TIP3    H265838   3.431   5.043  15.252  2.1925  0.4438  0.0485
14783TIP3   OH265839   2.960   0.947  16.976  0.1779  0.1344 -0.1697
14783TIP3    H165840   2.939   0.901  16.895 -0.6039  0.6683 -0.2752
14783TIP3    H265841   3.047   0.914  17.000 -0.4703 -1.5544 -0.1055
14784TIP3   OH265842   4.708   4.711   5.087  0.1127  0.5513 -0.0697
14784TIP3    H165843   4.644   4.782   5.092  0.3765  0.6348  2.6065
14784TIP3    H265844   4.791   4.754   5.065 -0.5953  0.5099 -2.9582
14785TIP3   OH265845   5.178   2.058  16.829  0.3332 -0.4427  0.0357
14785TIP3    H165846   5.267   2.091  16.820  0.1606 -0.2651 -1.0852
14785TIP3    H265847   5.187   1.976  16.877  0.9821  0.1422  0.9355
14786TIP3   OH265848   4.985   0.292   5.000  0.3891  0.0189  0.1801
14786TIP3    H165849   4.975   0.365   4.939 -0.5754 -1.4668 -1.4466
14786TIP3    H265850   4.897   0.274   5.031  0.5329 -0.9369  0.0405
14787TIP3   OH265851   5.778   4.869   0.527 -0.1306 -0.1654  0.1582
14787TIP3    H165852   5.731   4.790   0.552 -1.7793  1.1361  1.3007
14787TIP3    H265853   5.803   4.910   0.610  1.1845  0.2521 -0.4163
14788TIP3   OH265854   6.181   3.820   2.329  0.6020  0.1811  0.5785
14788TIP3    H165855   6.253   3.879   2.308  0.7806 -0.7305 -1.4592
14788TIP3    H265856   6.107   3.879   2.348  1.1804  1.0766  0.0790
14789TIP3   OH265857   6.172   0.192  16.007  1.1957  0.1676  0.1682
14789TIP3    H165858   6.200   0.115  15.958  2.4463  2.5043 -2.8980
14789TIP3    H265859   6.249   0.220  16.056  1.2669  0.5569 -0.1647
14790TIP3   OH265860   1.979   3.508   0.918 -0.1827  0.2224  0.6715
14790TIP3    H165861   1.968   3.483   0.826  0.9871 -0.1146  0.6071
14790TIP3    H265862   2.003   3.427   0.962 -1.5155  0.2271  1.4314
14791TIP3   OH265863   3.799   1.090  15.008 -0.0985 -0.3085 -0.0244
14791TIP3    H165864   3.863   1.054  14.946 -2.3824 -0.7968 -2.1715
14791TIP3    H265865   3.851   1.115  15.084  2.5694 -1.2196 -1.4838
14792TIP3   OH265866   0.779   2.041  11.267 -0.3271  0.1656  0.3359
14792TIP3    H165867   0.705   2.063  11.323 -1.6196  0.3067 -1.3893
14792TIP3    H265868   0.743   1.981  11.201  0.9761  0.5613 -0.7679
14793TIP3   OH265869   3.029   2.108   5.855 -0.2854 -0.2196  0.1127
14793TIP3    H165870   3.023   2.044   5.926  0.3558 -1.0234 -0.5459
14793TIP3    H265871   2.939   2.115   5.822 -0.3123 -0.9900  0.0131
14794TIP3   OH265872   0.828   5.287   4.887  0.3855 -0.5552 -0.3008
14794TIP3    H165873   0.843   5.301   4.980  2.8415 -2.1808 -0.4235
14794TIP3    H265874   0.770   5.211   4.883 -1.8951  1.0986 -0.0767
14795TIP3   OH265875   6.002   4.505  11.372 -0.3484 -0.2183  0.0292
14795TIP3    H165876   5.937   4.476  11.435  0.1328 -3.8458 -0.9787
14795TIP3    H265877   6.078   4.531  11.425 -0.9117 -0.6206  1.0356
14796TIP3   OH265878   0.573   1.119   3.111  0.2710  0.0363  0.0959
14796TIP3    H165879   0.584   1.025   3.125  0.5041  0.3004  1.7698
14796TIP3    H265880   0.559   1.127   3.017 -0.0435 -1.7022 -0.0315
14797TIP3   OH265881   0.348   2.468  11.208  0.0073 -0.4866 -0.7133
14797TIP3    H165882   0.435   2.448  11.174  0.0866  1.5273 -1.7600
14797TIP3    H265883   0.358   2.551  11.255 -0.4316 -2.4255  2.9957
14798TIP3   OH265884   1.808   6.101   5.066  0.3234 -0.5810  0.0428
14798TIP3    H165885   1.816   6.080   5.159  0.0294 -0.3201  0.1258
14798TIP3    H265886   1.896   6.129   5.040  0.2706 -0.1075  0.3774
14799TIP3   OH265887   6.083   2.788  13.377 -0.0399 -0.0953 -0.1338
14799TIP3    H165888   6.146   2.788  13.449  0.4909  0.3871 -0.5964
14799TIP3    H265889   6.111   2.859  13.319  0.9798 -2.0264 -2.0791
14800TIP3   OH265890   2.604   3.404  15.702 -0.2715 -0.0938 -0.4649
14800TIP3    H165891   2.543   3.430  15.771  0.3498  0.0500  0.0419
14800TIP3    H265892   2.685   3.383  15.749  0.2450  0.2744 -1.1783
14801TIP3   OH265893   1.355   5.796  12.200  0.6995 -0.3512 -0.0011
14801TIP3    H165894   1.392   5.723  12.150 -2.1784 -0.8629 -1.4568
14801TIP3    H265895   1.349   5.868  12.138  0.6435  0.1933  0.6321
14802TIP3   OH265896   0.639   0.103  12.662 -0.4492 -0.6341  0.2491
14802TIP3    H165897   0.547   0.079  12.652 -0.8186  0.3270  1.2223
14802TIP3    H265898   0.668   0.124  12.574 -1.0799 -1.2414 -0.1084
14803TIP3   OH265899   6.609   4.897   5.174 -0.0746 -0.2114 -0.3145
14803TIP3    H165900   6.523   4.899   5.131  0.1831  1.3591 -0.7820
14803TIP3    H265901   6.671   4.882   5.102  0.2847  1.5699 -0.3875
14804TIP3   OH265902   2.697   6.298  11.702 -0.0976 -0.4120 -0.7413
14804TIP3    H165903   2.628   6.232  11.714 -0.3653  0.1014  0.6393
14804TIP3    H265904   2.773   6.262  11.746 -0.4360  0.4806  0.6068
14805TIP3   OH265905   2.064   6.398  14.905  0.2065 -0.3878 -0.2013
14805TIP3    H165906   2.117   6.476  14.920  0.0036  0.0068 -1.4019
14805TIP3    H265907   2.042   6.403  14.811 -0.5069 -1.4413 -0.0927
14806TIP3   OH265908   6.283   3.610   2.529  0.0607  0.0345  1.0897
14806TIP3    H165909   6.225   3.544   2.492 -0.0258 -0.3276  1.8671
14806TIP3    H265910   6.256   3.692   2.487  1.0631 -0.6301 -0.8747
14807TIP3   OH265911   5.188   6.502  14.639  0.1526 -0.2321  0.1630
14807TIP3    H165912   5.204   6.408  14.637  1.5127 -0.0507  1.0921
14807TIP3    H265913   5.276   6.541  14.636 -0.2780  0.9379  1.7780
14808TIP3   OH265914   1.240   4.634   0.615  0.2201 -0.5122  0.1835
14808TIP3    H165915   1.246   4.559   0.674  0.3666 -0.1788  0.5843
14808TIP3    H265916   1.328   4.644   0.579  0.8344  1.0961  2.1026
14809TIP3   OH265917   5.821   2.359  15.076 -0.1019  0.3219  0.3819
14809TIP3    H165918   5.786   2.270  15.081  1.2645 -0.1233  2.7637
14809TIP3    H265919   5.893   2.354  15.013  0.5311 -0.4616  1.1698
14810TIP3   OH265920   1.877   2.594   5.084  0.5052 -0.5215 -0.4456
14810TIP3    H165921   1.858   2.591   4.990 -1.4373 -0.3449 -0.0768
14810TIP3    H265922   1.799   2.633   5.123  0.8055 -1.7072  1.3859
14811TIP3   OH265923   0.567   4.434  15.324  0.0839  0.4933  0.2743
14811TIP3    H165924   0.496   4.484  15.365 -0.4200  1.2947 -1.4954
14811TIP3    H265925   0.610   4.388  15.396 -2.3610 -0.1544  1.3844
14812TIP3   OH265926   2.482   6.330  13.268  0.7276 -0.3134 -0.0841
14812TIP3    H165927   2.539   6.395  13.227  1.4547 -0.7499  0.2300
14812TIP3    H265928   2.534   6.295  13.341  0.2659 -1.1029 -0.1299
14813TIP3   OH265929   2.993   5.892  13.327  0.0769  0.0185  0.0250
14813TIP3    H165930   2.989   5.970  13.382 -0.7498  0.9506 -1.3391
14813TIP3    H265931   3.005   5.926  13.238  0.4393 -1.4363 -0.4929
14814TIP3   OH265932   3.969   6.398   1.351 -0.0890  0.2601  0.0162
14814TIP3    H165933   4.001   6.488   1.357  1.4890 -0.3069  0.3613
14814TIP3    H265934   3.893   6.404   1.293 -0.4424  1.9208  0.6163
14815TIP3   OH265935   2.674   6.156  12.656  0.6492 -0.0031  0.0858
14815TIP3    H165936   2.697   6.215  12.584 -2.1730  2.5896  1.1922
14815TIP3    H265937   2.622   6.210  12.716 -1.8871 -3.5680  1.2771
14816TIP3   OH265938   1.080   2.203  12.338  0.5597  0.7187  0.1168
14816TIP3    H165939   1.163   2.241  12.367 -1.2564  3.5583  1.8352
14816TIP3    H265940   1.033   2.185  12.419 -1.4517  1.4113 -0.8620
14817TIP3   OH265941   2.401   4.029   0.349  0.1743 -0.1767  0.3486
14817TIP3    H165942   2.473   4.065   0.297 -0.1092 -0.0371  0.0528
14817TIP3    H265943   2.380   4.098   0.412  0.4630 -0.3140  0.5957
14818TIP3   OH265944   3.475   6.399  14.937  0.0010  0.1920 -0.2534
14818TIP3    H165945   3.513   6.325  14.890 -0.2578 -0.0872 -0.0259
14818TIP3    H265946   3.483   6.473  14.877  2.1628  0.4606  0.3192
14819TIP3   OH265947   3.227   2.937  14.710  0.6912  0.3350 -0.2839
14819TIP3    H165948   3.256   3.006  14.650 -2.0828  1.1548 -0.7391
14819TIP3    H265949   3.175   2.982  14.776  1.7715 -0.8812  1.4529
14820TIP3   OH265950   0.190   1.825   2.742  0.3419 -0.0868 -0.3965
14820TIP3    H165951   0.127   1.778   2.797  1.0424  0.8464  1.2536
14820TIP3    H265952   0.254   1.758   2.716 -0.0168 -0.5475 -0.0974
14821TIP3   OH265953   3.028   4.453   4.844  0.0414 -0.3180  0.3381
14821TIP3    H165954   3.033   4.442   4.749  1.5496  1.8150  0.1599
14821TIP3    H265955   3.008   4.545   4.857 -0.1493 -0.5924  2.1197
14822TIP3   OH265956   1.079   6.731   4.994 -0.4835 -0.2006  0.5668
14822TIP3    H165957   1.110   6.703   4.908 -0.2350 -0.6882  0.8156
14822TIP3    H265958   0.984   6.744   4.983 -0.3462  0.3925  0.0480
14823TIP3   OH265959   5.112   5.245   2.830  0.1933  0.2539  0.0638
14823TIP3    H165960   5.191   5.213   2.787  0.6644  1.1104  0.2793
14823TIP3    H265961   5.108   5.338   2.809  1.4285  1.1211  3.3062
14824TIP3   OH265962   1.365   2.282   0.747 -0.3271 -0.0529  0.1003
14824TIP3    H165963   1.337   2.344   0.680 -0.8236  0.6810  0.9639
14824TIP3    H265964   1.460   2.297   0.755 -0.2472 -0.2306 -0.5226
14825TIP3   OH265965   0.578   0.557  13.720  0.1803  0.2227  0.5810
14825TIP3    H165966   0.562   0.647  13.745  1.3959  1.0162 -1.3738
14825TIP3    H265967   0.496   0.529  13.678  0.7620  1.3682 -1.3829
14826TIP3   OH265968   2.491   3.824   1.473 -0.0008  0.5787 -0.2670
14826TIP3    H165969   2.402   3.816   1.506 -0.1512  1.0423 -0.5628
14826TIP3    H265970   2.546   3.805   1.549 -0.3416  2.5645  0.4860
14827TIP3   OH265971   6.138   4.229   0.700 -0.3921  0.4353 -0.3218
14827TIP3    H165972   6.060   4.175   0.691 -1.3977  1.8872 -0.3742
14827TIP3    H265973   6.173   4.205   0.786 -0.4164 -0.8258 -0.6558
14828TIP3   OH265974   3.552   6.015  15.060  0.3876 -0.2954 -0.4334
14828TIP3    H165975   3.518   5.945  15.005 -1.9620 -0.1333  0.7356
14828TIP3    H265976   3.586   5.970  15.138 -1.2742 -0.1622  0.3923
14829TIP3   OH265977   2.095   0.027  14.097 -0.9803 -0.3790 -0.4582
14829TIP3    H165978   2.077   0.072  14.014  0.2963 -0.7014 -0.9208
14829TIP3    H265979   2.147   0.090  14.147 -1.4012 -0.3435 -0.0655
14830TIP3   OH265980   4.667   5.439  12.048  0.5434 -0.1850 -0.0111
14830TIP3    H165981   4.593   5.482  12.004  2.0267  0.7314 -1.6837
14830TIP3    H265982   4.653   5.456  12.141 -0.8007  0.8409 -0.3776
14831TIP3   OH265983   0.913   0.311  10.505  0.1596 -0.0478 -0.0537
14831TIP3    H165984   0.830   0.294  10.550  0.1490 -0.7996 -0.3548
14831TIP3    H265985   0.974   0.250  10.544  0.5871  0.5446  0.2025
14832TIP3   OH265986   5.635   4.177   2.215 -0.0011 -0.3679  0.2963
14832TIP3    H165987   5.623   4.133   2.131 -1.1092 -1.3894  0.9700
14832TIP3    H265988   5.549   4.173   2.257  0.5602  0.0316  1.5279
14833TIP3   OH265989   5.356   6.288  16.442 -0.6920 -0.4842 -0.5825
14833TIP3    H165990   5.387   6.198  16.447 -1.0773 -0.5257  2.3569
14833TIP3    H265991   5.426   6.336  16.398  0.1080 -1.9710 -0.9647
14834TIP3   OH265992   0.083   3.750   4.397  0.1702  0.0800  0.7902
14834TIP3    H165993   0.174   3.779   4.399  0.4354 -0.6599 -0.1613
14834TIP3    H265994   0.036   3.819   4.350  0.9702 -1.4294 -2.3633
14835TIP3   OH265995   4.078   2.643  16.703  0.3454  0.1986  0.1219
14835TIP3    H165996   4.105   2.607  16.619  3.4361  0.5892  0.8831
14835TIP3    H265997   4.081   2.569  16.763 -0.7538  0.1615  0.1461
14836TIP3   OH265998   0.904   3.066  17.246  0.3639  0.4638 -0.6317
14836TIP3    H165999   0.923   3.001  17.179  0.7111  0.0582 -0.1410
14836TIP3    H266000   0.809   3.078  17.242  0.4733  1.0507 -1.7475
14837TIP3   OH266001   6.019   3.142   0.309 -0.4376  0.4605 -0.2259
14837TIP3    H166002   6.060   3.107   0.389  0.3328 -0.2627 -0.9370
14837TIP3    H266003   6.062   3.227   0.296 -1.2150  0.9923  0.6384
14838TIP3   OH266004   3.805   5.744  16.182 -0.4857 -0.0372  0.3922
14838TIP3    H166005   3.735   5.722  16.244 -1.3346  2.4310  0.3938
14838TIP3    H266006   3.758   5.765  16.101  0.3218  0.5231  0.0683
14839TIP3   OH266007   4.507   2.680   3.534  0.1808 -0.3956  0.2818
14839TIP3    H166008   4.475   2.756   3.485 -0.8791 -0.0302  1.5030
14839TIP3    H266009   4.589   2.656   3.491 -0.4093  0.3017 -1.2590
14840TIP3   OH266010   0.986   4.481   6.692  0.4726  0.9464 -0.2508
14840TIP3    H166011   1.057   4.538   6.662  0.1011  0.1415 -2.8155
14840TIP3    H266012   1.026   4.394   6.698 -0.1064  0.6209 -1.0111
14841TIP3   OH266013   3.490   5.381   4.637  0.3573 -0.1377  0.8348
14841TIP3    H166014   3.416   5.325   4.656  0.8308 -1.5668 -1.3745
14841TIP3    H266015   3.564   5.321   4.626  1.3553  1.0805  0.7731
14842TIP3   OH266016   4.718   1.863   4.822 -0.3898 -0.2582 -0.1627
14842TIP3    H166017   4.762   1.791   4.776  0.0969 -0.2384  0.2679
14842TIP3    H266018   4.666   1.820   4.890 -0.7782 -0.2614 -0.4645
14843TIP3   OH266019   6.733   2.926  13.495 -0.5285 -0.0084  0.7490
14843TIP3    H166020   6.673   2.951  13.566 -3.4686 -0.6032 -1.4497
14843TIP3    H266021   6.765   2.840  13.521 -1.5762 -0.2254  1.3760
14844TIP3   OH266022   4.915   1.165  11.870 -0.2654  0.1372 -0.4177
14844TIP3    H166023   4.994   1.118  11.897 -0.3282  0.2027 -0.1192
14844TIP3    H266024   4.900   1.229  11.939 -0.6008  0.0992 -0.4533
14845TIP3   OH266025   2.565   5.111  15.376  0.0017  0.8722  0.0177
14845TIP3    H166026   2.532   5.066  15.454  0.2845 -1.4787 -1.1758
14845TIP3    H266027   2.489   5.158  15.343 -0.5876  0.4446  0.7318
14846TIP3   OH266028   0.196   4.417   4.551  0.0784  0.8003  0.9252
14846TIP3    H166029   0.278   4.432   4.504  0.7011 -1.3004  1.3153
14846TIP3    H266030   0.127   4.442   4.489  0.9731  1.7305  0.2933
14847TIP3   OH266031   1.438   1.113   4.213  0.2622  0.0006 -0.0575
14847TIP3    H166032   1.484   1.102   4.130  1.1924 -0.9212  0.5622
14847TIP3    H266033   1.480   1.050   4.272 -0.8781  0.1269  0.9042
14848TIP3   OH266034   6.274   1.447   0.997  0.1516 -0.0345  0.6298
14848TIP3    H166035   6.272   1.467   1.090 -1.1540 -0.3472  0.6716
14848TIP3    H266036   6.270   1.352   0.992 -2.3940  0.0464  0.2167
14849TIP3   OH266037   4.460   5.304   1.315 -0.3632 -0.1305  0.3098
14849TIP3    H166038   4.443   5.214   1.344  0.2596 -0.0763  0.8490
14849TIP3    H266039   4.426   5.307   1.226 -1.4281 -0.5765  0.6900
14850TIP3   OH266040   3.429   1.192   1.710  0.4529 -0.1037  0.3658
14850TIP3    H166041   3.475   1.168   1.791  1.6140  1.2557  0.1302
14850TIP3    H266042   3.487   1.256   1.668 -1.7426  1.7939  0.1533
14851TIP3   OH266043   5.240   5.272   5.812 -0.0089 -0.7344  0.0045
14851TIP3    H166044   5.178   5.214   5.769  0.1185 -1.2256  0.4762
14851TIP3    H266045   5.292   5.214   5.868  0.7380 -0.2971 -0.2373
14852TIP3   OH266046   6.271   3.338   5.798 -0.0449  0.0362  1.0156
14852TIP3    H166047   6.358   3.302   5.817 -0.4841 -1.1367  0.8354
14852TIP3    H266048   6.211   3.283   5.849 -0.9030 -0.7353 -0.8004
14853TIP3   OH266049   3.249   4.654  11.519 -0.5554  0.4464  0.3790
14853TIP3    H166050   3.283   4.648  11.608 -1.9353  0.9029  0.9532
14853TIP3    H266051   3.275   4.572  11.477  0.0116  0.1882  1.2381
14854TIP3   OH266052   6.634   0.256   1.824  0.0218  0.7176 -0.5392
14854TIP3    H166053   6.718   0.224   1.790 -0.4686 -1.0419 -0.1411
14854TIP3    H266054   6.596   0.181   1.869 -1.6015  1.6104 -0.3763
14855TIP3   OH266055   0.798   4.581  15.834  0.6799  0.2917 -0.0797
14855TIP3    H166056   0.886   4.543  15.841 -0.1977 -1.9460 -0.5078
14855TIP3    H266057   0.810   4.674  15.853  2.7053 -0.4601  2.7762
14856TIP3   OH266058   5.188   3.229   4.694  0.2557 -0.1840  0.2968
14856TIP3    H166059   5.128   3.274   4.754 -0.1590 -0.0192 -0.2327
14856TIP3    H266060   5.220   3.154   4.744 -0.6252 -0.4476  0.4864
14857TIP3   OH266061   5.515   5.950   1.650  0.1114  0.1671 -0.4125
14857TIP3    H166062   5.498   5.962   1.557  2.0071 -0.4905 -0.8744
14857TIP3    H266063   5.604   5.915   1.654 -0.0271 -0.0416  1.6352
14858TIP3   OH266064   5.808   0.320   5.319  0.0451  0.6953 -0.0001
14858TIP3    H166065   5.760   0.299   5.239 -1.2520  1.1511  0.6346
14858TIP3    H266066   5.774   0.259   5.385  1.8158 -0.3505 -0.0107
14859TIP3   OH266067   6.327   6.203  14.103 -0.7520  0.0523 -0.0526
14859TIP3    H166068   6.360   6.116  14.083 -0.2575  0.2862 -0.2653
14859TIP3    H266069   6.293   6.236  14.020  1.0369  0.9080 -0.4787
14860TIP3   OH266070   1.469   4.767  12.539 -0.0895 -0.1775  0.0274
14860TIP3    H166071   1.470   4.859  12.512 -3.3500 -0.4330 -1.1652
14860TIP3    H266072   1.495   4.719  12.460  1.5867 -0.3185  0.6440
14861TIP3   OH266073   5.218   3.794  17.272 -0.7883 -0.2774 -0.2377
14861TIP3    H166074   5.195   3.887  17.260 -1.6173 -0.5058 -0.4454
14861TIP3    H266075   5.136   3.747  17.258 -0.4857 -1.0077  0.4305
14862TIP3   OH266076   5.866   5.513  12.573 -0.1673  0.3128 -0.1078
14862TIP3    H166077   5.805   5.441  12.560 -1.3703  1.6419 -2.0056
14862TIP3    H266078   5.873   5.555  12.487  2.0095  1.3001  0.4994
14863TIP3   OH266079   3.956   4.595   1.094 -0.1460 -1.0868  0.2168
14863TIP3    H166080   3.867   4.628   1.097 -0.1070 -1.0575  1.1472
14863TIP3    H266081   3.954   4.515   1.147  0.2131 -1.4724 -0.3496
14864TIP3   OH266082   6.686   5.729   5.429  0.8978 -0.2848 -0.4050
14864TIP3    H166083   6.658   5.809   5.472  0.9884  0.3287 -1.4626
14864TIP3    H266084   6.606   5.679   5.415  0.5768  0.5261 -1.5414
14865TIP3   OH266085   2.133   2.342   2.110 -0.5034  0.2620  0.2411
14865TIP3    H166086   2.077   2.272   2.144  1.6093 -0.5471  2.2084
14865TIP3    H266087   2.114   2.345   2.017 -0.0321 -3.5721 -0.0558
14866TIP3   OH266088   2.804   3.446   0.296 -0.0473 -0.2514 -0.1944
14866TIP3    H166089   2.754   3.384   0.348  0.3083  0.1722  0.6611
14866TIP3    H266090   2.889   3.452   0.340  0.9531 -1.3699 -1.9212
14867TIP3   OH266091   5.475   0.234   6.340  0.3115 -0.1471 -0.1264
14867TIP3    H166092   5.426   0.188   6.408  0.1631  1.1356  0.6572
14867TIP3    H266093   5.527   0.166   6.297  0.6289 -0.9380  1.4704
14868TIP3   OH266094   2.279   0.668  15.197  0.8274 -0.3014 -0.5768
14868TIP3    H166095   2.288   0.682  15.291 -1.8846 -0.0671 -0.3042
14868TIP3    H266096   2.211   0.731  15.170 -0.0235 -1.9003 -2.2624
14869TIP3   OH266097   5.467   6.639   5.471  0.6120 -0.1261 -0.3363
14869TIP3    H166098   5.416   6.704   5.423 -0.7639 -0.8083  0.1721
14869TIP3    H266099   5.402   6.584   5.514  1.7100 -2.7293 -1.8726
14870TIP3   OH266100   5.014   1.132   1.697  0.1449  0.7039 -0.1015
14870TIP3    H166101   4.921   1.129   1.673  0.2920 -1.1109 -0.4687
14870TIP3    H266102   5.018   1.086   1.781  0.9306 -0.4885 -0.7882
14871TIP3   OH266103   4.911   5.255  10.474 -0.1821  0.0760  0.3099
14871TIP3    H166104   4.852   5.318  10.516  0.5799  0.6486  0.5393
14871TIP3    H266105   4.874   5.169  10.494 -0.8171  0.4237  0.6339
14872TIP3   OH266106   0.841   0.803   1.956  0.0959 -0.5290 -0.2144
14872TIP3    H166107   0.810   0.745   1.886 -0.0366  2.1880 -2.4769
14872TIP3    H266108   0.934   0.785   1.963 -0.0059 -1.2551 -0.6410
14873TIP3   OH266109   1.699   6.139  12.359  0.5498  0.5202 -0.1060
14873TIP3    H166110   1.656   6.054  12.371 -0.7922  1.2220  0.1969
14873TIP3    H266111   1.718   6.143  12.265  1.9083 -0.7062  0.1021
14874TIP3   OH266112   3.509   0.481  13.098 -0.5739  0.2716 -0.8193
14874TIP3    H166113   3.436   0.501  13.039  0.0792  0.9006 -1.4188
14874TIP3    H266114   3.550   0.403  13.060 -0.7378  0.1059 -0.6583
14875TIP3   OH266115   4.874   5.177   4.821  0.3044 -0.3140 -0.3087
14875TIP3    H166116   4.826   5.217   4.749 -0.2767  0.9129  0.7572
14875TIP3    H266117   4.964   5.208   4.810  0.6504 -1.7232 -1.6527
14876TIP3   OH266118   0.366   5.453   0.982  0.3180  0.0842 -0.0607
14876TIP3    H166119   0.362   5.373   1.035 -0.0736  0.2580  0.1753
14876TIP3    H266120   0.275   5.469   0.957  0.3393  0.7059  0.2602
14877TIP3   OH266121   5.458   6.021   0.513  0.8584 -0.0579 -0.3899
14877TIP3    H166122   5.383   5.966   0.494  1.4464 -1.5492  1.4496
14877TIP3    H266123   5.502   6.033   0.429 -0.6500 -0.3134 -1.2279
14878TIP3   OH266124   6.388   1.674   1.666 -0.4623 -0.0598  0.5218
14878TIP3    H166125   6.323   1.701   1.602  1.9274  1.2499 -1.4058
14878TIP3    H266126   6.408   1.583   1.643  2.4961  1.2740 -2.4994
14879TIP3   OH266127   5.382   4.589  13.735  0.1380  0.0219  0.2353
14879TIP3    H166128   5.347   4.661  13.788 -1.2831  0.8628 -1.8020
14879TIP3    H266129   5.315   4.521  13.739  0.3927 -0.2331  0.1870
14880TIP3   OH266130   5.311   1.748   4.820  0.0767  0.2299 -0.2851
14880TIP3    H166131   5.272   1.828   4.857 -2.0547 -1.0560  0.3607
14880TIP3    H266132   5.364   1.712   4.891  0.6998  0.8320 -0.4381
14881TIP3   OH266133   1.038   4.106   3.364  0.1504 -0.0068  0.0890
14881TIP3    H166134   1.025   4.188   3.315  0.1426 -0.1595 -0.1675
14881TIP3    H266135   1.132   4.107   3.386  0.1180  0.1449  0.2195
14882TIP3   OH266136   2.384   3.898  12.710 -0.6585  0.0898 -0.7241
14882TIP3    H166137   2.321   3.827  12.720 -0.1420 -0.0049  2.3181
14882TIP3    H266138   2.392   3.910  12.616 -1.8247 -2.9242 -1.2597
14883TIP3   OH266139   6.399   4.694   4.719  0.2673 -0.4848 -0.1454
14883TIP3    H166140   6.355   4.780   4.724  0.1148 -0.6101  0.5950
14883TIP3    H266141   6.441   4.695   4.633 -1.1979 -0.3581 -0.8925
14884TIP3   OH266142   6.327   6.532   1.394 -0.3448 -0.1759  0.4419
14884TIP3    H166143   6.252   6.475   1.411 -0.2426 -0.3758  0.2299
14884TIP3    H266144   6.292   6.602   1.339 -0.1940 -0.7227 -0.3577
14885TIP3   OH266145   3.927   0.794   6.751 -0.0044 -0.3190 -0.7204
14885TIP3    H166146   3.881   0.715   6.780  2.6475 -1.7397 -0.3072
14885TIP3    H266147   3.857   0.852   6.722 -2.0507 -2.6073 -0.5392
14886TIP3   OH266148   5.352   1.118  16.351 -0.3964  0.0689 -0.2745
14886TIP3    H166149   5.380   1.096  16.262  2.1936  0.2029  0.4463
14886TIP3    H266150   5.267   1.160  16.340  0.4982  1.3145 -2.8362
14887TIP3   OH266151   3.008   2.507  16.599  0.5857  0.0956  0.5928
14887TIP3    H166152   2.962   2.533  16.519  0.6890 -0.1486  0.4564
14887TIP3    H266153   3.006   2.586  16.654  1.1001  0.4705  0.0813
14888TIP3   OH266154   3.786   0.002  15.499  0.1259 -0.7682  0.0642
14888TIP3    H166155   3.749   0.090  15.504  1.0634 -0.4476  1.6965
14888TIP3    H266156   3.841   0.003  15.421 -1.4641 -0.5474 -1.0722
14889TIP3   OH266157   0.539   0.171   5.824  0.4827  0.3248 -0.1407
14889TIP3    H166158   0.615   0.135   5.778 -0.4963 -1.4262 -0.4419
14889TIP3    H266159   0.518   0.251   5.777  2.2269  0.8812  0.0343
14890TIP3   OH266160   4.995   6.194  15.290  0.0599  0.9774  0.1709
14890TIP3    H166161   4.943   6.201  15.210 -0.9028 -2.4521  0.4308
14890TIP3    H266162   5.086   6.197  15.260 -0.2782  1.4747 -0.8457
14891TIP3   OH266163   2.281   6.027  11.597  0.2595 -0.0411  0.0703
14891TIP3    H166164   2.240   5.941  11.587 -0.1345  0.0283  1.0475
14891TIP3    H266165   2.240   6.081  11.530  0.0605 -0.4552 -0.1402
14892TIP3   OH266166   6.770   5.881  15.936 -0.2804  0.4134 -0.0578
14892TIP3    H166167   6.800   5.820  16.004 -0.5748 -0.4081 -0.6489
14892TIP3    H266168   6.692   5.839  15.900  0.0180  0.7155 -1.0715
14893TIP3   OH266169   2.773   0.955  15.296  0.3465  0.4987  0.0256
14893TIP3    H166170   2.767   0.981  15.388  2.8614  0.2613  0.2830
14893TIP3    H266171   2.703   1.004  15.252  0.2138  1.9100  1.7702
14894TIP3   OH266172   3.289   3.587   1.417 -0.2868  0.2755 -0.5629
14894TIP3    H166173   3.256   3.647   1.484 -1.9103 -0.9288 -0.2508
14894TIP3    H266174   3.374   3.624   1.391 -0.2668  1.5096  1.1634
14895TIP3   OH266175   5.378   1.236  16.590 -0.6283  0.9662 -0.2712
14895TIP3    H166176   5.376   1.169  16.658  0.1523  0.9166 -0.2887
14895TIP3    H266177   5.372   1.187  16.508  2.2822  0.7181 -0.3763
14896TIP3   OH266178   2.512   3.475  16.757  0.4144 -0.0315 -0.6255
14896TIP3    H166179   2.588   3.473  16.699 -0.0556 -2.2126 -1.2248
14896TIP3    H266180   2.542   3.433  16.837  0.1792  0.1833 -0.4254
14897TIP3   OH266181   3.692   2.688  14.471  0.1998  0.3867 -0.3823
14897TIP3    H166182   3.707   2.776  14.436 -2.3408  1.0455  0.0886
14897TIP3    H266183   3.779   2.655  14.491  1.2562  2.4311 -1.4411
14898TIP3   OH266184   5.708   3.617  10.910  0.3514  0.3951  0.3301
14898TIP3    H166185   5.711   3.595  10.817  2.0574  1.1218  0.1921
14898TIP3    H266186   5.628   3.576  10.942 -0.4973  0.5196 -1.5508
14899TIP3   OH266187   3.219   1.381   0.989  0.0910  0.3022 -0.0366
14899TIP3    H166188   3.150   1.390   1.054 -0.7852  1.0918 -1.0571
14899TIP3    H266189   3.280   1.452   1.008  0.1846  0.1189  0.3438
14900TIP3   OH266190   4.746   4.188   5.512  0.2201  0.9065  0.2812
14900TIP3    H166191   4.679   4.256   5.503 -0.5755 -0.0336 -1.0858
14900TIP3    H266192   4.814   4.213   5.450 -0.1729  0.3409 -0.3798
14901TIP3   OH266193   4.646   3.764  17.224 -0.8055 -0.3643  0.4106
14901TIP3    H166194   4.593   3.690  17.194 -0.8756  0.1029 -0.6584
14901TIP3    H266195   4.726   3.759  17.172 -0.3465 -0.3052  1.0981
14902TIP3   OH266196   0.669   2.669  14.373 -0.9147 -0.5585  0.1477
14902TIP3    H166197   0.602   2.702  14.313 -1.0172  2.0955  1.6479
14902TIP3    H266198   0.632   2.589  14.410 -1.5067 -1.3702 -2.0935
14903TIP3   OH266199   2.895   0.997   5.026 -0.2128  0.3650 -0.3693
14903TIP3    H166200   2.948   0.956   4.958 -0.5115 -2.1843  0.8855
14903TIP3    H266201   2.930   1.086   5.033 -0.2660  0.7375 -3.9060
14904TIP3   OH266202   0.202   5.491  11.514 -0.7240 -0.9097  0.5750
14904TIP3    H166203   0.180   5.577  11.478  1.7292 -0.9555 -1.1923
14904TIP3    H266204   0.177   5.430  11.445 -0.0346 -1.3581  0.7127
14905TIP3   OH266205   0.928   1.788   1.279  0.3548 -0.2311 -0.4345
14905TIP3    H166206   0.997   1.794   1.345 -0.5736  0.4949  0.4805
14905TIP3    H266207   0.879   1.710   1.303  0.7209 -0.6233 -0.9561
14906TIP3   OH266208   3.658   1.972   1.682 -0.5214 -0.1098 -0.2075
14906TIP3    H166209   3.641   1.984   1.775  0.5393 -1.4986  0.1947
14906TIP3    H266210   3.729   2.032   1.662 -1.9273  1.4765 -0.5500
14907TIP3   OH266211   3.315   5.990   5.978  0.0834 -0.2778 -0.2360
14907TIP3    H166212   3.406   5.989   5.951 -0.5815  0.5964 -2.6863
14907TIP3    H266213   3.306   6.070   6.030  0.7382 -0.4345  0.1160
14908TIP3   OH266214   0.145   3.409   3.092 -1.0953 -0.1473  0.7748
14908TIP3    H166215   0.199   3.356   3.151  0.2928  0.8075  0.4009
14908TIP3    H266216   0.205   3.477   3.060 -2.4957  0.8455  0.2242
14909TIP3   OH266217   0.725   0.958   2.148 -0.0298  0.1572  0.0415
14909TIP3    H166218   0.691   1.038   2.109 -1.6898 -0.6404 -0.1944
14909TIP3    H266219   0.743   0.901   2.073  0.6118  0.1010  0.2375
14910TIP3   OH266220   5.850   6.221  15.604  0.1391 -0.2005  0.0897
14910TIP3    H166221   5.779   6.248  15.546 -0.9692 -2.6098  0.2362
14910TIP3    H266222   5.864   6.129  15.583  2.1461 -0.1756  1.1926
14911TIP3   OH266223   2.878   1.774   3.583  0.9075 -0.6040 -0.3944
14911TIP3    H166224   2.923   1.702   3.627  1.6872 -0.7324 -1.3646
14911TIP3    H266225   2.886   1.848   3.642  1.6444 -0.8617 -0.1676
14912TIP3   OH266226   6.336   4.410   0.534  0.7653 -0.0213 -0.0297
14912TIP3    H166227   6.421   4.454   0.522 -0.3953  2.0892 -0.8966
14912TIP3    H266228   6.317   4.420   0.627 -0.0656  2.4981 -0.4363
14913TIP3   OH266229   0.378   2.409  15.893 -0.4748 -0.3995 -0.4575
14913TIP3    H166230   0.424   2.400  15.809 -1.6356  1.3792 -1.3120
14913TIP3    H266231   0.302   2.464  15.873 -0.3438  0.7192  1.9243
14914TIP3   OH266232   5.411   1.040  12.160 -0.0757  0.1256 -0.0779
14914TIP3    H166233   5.372   0.953  12.158  0.6019 -0.2022  0.4993
14914TIP3    H266234   5.492   1.031  12.109  0.8803 -0.0415  1.4300
14915TIP3   OH266235   5.951   0.726  12.903 -0.5787  0.2434 -0.4291
14915TIP3    H166236   5.950   0.631  12.917 -0.1479  0.4176  0.8419
14915TIP3    H266237   6.040   0.752  12.923 -1.2414  1.2148  1.4158
14916TIP3   OH266238   3.154   1.318   3.649 -0.9350  0.7760 -0.1213
14916TIP3    H166239   3.179   1.389   3.589  0.0557  0.6819  0.1776
14916TIP3    H266240   3.202   1.241   3.618  0.6345  1.0228  1.5475
14917TIP3   OH266241   5.145   1.182  12.363  0.5017  0.1467 -0.0893
14917TIP3    H166242   5.186   1.268  12.361  1.6284 -0.3803 -0.2055
14917TIP3    H266243   5.061   1.195  12.408  2.4340  0.5374  3.5658
14918TIP3   OH266244   0.979   2.450   1.815 -1.1269  0.3921 -0.4572
14918TIP3    H166245   0.931   2.399   1.749 -0.2622  0.0571 -0.8310
14918TIP3    H266246   1.031   2.512   1.764  0.1442 -0.3915 -0.1263
14919TIP3   OH266247   6.219   1.023   6.096  0.2311  0.1435  0.4260
14919TIP3    H166248   6.164   0.945   6.093  1.1829 -0.4965 -0.9262
14919TIP3    H266249   6.293   0.999   6.152  1.0008 -0.2540 -0.7464
14920TIP3   OH266250   1.000   0.374   2.566 -0.2870 -0.2182 -0.2044
14920TIP3    H166251   1.053   0.446   2.530 -0.1708  1.1075  2.5007
14920TIP3    H266252   0.933   0.417   2.619 -3.1380 -1.9652 -2.2636
14921TIP3   OH266253   5.396   4.749  16.125  0.5066 -0.2018 -0.6555
14921TIP3    H166254   5.452   4.779  16.197  0.5016  3.5968 -2.1234
14921TIP3    H266255   5.311   4.732  16.166  0.8219  0.7624  0.4205
14922TIP3   OH266256   1.761   2.501   0.008 -0.2815 -0.6043 -0.5158
14922TIP3    H166257   1.732   2.499   0.099 -2.1110 -0.5561 -1.0935
14922TIP3    H266258   1.785   2.592  -0.009  0.5187 -0.7028  0.0396
14923TIP3   OH266259   1.804   6.540   0.073 -0.0992 -0.0257  0.4192
14923TIP3    H166260   1.780   6.531   0.165 -0.1343 -0.8461  0.3345
14923TIP3    H266261   1.775   6.458   0.033 -0.4905  0.5210 -0.4106
14924TIP3   OH266262   5.064   0.303   2.601 -0.0450 -0.0827  0.2517
14924TIP3    H166263   5.054   0.246   2.677 -1.5094 -1.0851 -0.6602
14924TIP3    H266264   4.975   0.333   2.582  0.7270  2.8488  0.9465
14925TIP3   OH266265   3.638   6.092  10.552  0.3254  0.1519 -0.4015
14925TIP3    H166266   3.707   6.036  10.517  1.4972 -0.0945  2.1451
14925TIP3    H266267   3.601   6.136  10.476  1.3013 -1.9426 -2.1353
14926TIP3   OH266268   1.914   4.875   0.934  0.1581  0.5162 -0.0479
14926TIP3    H166269   1.998   4.900   0.893 -0.6169  1.6548 -0.9854
14926TIP3    H266270   1.926   4.894   1.026  0.7491  1.1838 -0.2574
14927TIP3   OH266271   1.165   2.341   4.463  0.0818 -0.0040  0.5277
14927TIP3    H166272   1.215   2.269   4.425 -0.0098 -0.0946  0.5782
14927TIP3    H266273   1.083   2.342   4.414  0.1225  0.1254  0.4635
14928TIP3   OH266274   5.301   0.232   3.578  0.1718 -0.6569 -0.3449
14928TIP3    H166275   5.248   0.163   3.539  2.2592 -1.3393 -2.1209
14928TIP3    H266276   5.367   0.186   3.630  2.2419 -0.1393 -2.3962
14929TIP3   OH266277   2.715   2.435   0.876  0.2181 -0.0960 -0.0512
14929TIP3    H166278   2.702   2.450   0.969  1.5139  0.2182  0.0834
14929TIP3    H266279   2.792   2.487   0.853  0.0216 -0.3171 -1.2552
14930TIP3   OH266280   2.367   2.039  15.756  0.6563  0.4354  0.2878
14930TIP3    H166281   2.436   2.101  15.731  1.8530 -1.1412 -0.4124
14930TIP3    H266282   2.407   1.987  15.826  0.1651 -0.4625 -0.0965
14931TIP3   OH266283   5.710   5.459  15.161 -0.1050  0.2881 -0.3576
14931TIP3    H166284   5.798   5.446  15.196  0.4067 -0.6844 -1.9260
14931TIP3    H266285   5.723   5.517  15.086 -0.5002 -1.4226 -1.7962
14932TIP3   OH266286   6.341   5.551  16.427  0.0787  0.5442 -0.9085
14932TIP3    H166287   6.318   5.500  16.504  2.6539 -0.5017 -0.7639
14932TIP3    H266288   6.338   5.642  16.456 -1.1460  0.2937 -0.2088
14933TIP3   OH266289   4.927   5.914   3.091 -0.1880  0.4891  0.3031
14933TIP3    H166290   4.875   5.901   3.171 -1.2255 -1.3409 -0.6065
14933TIP3    H266291   4.861   5.927   3.023  0.6604  1.1266 -0.3949
14934TIP3   OH266292   6.088   3.104   5.632 -0.1388 -0.5375 -0.1604
14934TIP3    H166293   6.149   3.080   5.702 -0.2015 -0.5871 -0.1235
14934TIP3    H266294   6.015   3.043   5.641  0.8610 -2.0124 -1.6431
14935TIP3   OH266295   6.078   2.204   1.046 -0.6218 -0.6121  0.4204
14935TIP3    H166296   6.054   2.241   1.131 -2.1190 -2.6820  0.9271
14935TIP3    H266297   6.098   2.281   0.992 -2.3770  0.8775  1.8148
14936TIP3   OH266298   6.799   5.976   6.119 -0.1372 -0.1981  0.3554
14936TIP3    H166299   6.851   5.911   6.167 -0.7410 -1.8195 -1.1309
14936TIP3    H266300   6.851   6.056   6.122  1.9590 -1.5165 -0.2175
14937TIP3   OH266301   4.599   5.259  15.638  0.2016  0.2667  0.0429
14937TIP3    H166302   4.576   5.349  15.615 -0.8839 -0.3392 -1.3378
14937TIP3    H266303   4.694   5.260  15.645  0.3100  1.2117 -1.3515
14938TIP3   OH266304   1.206   4.881   2.239 -0.1983 -0.2380 -0.4338
14938TIP3    H166305   1.153   4.959   2.223 -1.9565 -1.5404 -1.1935
14938TIP3    H266306   1.218   4.878   2.333 -0.8728  0.4797 -0.3209
14939TIP3   OH266307   1.429   5.276   4.686  0.0804 -0.4427 -0.0800
14939TIP3    H166308   1.492   5.207   4.667  0.8473  0.2143  0.0281
14939TIP3    H266309   1.344   5.238   4.665  0.6460 -0.7817 -1.8772
14940TIP3   OH266310   0.768   3.072  10.424 -0.3434  0.3079  0.3309
14940TIP3    H166311   0.846   3.076  10.478  1.2689  1.5616 -1.9891
14940TIP3    H266312   0.781   2.997  10.367 -0.6829  0.6988 -0.2715
14941TIP3   OH266313   0.412   2.915  15.361 -0.0915 -0.0298  0.1127
14941TIP3    H166314   0.403   2.839  15.418 -0.1693 -0.2385 -0.1794
14941TIP3    H266315   0.474   2.887  15.293 -0.6612 -0.0630 -0.3945
14942TIP3   OH266316   3.623   5.221   2.686 -0.5802 -0.7667 -0.4378
14942TIP3    H166317   3.620   5.180   2.772  1.5820 -3.2330 -1.4597
14942TIP3    H266318   3.559   5.292   2.691 -1.9608 -2.1145  2.5272
14943TIP3   OH266319   0.639   5.618   3.391 -0.0808  0.5188  1.0797
14943TIP3    H166320   0.589   5.686   3.346 -0.3160  0.9727  1.9999
14943TIP3    H266321   0.574   5.560   3.429  0.0971  0.6094  1.5315
14944TIP3   OH266322   0.264   4.939   0.127  0.5395 -0.1015 -0.4884
14944TIP3    H166323   0.348   4.936   0.081  0.1010 -1.6876 -1.2341
14944TIP3    H266324   0.222   4.855   0.105 -1.0516  0.4959  0.2107
14945TIP3   OH266325   4.234   4.994  11.959  0.4957  0.1272 -0.3451
14945TIP3    H166326   4.289   5.072  11.961  0.1331  0.3858 -0.3215
14945TIP3    H266327   4.145   5.028  11.951  0.3034 -0.2677  0.0696
14946TIP3   OH266328   2.090   0.091  15.044 -0.7745  0.0601 -0.6861
14946TIP3    H166329   2.160   0.039  15.083 -1.3624 -0.3324 -0.1411
14946TIP3    H266330   2.060   0.039  14.969 -0.2719  0.3759 -1.1071
14947TIP3   OH266331   0.034   1.957  15.664  0.4011  0.5011  1.5784
14947TIP3    H166332  -0.010   1.876  15.689 -1.1299  0.7905 -0.1323
14947TIP3    H266333   0.086   1.934  15.587 -0.8027  1.3443  0.4909
14948TIP3   OH266334   2.928   3.705   0.594  0.1976  0.9602  0.1881
14948TIP3    H166335   3.009   3.702   0.543  0.6009  0.3723  0.8443
14948TIP3    H266336   2.939   3.636   0.659 -2.6832 -2.1827 -2.4630
14949TIP3   OH266337   5.309   3.299   5.902  0.6137  0.3366  0.5925
14949TIP3    H166338   5.254   3.367   5.942 -0.5932 -0.2713 -0.0173
14949TIP3    H266339   5.360   3.264   5.975 -0.6382  0.1154  1.3820
14950TIP3   OH266340   2.448   3.346   6.412 -0.3661  0.1185  0.1486
14950TIP3    H166341   2.437   3.296   6.493  1.2528 -1.2559 -0.4422
14950TIP3    H266342   2.542   3.364   6.408 -0.3247 -0.4339 -1.7562
14951TIP3   OH266343   3.726   6.029  15.714  0.1631 -0.1686 -0.2656
14951TIP3    H166344   3.632   6.047  15.712  0.1050 -0.5403 -1.0872
14951TIP3    H266345   3.733   5.943  15.755  0.0284 -0.7915 -1.5060
14952TIP3   OH266346   1.937   5.827  11.350 -0.5015  0.4898  0.1494
14952TIP3    H166347   1.845   5.848  11.362 -1.0432 -1.1300 -1.0312
14952TIP3    H266348   1.945   5.805  11.257  1.2097  1.2163  0.0865
14953TIP3   OH266349   3.999   6.406  15.740  0.4934 -0.1330  0.0393
14953TIP3    H166350   3.928   6.348  15.713  1.0497 -1.3173  1.0759
14953TIP3    H266351   3.983   6.487  15.691 -2.0802 -0.0543  0.9208
14954TIP3   OH266352   2.391   0.699   4.268  0.3744  0.3352 -0.2453
14954TIP3    H166353   2.375   0.776   4.323 -0.8436  0.5915 -0.9276
14954TIP3    H266354   2.368   0.624   4.323 -0.4613  0.5714 -0.2653
14955TIP3   OH266355   1.731   4.448  11.202 -0.1639  0.0805 -0.0041
14955TIP3    H166356   1.680   4.508  11.147 -0.9888  0.2599  0.9468
14955TIP3    H266357   1.782   4.505  11.259 -1.3807 -0.1030  1.2965
14956TIP3   OH266358   3.456   3.879   0.305 -0.2251 -0.1809 -0.0385
14956TIP3    H166359   3.497   3.958   0.271  1.3380 -0.3486  1.3496
14956TIP3    H266360   3.500   3.863   0.389 -2.0287 -1.3030  0.7388
14957TIP3   OH266361   0.874   4.632   3.179 -0.2227  0.3314 -0.6689
14957TIP3    H166362   0.821   4.683   3.241  1.5924 -1.3152  2.3209
14957TIP3    H266363   0.949   4.689   3.160  0.2662  0.0132  0.2852
14958TIP3   OH266364   4.779   4.057   3.324 -0.3670 -0.0799  0.0501
14958TIP3    H166365   4.799   4.024   3.237  0.0428  0.4238 -0.0467
14958TIP3    H266366   4.864   4.065   3.367 -0.4467  1.0264  0.0100
14959TIP3   OH266367   5.270   6.456  12.277  0.2526 -0.6019  0.3194
14959TIP3    H166368   5.195   6.454  12.218 -0.7362  0.7293  1.4980
14959TIP3    H266369   5.345   6.472  12.221 -0.8763  2.4183 -0.4239
14960TIP3   OH266370   1.897   5.903   4.536  0.2693 -0.1770 -0.1562
14960TIP3    H166371   1.845   5.877   4.612 -1.2486 -0.1272 -1.1679
14960TIP3    H266372   1.913   5.822   4.488 -1.4503  0.2087 -1.4306
14961TIP3   OH266373   1.886   4.970  13.613  0.0838  0.2718  0.0545
14961TIP3    H166374   1.927   4.972  13.526 -0.9407 -0.8679 -0.4527
14961TIP3    H266375   1.793   4.956  13.596  0.1068 -1.5976  1.4069
14962TIP3   OH266376   2.177   4.628  13.990 -0.2887 -0.1112 -0.5408
14962TIP3    H166377   2.161   4.718  13.963  0.3033  0.7334  1.7768
14962TIP3    H266378   2.090   4.588  13.996 -0.6196  0.5842 -0.6725
14963TIP3   OH266379   4.979   6.089  14.797  0.2849 -0.0677 -0.1297
14963TIP3    H166380   5.020   6.016  14.843  0.7048  0.9610  1.1859
14963TIP3    H266381   5.046   6.119  14.736  0.1212 -0.7731 -0.6480
14964TIP3   OH266382   6.768   3.579  14.641 -0.2824  0.8320 -0.5320
14964TIP3    H166383   6.758   3.655  14.583  0.3591  1.7777  0.5709
14964TIP3    H266384   6.776   3.617  14.728 -2.3117 -0.6192  0.3186
14965TIP3   OH266385   0.944   4.944   2.428  0.2739 -0.5142 -0.2075
14965TIP3    H166386   0.855   4.928   2.459  0.3185  0.7121  0.5973
14965TIP3    H266387   0.999   4.928   2.505  0.7669 -1.3514 -0.7226
14966TIP3   OH266388   2.931   6.190  12.750 -0.2944 -0.2994  0.1639
14966TIP3    H166389   2.840   6.163  12.737 -0.6871  1.4900 -0.9887
14966TIP3    H266390   2.926   6.270  12.802  0.6461 -0.4111  0.4452
14967TIP3   OH266391   2.176   6.117   0.600 -0.4702 -0.4854 -0.4553
14967TIP3    H166392   2.122   6.067   0.539  0.7759  0.3688 -2.2713
14967TIP3    H266393   2.259   6.131   0.554  0.4122  0.3800  1.3362
14968TIP3   OH266394   0.921   5.085   3.750 -0.4251 -0.5177 -0.1769
14968TIP3    H166395   0.829   5.070   3.770 -0.5588  0.3212 -0.1611
14968TIP3    H266396   0.922   5.164   3.696  0.0113 -2.1758 -2.6933
14969TIP3   OH266397   2.387   4.823   4.060  0.2510 -0.4244 -0.2654
14969TIP3    H166398   2.455   4.880   4.026  0.0589 -0.1089 -0.1283
14969TIP3    H266399   2.413   4.806   4.151  0.5614 -0.9510 -0.4523
14970TIP3   OH266400   6.049   5.417  11.188 -0.7615  0.1469 -0.1444
14970TIP3    H166401   5.981   5.443  11.126 -2.5835  0.8446  2.0882
14970TIP3    H266402   6.032   5.325  11.206 -0.5553  0.0821 -0.2766
14971TIP3   OH266403   0.321   0.304   1.008  0.0596 -0.4645 -0.5871
14971TIP3    H166404   0.394   0.344   1.055  0.2834 -0.5563 -0.8605
14971TIP3    H266405   0.347   0.213   0.995  1.2758  0.2523 -3.4891
14972TIP3   OH266406   0.338   0.157  14.431  0.1334  0.2100  0.1590
14972TIP3    H166407   0.417   0.183  14.478  0.6383  0.4477 -0.8296
14972TIP3    H266408   0.268   0.163  14.497  1.0581 -0.7611  1.2376
14973TIP3   OH266409   6.361   0.273  14.098  0.3888  0.1729 -0.2282
14973TIP3    H166410   6.428   0.213  14.065  0.5397 -0.1880  0.7137
14973TIP3    H266411   6.394   0.360  14.075 -0.6971 -0.1464 -3.2055
14974TIP3   OH266412   5.633   0.186   1.447 -0.2917 -0.5879 -0.1699
14974TIP3    H166413   5.628   0.281   1.434  1.0941 -0.2550  1.5428
14974TIP3    H266414   5.716   0.162   1.406 -1.0329 -1.2093 -1.3344
14975TIP3   OH266415   6.755   4.313   5.375 -0.3787  0.1676  0.0750
14975TIP3    H166416   6.700   4.390   5.357  0.7161  0.7865 -0.6472
14975TIP3    H266417   6.797   4.332   5.459 -1.3333 -0.3516  0.6789
14976TIP3   OH266418   4.471   3.225   1.210 -0.6819 -0.0981 -0.2562
14976TIP3    H166419   4.519   3.158   1.258 -1.3057  0.3869  1.0793
14976TIP3    H266420   4.388   3.184   1.186 -0.5389 -0.2099 -0.5588
14977TIP3   OH266421   6.350   0.384  15.130 -0.6131  0.0903  0.3777
14977TIP3    H166422   6.363   0.462  15.075 -0.7215 -0.7937 -0.9258
14977TIP3    H266423   6.257   0.363  15.120 -0.0854 -1.6256 -1.2427
14978TIP3   OH266424   0.505   6.182  10.419 -0.1439  0.5687  0.2379
14978TIP3    H166425   0.510   6.270  10.383  1.5955  0.0209 -0.9174
14978TIP3    H266426   0.534   6.125  10.348 -0.6340 -0.8951  1.1805
14979TIP3   OH266427   6.481   0.076  13.977  0.3605  0.0312 -0.1676
14979TIP3    H166428   6.520   0.095  13.891  2.9050 -0.0519  0.9335
14979TIP3    H266429   6.434  -0.006  13.964  0.3522  0.2393 -1.5937
14980TIP3   OH266430   0.698   6.652  12.526  0.3867 -0.0049  0.0368
14980TIP3    H166431   0.707   6.725  12.464 -3.2757 -0.0159 -0.6436
14980TIP3    H266432   0.692   6.574  12.471 -0.1030 -0.3156  0.5203
14981TIP3   OH266433   4.322   3.215   5.031  0.2912 -0.7674 -0.3412
14981TIP3    H166434   4.322   3.154   5.106 -1.2920  0.3691  0.6203
14981TIP3    H266435   4.234   3.252   5.031  0.5899 -0.0419 -2.2093
14982TIP3   OH266436   2.870   4.833  13.450  0.3846 -0.3117 -0.2164
14982TIP3    H166437   2.795   4.878  13.410  1.1934  1.7076  0.4738
14982TIP3    H266438   2.887   4.882  13.530  2.2368 -0.9441 -0.1969
14983TIP3   OH266439   0.172   2.729   2.367  0.0834  0.4163 -0.0145
14983TIP3    H166440   0.136   2.646   2.334  0.0756  0.4892 -0.1872
14983TIP3    H266441   0.186   2.782   2.289  1.3760  0.0651 -0.0265
14984TIP3   OH266442   5.373   6.615   3.168 -0.0529 -0.0944  0.7371
14984TIP3    H166443   5.455   6.647   3.205  0.7231 -0.5884 -0.5060
14984TIP3    H266444   5.378   6.520   3.178 -1.1681 -0.0332  2.0363
14985TIP3   OH266445   0.935   1.234  14.476  0.0005  0.3849 -0.6002
14985TIP3    H166446   1.001   1.285  14.522  1.0824 -0.4220 -1.2050
14985TIP3    H266447   0.881   1.195  14.545  1.6565 -0.8924  0.0230
14986TIP3   OH266448   4.950   2.883  15.081  0.6189  0.0054 -0.1522
14986TIP3    H166449   5.007   2.829  15.135  1.9281 -0.7448 -2.2148
14986TIP3    H266450   4.862   2.864  15.113  1.4456  0.4822  2.4702
14987TIP3   OH266451   1.324   4.515  17.043 -0.5413 -0.0284 -0.7816
14987TIP3    H166452   1.266   4.575  17.090  1.0345  0.3751  0.6796
14987TIP3    H266453   1.301   4.527  16.951 -1.5917  1.3880 -0.3596
14988TIP3   OH266454   2.823   1.670   2.489 -0.5119  0.2474 -0.1600
14988TIP3    H166455   2.903   1.723   2.497 -0.8618  0.7662 -0.0563
14988TIP3    H266456   2.834   1.600   2.554 -1.2299  1.7350  1.6344
14989TIP3   OH266457   5.658   1.172  10.498  0.1018 -0.4215  0.2929
14989TIP3    H166458   5.733   1.144  10.446 -0.1585 -3.7815  1.6507
14989TIP3    H266459   5.696   1.227  10.567  0.9459  0.3774 -0.7861
14990TIP3   OH266460   4.149   2.169   1.783  0.3309  0.0915  0.4698
14990TIP3    H166461   4.216   2.124   1.835  0.8747 -0.2095 -0.4876
14990TIP3    H266462   4.193   2.247   1.749  0.7120 -0.9610 -1.5373
14991TIP3   OH266463   1.771   5.420  13.247 -0.5448 -0.0138 -0.3291
14991TIP3    H166464   1.768   5.447  13.155 -1.5014  1.0515 -0.0042
14991TIP3    H266465   1.681   5.432  13.278  0.3072  2.1176  1.4308
14992TIP3   OH266466   0.482   1.285  13.248  0.1007 -0.3836 -0.8143
14992TIP3    H166467   0.416   1.336  13.201 -1.5984 -1.2978  0.4916
14992TIP3    H266468   0.431   1.233  13.311  2.0716 -1.1730  0.1736
14993TIP3   OH266469   5.492   1.723   5.044 -0.7360  0.3439  0.6572
14993TIP3    H166470   5.535   1.687   5.122 -1.0675  0.7305  1.0255
14993TIP3    H266471   5.556   1.711   4.974 -0.2156  0.4734  1.1015
14994TIP3   OH266472   1.147   5.145   4.658  0.1946 -0.0003  0.7661
14994TIP3    H166473   1.082   5.107   4.599  1.9866 -1.2357 -0.4505
14994TIP3    H266474   1.104   5.223   4.693 -1.2241  0.2990 -1.5360
14995TIP3   OH266475   0.699   0.674   5.375 -0.2925  0.3105  0.3434
14995TIP3    H166476   0.752   0.753   5.360  1.1108 -1.1082 -2.7027
14995TIP3    H266477   0.762   0.606   5.398 -1.1113 -0.6747 -0.2445
14996TIP3   OH266478   0.612   1.989  10.645  0.0862  0.7647  0.2898
14996TIP3    H166479   0.670   2.062  10.666  1.8460 -0.6629  0.5000
14996TIP3    H266480   0.671   1.915  10.629 -1.6450 -0.5356 -0.2523
14997TIP3   OH266481   2.719   0.518  16.763 -0.0100 -0.5889  0.2072
14997TIP3    H166482   2.661   0.583  16.802 -0.1606 -1.7065  1.9303
14997TIP3    H266483   2.667   0.476  16.695  0.6476  2.2176 -2.1130
14998TIP3   OH266484   4.523   1.298   6.448 -0.7319 -0.4948 -0.1106
14998TIP3    H166485   4.524   1.290   6.543  0.4324  0.7794 -0.0084
14998TIP3    H266486   4.434   1.272   6.423 -0.5003 -2.6487  1.1421
14999TIP3   OH266487   4.636   1.574  12.723  0.1610  0.0180  0.2873
14999TIP3    H166488   4.566   1.619  12.675 -1.8020 -1.0221  2.1335
14999TIP3    H266489   4.639   1.487  12.684  1.0916  0.3511 -0.4120
15000TIP3   OH266490   2.628   5.910  17.257 -0.0295  0.3839  0.2198
15000TIP3    H166491   2.554   5.910  17.318  0.3127 -1.2716  0.6889
15000TIP3    H266492   2.699   5.950  17.307  0.4481 -1.6100  1.2331
15001TIP3   OH266493   0.913   1.026  12.847  0.1624 -0.0136 -0.7092
15001TIP3    H166494   0.872   0.990  12.768  0.6177  0.0798 -0.9966
15001TIP3    H266495   0.894   1.120  12.842 -0.0522 -0.0495 -0.5590
15002TIP3   OH266496   4.022   2.758  10.415 -0.5179  0.2127 -0.1776
15002TIP3    H166497   4.065   2.844  10.415 -0.0912  0.0136 -1.2589
15002TIP3    H266498   3.947   2.769  10.472 -0.2466  1.2037  0.0031
15003TIP3   OH266499   5.743   5.836   0.398  0.0402 -1.0969  0.1282
15003TIP3    H166500   5.823   5.791   0.426  0.2525 -0.7030  0.1464
15003TIP3    H266501   5.773   5.919   0.362 -0.1960 -1.6791 -1.4668
15004TIP3   OH266502   0.047   5.733  16.141  0.4946 -0.0179  0.2131
15004TIP3    H166503   0.132   5.715  16.100 -0.3212 -0.2628 -1.3722
15004TIP3    H266504   0.059   5.818  16.184  0.7233  1.2705 -2.3097
15005TIP3   OH266505   0.354   2.442  15.157 -0.0442  0.0341  0.3522
15005TIP3    H166506   0.415   2.482  15.219 -0.0840  0.8582 -0.1465
15005TIP3    H266507   0.276   2.498  15.160  0.0895  0.2883 -0.7142
15006TIP3   OH266508   5.543   2.066  14.297  0.2309  0.2548 -0.0239
15006TIP3    H166509   5.615   2.031  14.351  0.3655 -1.0881 -1.0659
15006TIP3    H266510   5.471   2.005  14.311 -0.2254  0.7574 -0.1771
15007TIP3   OH266511   4.027   0.427   4.555 -0.5350  0.1555  0.1625
15007TIP3    H166512   4.042   0.332   4.559  2.1409  0.5283  0.0653
15007TIP3    H266513   4.075   0.462   4.630 -2.6588  1.3330  1.0004
15008TIP3   OH266514   4.186   1.603   4.293  0.5860 -0.5159  0.9045
15008TIP3    H166515   4.196   1.510   4.311  1.8448 -0.7505 -0.8503
15008TIP3    H266516   4.093   1.621   4.307  0.4112 -1.9345  1.6272
15009TIP3   OH266517   3.841   2.246  14.406  0.5897 -0.5017 -0.7493
15009TIP3    H166518   3.888   2.165  14.428  0.2375 -0.4153  0.3628
15009TIP3    H266519   3.823   2.238  14.312  3.0344 -0.4161 -1.2653
15010TIP3   OH266520   0.958   3.254   4.506  0.8936 -0.1746 -0.2767
15010TIP3    H166521   0.881   3.309   4.495  0.1155 -1.3920 -1.0294
15010TIP3    H266522   1.013   3.302   4.568  0.7326  1.9793 -1.7382
15011TIP3   OH266523   6.408   4.194   2.804 -0.5827  0.0083 -0.7272
15011TIP3    H166524   6.501   4.213   2.814 -0.7140 -0.2319  1.0979
15011TIP3    H266525   6.364   4.266   2.850 -1.2715 -0.3576 -0.8142
15012TIP3   OH266526   5.793   1.376  13.862  0.3695  0.0543 -0.3005
15012TIP3    H166527   5.800   1.309  13.794  1.3989 -1.2913  1.0782
15012TIP3    H266528   5.757   1.329  13.938 -1.0723  1.6007 -0.0067
15013TIP3   OH266529   6.659   6.494  15.895 -0.3280 -0.6601  0.3975
15013TIP3    H166530   6.604   6.552  15.842 -0.7165 -1.3041  0.0956
15013TIP3    H266531   6.653   6.409  15.851  0.4838 -0.8562  0.6660
15014TIP3   OH266532   2.996   4.762  15.217  0.9033 -0.0624  0.8502
15014TIP3    H166533   3.049   4.791  15.291  2.2070  0.3719 -0.2273
15014TIP3    H266534   2.910   4.802  15.232  1.4073  0.7382  1.6725
15015TIP3   OH266535   3.171   0.479  10.616  0.7330  0.4941 -0.2219
15015TIP3    H166536   3.136   0.568  10.615 -2.1778 -0.5940 -2.7302
15015TIP3    H266537   3.095   0.423  10.606  2.6711 -2.2299 -0.2451
15016TIP3   OH266538   3.964   5.225  12.192  0.2179 -0.0608 -0.3354
15016TIP3    H166539   3.874   5.256  12.197  0.2313  0.2511 -1.8213
15016TIP3    H266540   4.010   5.272  12.262 -0.4360  0.9496 -0.5828
15017TIP3   OH266541   0.819   3.666  15.311 -0.3003 -0.4184  0.0013
15017TIP3    H166542   0.912   3.689  15.315 -0.4635  0.1098  1.0085
15017TIP3    H266543   0.790   3.669  15.402 -1.4809  0.1818 -0.3827
15018TIP3   OH266544   2.467   2.678   6.444 -0.2032  0.5813  0.3307
15018TIP3    H166545   2.424   2.757   6.474 -0.8542  1.0751 -1.7971
15018TIP3    H266546   2.401   2.633   6.390  0.2336 -1.2839  1.2999
15019TIP3   OH266547   2.132   2.609  16.487  0.2396 -0.0285 -0.1327
15019TIP3    H166548   2.208   2.578  16.437  0.6783  0.6732  0.0964
15019TIP3    H266549   2.136   2.704  16.479  0.8418  0.1534  2.0063
15020TIP3   OH266550   6.430   0.775  14.646 -0.5389 -0.1256 -0.0470
15020TIP3    H166551   6.471   0.852  14.686  1.2883 -1.5623  0.9454
15020TIP3    H266552   6.448   0.704  14.707 -3.8969 -1.0152  0.0238
15021TIP3   OH266553   0.635   0.466  12.417  0.0831 -0.4408 -0.2948
15021TIP3    H166554   0.717   0.462  12.468  0.9832  1.1816 -1.5746
15021TIP3    H266555   0.570   0.499  12.479  0.1700 -2.5776  0.9811
15022TIP3   OH266556   4.480   5.829  16.448  0.1928  0.0603 -0.3970
15022TIP3    H166557   4.524   5.906  16.482 -2.3881  1.4828 -0.1458
15022TIP3    H266558   4.461   5.850  16.357  0.5844 -0.8110 -0.6935
15023TIP3   OH266559   5.798   4.607  10.960  0.1719  0.5202 -0.1460
15023TIP3    H166560   5.874   4.575  11.009  1.3133  0.5383 -1.8951
15023TIP3    H266561   5.734   4.536  10.967  0.1881  0.6574  1.6430
15024TIP3   OH266562   3.847   3.523   3.799 -0.0457 -0.3029 -0.1207
15024TIP3    H166563   3.812   3.487   3.717 -2.0141  0.5996  0.3108
15024TIP3    H266564   3.876   3.447   3.849  1.6884 -0.8369 -1.8605
15025TIP3   OH266565   2.176   3.399   1.161 -0.0349  0.5326 -0.0521
15025TIP3    H166566   2.186   3.339   1.087  0.0557  1.9317 -1.2016
15025TIP3    H266567   2.237   3.367   1.227  0.5629 -0.1961 -0.9448
15026TIP3   OH266568   5.428   6.422  11.218 -0.2069  0.2029  0.1007
15026TIP3    H166569   5.405   6.446  11.308  1.2868  0.1563  0.5101
15026TIP3    H266570   5.462   6.503  11.180  0.5400 -0.1381  0.0378
15027TIP3   OH266571   2.121   4.401   0.628  0.4489  0.4833 -0.5329
15027TIP3    H166572   2.157   4.473   0.679  0.8648  0.6510 -1.0609
15027TIP3    H266573   2.198   4.354   0.595  0.1822  0.2997 -0.9004
15028TIP3   OH266574   1.658   6.624  15.956 -0.1521  0.2030 -0.2736
15028TIP3    H166575   1.633   6.692  15.893  0.5090 -2.0528 -3.0970
15028TIP3    H266576   1.661   6.544  15.904  3.4169 -1.2442  2.0062
15029TIP3   OH266577   2.309   0.289  15.909  0.0863 -0.6125 -0.0392
15029TIP3    H166578   2.330   0.306  15.818 -1.0096 -2.0238 -0.5751
15029TIP3    H266579   2.318   0.194  15.919 -0.9036 -0.6155  1.0233
15030TIP3   OH266580   3.126   4.389  10.649  0.0811  0.2745  0.0607
15030TIP3    H166581   3.190   4.317  10.644  0.4957  0.6474 -0.0155
15030TIP3    H266582   3.176   4.463  10.683  0.5507  1.5147 -3.1199
15031TIP3   OH266583   3.826   0.076  11.090  0.2633  0.0662  0.1386
15031TIP3    H166584   3.834  -0.009  11.047  0.1004  1.1583 -2.1107
15031TIP3    H266585   3.755   0.063  11.154 -0.2579 -1.2820 -0.6761
15032TIP3   OH266586   0.894   2.882   0.528  0.1943  0.4393  0.1271
15032TIP3    H166587   0.973   2.902   0.477  0.0932  0.2134 -0.1207
15032TIP3    H266588   0.863   2.967   0.559  1.8355  0.3327  2.1747
15033TIP3   OH266589   1.011   5.904  12.144 -0.0039 -0.2576  0.5708
15033TIP3    H166590   0.920   5.918  12.168  0.4143 -0.0723  2.0625
15033TIP3    H266591   1.053   5.990  12.156  0.9833 -1.0034  2.6814
15034TIP3   OH266592   4.699   5.078   0.559  0.1258 -0.5921 -0.5021
15034TIP3    H166593   4.674   5.150   0.500 -0.4558 -0.4676 -0.1149
15034TIP3    H266594   4.792   5.094   0.578 -0.3412  0.8824  0.6940
15035TIP3   OH266595   5.900   3.589   0.295 -0.0607 -0.1228 -0.1170
15035TIP3    H166596   5.952   3.608   0.217  2.2182 -1.9363  0.9055
15035TIP3    H266597   5.929   3.653   0.360 -0.4541  0.0454 -0.1012
15036TIP3   OH266598   4.108   2.009  16.734 -0.2440  0.3580  0.0607
15036TIP3    H166599   4.197   2.043  16.728 -0.8853  1.7463 -2.1928
15036TIP3    H266600   4.061   2.073  16.789 -1.1302  2.5898 -3.1335
15037TIP3   OH266601   5.434   0.284  10.579  0.4829  0.9637  0.2213
15037TIP3    H166602   5.440   0.379  10.583  0.6598  0.9674 -0.1237
15037TIP3    H266603   5.518   0.256  10.543  1.4749  0.4907  2.8367
15038TIP3   OH266604   0.606   1.911  13.501 -0.4288 -0.4609 -0.3668
15038TIP3    H166605   0.647   1.912  13.588 -0.4552 -0.3867 -0.3547
15038TIP3    H266606   0.594   2.003  13.479 -0.4983 -0.4805 -0.4134
15039TIP3   OH266607   3.755   3.601  14.467  0.0675  0.8909 -0.0553
15039TIP3    H166608   3.751   3.572  14.558 -1.4383 -2.1806 -1.0532
15039TIP3    H266609   3.677   3.565  14.426  1.1660  1.5007 -2.7986
15040TIP3   OH266610   1.848   4.084  13.977 -0.1442 -0.3006 -0.1600
15040TIP3    H166611   1.826   4.103  14.068 -0.4505 -1.6756  0.0579
15040TIP3    H266612   1.944   4.085  13.974 -0.1172 -1.4012  0.4218
15041TIP3   OH266613   2.750   1.575  11.955  0.2156 -0.0381  0.2606
15041TIP3    H166614   2.685   1.607  12.018 -0.8208  0.0321 -0.8337
15041TIP3    H266615   2.797   1.506  12.002  0.9054  1.4811  1.8467
15042TIP3   OH266616   6.115   3.495  13.893 -0.6111  0.3965 -0.1986
15042TIP3    H166617   6.050   3.559  13.863 -0.7064  0.4084  0.0345
15042TIP3    H266618   6.078   3.458  13.973  0.4776  1.7177  0.9551
15043TIP3   OH266619   5.597   1.028  13.563 -0.4627  0.5364 -0.1969
15043TIP3    H166620   5.563   1.037  13.473 -0.4011 -0.0566 -0.2829
15043TIP3    H266621   5.519   1.030  13.618 -0.6834 -1.1791 -0.4216
15044TIP3   OH266622   6.676   6.173  14.809 -0.2581  0.1339  0.0300
15044TIP3    H166623   6.672   6.201  14.717  0.6121  2.3704  0.6606
15044TIP3    H266624   6.769   6.171  14.830 -0.5315  1.4714  1.4104
15045TIP3   OH266625   1.154   5.426  15.793  0.3071 -0.3176  0.0625
15045TIP3    H166626   1.075   5.411  15.742 -0.4913 -0.1381  1.2471
15045TIP3    H266627   1.199   5.341  15.794  0.2364 -0.3690 -0.7653
15046TIP3   OH266628   6.136   3.068   2.932 -0.4101 -0.0053  0.2825
15046TIP3    H166629   6.103   3.134   2.993  0.5484  1.7840 -1.0569
15046TIP3    H266630   6.220   3.104   2.902  0.8456 -2.5655  0.6448
15047TIP3   OH266631   4.621   4.896  17.132  0.5295 -0.3896 -0.2562
15047TIP3    H166632   4.694   4.841  17.105  2.5952  1.9492  0.4037
15047TIP3    H266633   4.607   4.956  17.058 -1.2944 -1.3320 -0.7152
15048TIP3   OH266634   1.097   1.802  14.308  0.4200  0.0835  0.6967
15048TIP3    H166635   1.161   1.871  14.326 -2.2862  2.7299  0.6310
15048TIP3    H266636   1.127   1.762  14.226  0.8264  2.7257 -0.4823
15049TIP3   OH266637   5.661   0.252   4.219  0.0049 -0.2990  0.3308
15049TIP3    H166638   5.707   0.334   4.234  0.4651 -0.6673  0.9533
15049TIP3    H266639   5.696   0.219   4.136  0.7814 -0.5178  0.7375
15050TIP3   OH266640   0.543   5.017   1.246  0.0862  0.1094  0.1867
15050TIP3    H166641   0.515   5.104   1.274 -1.3426 -0.4740  0.6050
15050TIP3    H266642   0.468   4.961   1.265  0.7283 -1.0772 -0.7766
15051TIP3   OH266643   6.392   0.715  17.076  0.1643 -0.7951 -0.0664
15051TIP3    H166644   6.299   0.695  17.082  0.2436 -1.0646  0.2846
15051TIP3    H266645   6.407   0.781  17.144  0.4665 -1.6420  0.6922
15052TIP3   OH266646   4.668   0.933   1.158  0.3356  0.6181 -0.1205
15052TIP3    H166647   4.707   0.896   1.237 -3.9967  0.4163  2.1089
15052TIP3    H266648   4.648   0.857   1.103  0.9119  0.5263 -0.2017
15053TIP3   OH266649   6.686   6.236  11.805  0.6464 -0.1631  0.2060
15053TIP3    H166650   6.706   6.267  11.717 -2.0755  0.6426 -0.1739
15053TIP3    H266651   6.645   6.151  11.792  1.0811 -0.4662  0.7731
15054TIP3   OH266652   5.819   0.383  16.839 -0.2677  0.0511  0.1423
15054TIP3    H166653   5.783   0.389  16.927 -1.3928 -1.0797 -0.2186
15054TIP3    H266654   5.772   0.309  16.799 -0.0221  0.7532 -1.5061
15055TIP3   OH266655   1.956   5.061  15.481  0.3084  0.0350 -0.1321
15055TIP3    H166656   1.942   5.027  15.393  0.5728  0.0564 -0.1833
15055TIP3    H266657   1.973   4.983  15.534 -0.3331 -0.0186 -0.0066
15056TIP3   OH266658   1.142   2.346   3.511 -0.0083  0.0192  0.3227
15056TIP3    H166659   1.208   2.412   3.534 -0.9447  0.8186  0.7257
15056TIP3    H266660   1.188   2.263   3.522  0.5207  0.5083  2.0575
15057TIP3   OH266661   1.281   3.951  17.288 -0.3398  0.3042  0.0579
15057TIP3    H166662   1.354   3.937  17.227 -0.6937  1.7878 -0.7423
15057TIP3    H266663   1.205   3.913  17.244 -0.6968  1.8463 -0.6897
15058TIP3   OH266664   1.231   1.487   2.469 -0.0361 -0.4448  0.4011
15058TIP3    H166665   1.167   1.434   2.516 -0.6697 -0.4163 -0.4162
15058TIP3    H266666   1.178   1.545   2.413  0.7113 -1.2866 -1.2267
15059TIP3   OH266667   6.715   2.036   0.951 -0.1671  0.1796  0.1835
15059TIP3    H166668   6.731   1.951   0.992  1.9412 -0.9954 -2.9081
15059TIP3    H266669   6.693   2.016   0.860 -1.4406  2.8862 -0.1790
15060TIP3   OH266670   0.726   6.356  10.715 -0.3621  0.5910  0.1701
15060TIP3    H166671   0.714   6.444  10.679  2.0503  0.3529 -1.3086
15060TIP3    H266672   0.763   6.371  10.802 -0.3874  1.0404  0.1045
15061TIP3   OH266673   1.260   6.113  14.329  0.5845 -0.4648 -0.1885
15061TIP3    H166674   1.304   6.080  14.251  1.2456 -0.6250  0.2499
15061TIP3    H266675   1.189   6.051  14.345  0.5247 -0.5002 -0.5886
15062TIP3   OH266676   0.310   1.183  17.177 -0.0977  0.2968 -0.6232
15062TIP3    H166677   0.381   1.143  17.127 -0.3474  0.0811 -0.8013
15062TIP3    H266678   0.236   1.124  17.167  0.2352 -0.4678  1.1213
15063TIP3   OH266679   6.467   1.309  15.255 -0.3289 -0.1969 -0.0535
15063TIP3    H166680   6.378   1.344  15.260 -0.2695  0.0933 -0.9413
15063TIP3    H266681   6.461   1.237  15.192  0.6083  1.5766 -2.2319
15064TIP3   OH266682   0.714   3.359   2.404  0.8031  0.5715  0.7244
15064TIP3    H166683   0.638   3.413   2.386 -0.0403 -0.9942 -0.4999
15064TIP3    H266684   0.785   3.422   2.418  0.3046  2.0146 -2.6844
15065TIP3   OH266685   1.258   6.551  12.196 -0.4219 -0.2123 -0.3235
15065TIP3    H166686   1.254   6.461  12.165  0.5949 -0.4907  0.3157
15065TIP3    H266687   1.212   6.602  12.129 -2.9550 -1.4710  0.4151
15066TIP3   OH266688   6.725   4.184   1.738 -0.6187 -0.6287 -0.0376
15066TIP3    H166689   6.652   4.193   1.799  0.2345  0.8100  0.7947
15066TIP3    H266690   6.794   4.141   1.789 -0.3797 -0.6819 -0.4012
15067TIP3   OH266691   6.743   3.263   2.470 -0.2462 -0.2504 -0.2889
15067TIP3    H166692   6.785   3.347   2.451 -2.7133  0.7925 -1.2848
15067TIP3    H266693   6.781   3.235   2.553  1.4161  1.3034 -0.5037
15068TIP3   OH266694   3.784   3.699  16.178  0.5666 -0.3526  0.0949
15068TIP3    H166695   3.771   3.792  16.199 -2.0963 -0.7271  0.1919
15068TIP3    H266696   3.876   3.694  16.151  1.0769  2.0952  1.2139
15069TIP3   OH266697   4.949   5.785  13.456  0.0584 -0.9118  0.0270
15069TIP3    H166698   4.862   5.747  13.447 -0.8143  0.6878  1.4277
15069TIP3    H266699   4.967   5.782  13.550  0.2615  1.4425  0.0984
15070TIP3   OH266700   3.545   2.845   4.920 -0.0211 -0.2651 -0.3001
15070TIP3    H166701   3.601   2.908   4.966  0.3785 -1.2224  0.5744
15070TIP3    H266702   3.589   2.831   4.837  1.3280 -1.3488  0.5643
15071TIP3   OH266703   5.102   0.666  15.054 -0.2212 -0.1394 -0.0620
15071TIP3    H166704   5.102   0.731  15.124  0.9521  0.9806 -1.0790
15071TIP3    H266705   5.152   0.592  15.089 -1.0346 -0.2559  0.8716
15072TIP3   OH266706   1.978   3.329   3.308  0.0464 -0.2102  0.4826
15072TIP3    H166707   2.010   3.276   3.235  0.3756  0.9807 -0.2633
15072TIP3    H266708   1.995   3.276   3.385 -0.0406 -1.3751 -0.2840
15073TIP3   OH266709   5.532   6.519   3.481 -0.1848  0.7832 -0.0688
15073TIP3    H166710   5.570   6.452   3.425 -1.8908  0.4877 -0.9262
15073TIP3    H266711   5.551   6.602   3.436  1.0059  0.7807  0.4403
15074TIP3   OH266712   3.519   2.014  13.130 -0.0147 -0.0579  0.3777
15074TIP3    H166713   3.608   1.996  13.102 -0.0458 -0.3888  0.4958
15074TIP3    H266714   3.466   1.950  13.083 -0.3181  0.8965 -0.6064
15075TIP3   OH266715   1.786   6.275  14.658 -0.0621  0.3477  0.3017
15075TIP3    H166716   1.843   6.215  14.610 -0.3942 -1.0810  1.6423
15075TIP3    H266717   1.812   6.266  14.749  0.5114  2.9833  0.4503
15076TIP3   OH266718   6.801   2.781  16.967  0.2827  0.4384  0.0124
15076TIP3    H166719   6.872   2.815  17.022  0.8952 -1.7717  0.6563
15076TIP3    H266720   6.840   2.776  16.879  0.6306  0.1409  0.1778
15077TIP3   OH266721   2.211   6.722   2.812  0.1096  0.2522  0.1221
15077TIP3    H166722   2.260   6.733   2.730 -2.2315  0.6467 -1.2528
15077TIP3    H266723   2.124   6.695   2.784 -1.1492  1.8112  2.4328
15078TIP3   OH266724   1.273   5.680  15.592 -0.3398  0.2669  0.3263
15078TIP3    H166725   1.242   5.628  15.667 -0.0276 -0.2704  0.0819
15078TIP3    H266726   1.241   5.769  15.610 -0.1696  0.1636  1.1531
15079TIP3   OH266727   0.022   2.210   0.330 -0.4352  0.0924 -0.1239
15079TIP3    H166728  -0.053   2.252   0.372  0.1618  0.8338  0.2167
15079TIP3    H266729   0.024   2.247   0.242  0.6542  1.5159  0.4805
15080TIP3   OH266730   6.500   4.123   1.243  0.6431  0.7137  0.4008
15080TIP3    H166731   6.543   4.042   1.215  3.2871  1.5326  1.8487
15080TIP3    H266732   6.572   4.187   1.250 -1.0959  2.6506  1.1580
15081TIP3   OH266733   5.726   5.824  12.218 -0.0894  0.5377  0.6441
15081TIP3    H166734   5.784   5.864  12.153 -1.0130 -0.8333 -1.0505
15081TIP3    H266735   5.785   5.779  12.278  0.8657  3.0311  1.6185
15082TIP3   OH266736   5.548   6.154  13.425  0.3218 -0.4208  0.2011
15082TIP3    H166737   5.520   6.137  13.335  1.5972 -1.8112  0.0332
15082TIP3    H266738   5.481   6.112  13.480 -1.1224  1.5059 -0.0567
15083TIP3   OH266739   4.759   2.418   0.135  0.3471 -0.5173 -0.3731
15083TIP3    H166740   4.843   2.385   0.104 -0.1282 -0.8895 -1.2943
15083TIP3    H266741   4.703   2.341   0.142  0.4000 -0.4261  1.3239
15084TIP3   OH266742   0.555   3.405   5.589 -0.3746  0.0366 -0.2884
15084TIP3    H166743   0.594   3.324   5.557 -1.1415 -0.1828 -0.6746
15084TIP3    H266744   0.537   3.457   5.510  2.4473  1.6875  0.0782
15085TIP3   OH266745   3.451   6.704  15.355 -0.6078 -0.2424  0.0009
15085TIP3    H166746   3.382   6.649  15.390  0.4212 -1.3404  0.3391
15085TIP3    H266747   3.463   6.673  15.265  0.4625 -1.0899  0.4146
15086TIP3   OH266748   5.959   3.770   6.078 -0.6372  0.3131 -0.6210
15086TIP3    H166749   6.028   3.786   6.012 -0.0436  1.4647  0.2544
15086TIP3    H266750   5.897   3.842   6.065 -0.3460  0.7407  0.2779
15087TIP3   OH266751   1.635   5.775  14.049  0.2738 -0.0086  0.2709
15087TIP3    H166752   1.706   5.813  13.998  0.1856  1.5536  1.3070
15087TIP3    H266753   1.631   5.827  14.129 -2.5841  0.4750 -0.1268
15088TIP3   OH266754   2.018   2.630  14.299  0.7857 -0.1178  0.4015
15088TIP3    H166755   2.072   2.616  14.222  0.1479  0.1122 -0.0911
15088TIP3    H266756   1.993   2.723  14.295  0.0513 -0.3118  0.4213
15089TIP3   OH266757   4.798   1.232  16.085  0.1343  0.3178  0.6480
15089TIP3    H166758   4.731   1.212  16.151  0.1346  0.8320  0.8033
15089TIP3    H266759   4.754   1.289  16.023  0.4918  0.8281  0.8663
15090TIP3   OH266760   0.747   1.894  12.062  0.5506 -0.3140 -0.4763
15090TIP3    H166761   0.705   1.865  11.981 -1.9957 -1.1927  1.0859
15090TIP3    H266762   0.812   1.827  12.081 -0.1593 -1.1169 -0.8162
15091TIP3   OH266763   3.493   6.290   0.314 -0.0768  0.6285  0.4763
15091TIP3    H166764   3.536   6.252   0.237 -0.1234  0.9494  0.2881
15091TIP3    H266765   3.425   6.346   0.277  0.7607  1.8184  0.7117
15092TIP3   OH266766   6.416   2.054   3.332  0.5085 -0.4276  0.0909
15092TIP3    H166767   6.352   2.100   3.388 -1.0305 -2.0729 -0.2492
15092TIP3    H266768   6.395   2.083   3.243  1.5459  0.5365  0.1516
15093TIP3   OH266769   6.733   3.409  12.016  0.0431 -0.0041  0.3371
15093TIP3    H166770   6.762   3.455  11.937  1.3645  1.3388  1.5745
15093TIP3    H266771   6.732   3.317  11.990  2.2519  0.2281 -0.7246
15094TIP3   OH266772   3.027   2.554   5.555  0.0431  0.1221  0.1807
15094TIP3    H166773   3.052   2.523   5.642 -0.6945  1.4441  0.8773
15094TIP3    H266774   3.011   2.474   5.505  1.5769 -0.6758  0.9207
15095TIP3   OH266775   0.800   0.284  14.456  0.4155 -0.0671  0.2159
15095TIP3    H166776   0.850   0.304  14.536 -0.1045  1.6325  0.1336
15095TIP3    H266777   0.708   0.293  14.483  0.2135 -0.7551 -0.2490
15096TIP3   OH266778   2.470   1.287  15.602 -0.2751  0.4456 -0.2438
15096TIP3    H166779   2.550   1.338  15.588  0.3585  0.0143  1.7021
15096TIP3    H266780   2.448   1.254  15.514  2.4407 -0.5081 -0.6396
15097TIP3   OH266781   0.929   3.198  11.550  0.5916 -0.7346 -0.0726
15097TIP3    H166782   0.889   3.172  11.467  0.9368 -0.4953 -0.3150
15097TIP3    H266783   0.978   3.278  11.529 -0.2620 -0.0264  0.6137
15098TIP3   OH266784   3.868   4.813  10.391  0.1794 -0.0861 -0.5599
15098TIP3    H166785   3.938   4.758  10.355  0.3735 -0.4190  0.3234
15098TIP3    H266786   3.822   4.847  10.313 -1.1412 -2.9838 -1.0985
15099TIP3   OH266787   2.049   1.234  12.531 -0.0710  0.4963  0.1074
15099TIP3    H166788   2.003   1.240  12.614  0.9659  0.3516  0.6989
15099TIP3    H266789   1.982   1.251  12.465 -1.3214 -1.3995  0.8577
15100TIP3   OH266790   4.828   2.363  15.838  0.0213  0.5037  0.2215
15100TIP3    H166791   4.835   2.329  15.928  2.4728 -0.8105 -0.4424
15100TIP3    H266792   4.782   2.294  15.790 -0.4694  0.8151  0.2329
15101TIP3   OH266793   4.624   5.536  11.531  0.1374  0.0376 -0.2282
15101TIP3    H166794   4.533   5.507  11.537 -0.0174  1.0857  3.0927
15101TIP3    H266795   4.673   5.474  11.584  1.5083 -0.8196 -2.3901
15102TIP3   OH266796   3.673   0.169   2.191 -0.2841  0.4561  0.9360
15102TIP3    H166797   3.579   0.182   2.179 -0.3683 -0.4492  0.5647
15102TIP3    H266798   3.708   0.156   2.103  0.1071  0.2895  1.1103
15103TIP3   OH266799   4.027   5.909  14.367 -0.2766 -0.1000  0.0284
15103TIP3    H166800   4.051   5.997  14.396 -1.3908  0.2174 -0.0128
15103TIP3    H266801   4.039   5.854  14.444  1.1483 -0.0557 -0.1459
15104TIP3   OH266802   1.121   2.965   3.776  0.0353  0.3894 -0.9297
15104TIP3    H166803   1.135   2.871   3.784 -0.9339  0.1830 -1.4822
15104TIP3    H266804   1.145   2.986   3.686  0.3815  0.6979 -0.7676
15105TIP3   OH266805   3.936   6.102   5.867  0.2763 -0.3775 -0.4780
15105TIP3    H166806   3.928   6.067   5.956  1.2805 -0.2638 -0.3407
15105TIP3    H266807   4.001   6.171   5.874  0.7226 -0.6906 -1.3955
15106TIP3   OH266808   1.689   0.285  13.086  0.1872 -0.0808  0.6989
15106TIP3    H166809   1.696   0.195  13.118 -1.8192 -0.6447 -0.3363
15106TIP3    H266810   1.629   0.279  13.012 -0.3483  2.1869  0.9109
15107TIP3   OH266811   2.089   6.504   2.321 -0.5370  0.1481  0.2534
15107TIP3    H166812   2.060   6.435   2.261  0.9799 -0.4764  0.2209
15107TIP3    H266813   2.156   6.462   2.375 -1.6023  0.8059  2.1412
15108TIP3   OH266814   5.519   6.097  14.561 -0.5272 -0.1797 -0.3836
15108TIP3    H166815   5.446   6.048  14.599  0.4660 -2.8104 -1.7887
15108TIP3    H266816   5.590   6.087  14.625 -0.9590  1.2680  0.3488
15109TIP3   OH266817   2.842   5.022  16.327  0.3334  0.7775 -0.6766
15109TIP3    H166818   2.932   5.038  16.354  0.5259  0.6603 -1.2528
15109TIP3    H266819   2.838   4.927  16.312 -0.3704  0.4926  1.1231
15110TIP3   OH266820   4.840   2.320  16.104 -0.0487 -0.2745 -0.0189
15110TIP3    H166821   4.754   2.293  16.136 -0.4544  1.1391  0.1186
15110TIP3    H266822   4.871   2.384  16.168  1.9331 -2.1114  0.9169
15111TIP3   OH266823   5.617   2.377  13.318 -0.7468  0.3565 -0.3162
15111TIP3    H166824   5.570   2.438  13.261 -1.2465  1.0791  0.8578
15111TIP3    H266825   5.568   2.377  13.400 -0.2341 -0.9465  0.0033
15112TIP3   OH266826   0.929   2.318   3.870 -0.3233  0.2880 -0.5085
15112TIP3    H166827   0.867   2.276   3.811 -1.5161 -0.3187  1.1520
15112TIP3    H266828   0.914   2.412   3.858 -1.7001  0.1367  0.0291
15113TIP3   OH266829   3.246   2.237   0.622 -0.1933 -0.3646 -0.1554
15113TIP3    H166830   3.255   2.156   0.672  0.8172 -0.2866 -0.1953
15113TIP3    H266831   3.283   2.305   0.679 -0.7043  0.0166 -0.2679
15114TIP3   OH266832   1.228   0.922   3.590  0.1393  0.1707  0.4478
15114TIP3    H166833   1.248   0.893   3.501 -0.4604  0.6154  0.1674
15114TIP3    H266834   1.262   0.852   3.646  1.8215  0.5645 -0.0540
15115TIP3   OH266835   0.374   0.096  13.594 -0.2762  0.0079 -0.3128
15115TIP3    H166836   0.436   0.083  13.523 -1.1797  0.2145 -1.1412
15115TIP3    H266837   0.420   0.064  13.672  1.5435  1.7448 -0.6263
15116TIP3   OH266838   5.329   2.777  15.110  0.2048 -0.1646 -0.4785
15116TIP3    H166839   5.258   2.774  15.046 -0.1314 -0.9933 -0.0714
15116TIP3    H266840   5.321   2.695  15.158 -0.0275  0.7979  1.1551
15117TIP3   OH266841   6.575   3.330   3.098 -0.2556  0.0378  0.2460
15117TIP3    H166842   6.509   3.397   3.116  1.0584  0.8792  2.0840
15117TIP3    H266843   6.639   3.339   3.169  0.1595 -2.9093  0.3077
15118TIP3   OH266844   1.157   3.721  14.232  0.2288 -0.1736 -0.2295
15118TIP3    H166845   1.122   3.667  14.162  1.5726 -0.4680 -0.6863
15118TIP3    H266846   1.080   3.752  14.280 -0.6315 -0.9115 -1.1329
15119TIP3   OH266847   3.782   0.528   2.993 -0.5815  0.5924 -1.1919
15119TIP3    H166848   3.769   0.434   2.977 -0.1547  0.3197  0.0372
15119TIP3    H266849   3.867   0.534   3.036 -0.4182  1.5894 -1.6458
15120TIP3   OH266850   3.837   6.552  13.799 -0.2199 -0.2860 -0.1298
15120TIP3    H166851   3.929   6.568  13.776 -0.6145 -2.7956 -3.9567
15120TIP3    H266852   3.792   6.632  13.773  0.4933 -0.1924 -1.1433
15121TIP3   OH266853   6.788   1.131   4.612  0.7419 -0.3124 -0.4344
15121TIP3    H166854   6.883   1.133   4.597  1.2873  0.0255  2.5998
15121TIP3    H266855   6.780   1.112   4.706 -2.1982 -0.3072 -0.6544
15122TIP3   OH266856   4.976   3.563   2.127  0.0909 -0.1550 -0.2119
15122TIP3    H166857   5.043   3.580   2.061  1.2981 -1.7264  0.5724
15122TIP3    H266858   4.918   3.639   2.123  0.4693  0.0338 -2.6640
15123TIP3   OH266859   0.242   3.465  10.732  0.3400 -0.3062 -0.7880
15123TIP3    H166860   0.318   3.475  10.675  1.2939 -1.2436  0.2988
15123TIP3    H266861   0.248   3.539  10.792 -1.2289  1.2653 -2.4959
15124TIP3   OH266862   5.481   6.680  16.148 -0.5182 -0.1602 -0.3053
15124TIP3    H166863   5.569   6.719  16.156 -0.3289 -0.3940 -1.1989
15124TIP3    H266864   5.453   6.705  16.060 -1.9339  1.1164  0.4917
15125TIP3   OH266865   4.704   4.438   3.634  0.2845  0.0542 -0.0372
15125TIP3    H166866   4.755   4.357   3.634  1.4960  0.7924  0.0825
15125TIP3    H266867   4.738   4.487   3.559  1.7737  1.7811  1.6935
15126TIP3   OH266868   1.547   3.442  10.323  0.8927  0.5162 -0.1075
15126TIP3    H166869   1.519   3.364  10.276  0.4914  1.2545 -1.1035
15126TIP3    H266870   1.569   3.410  10.411  0.8926 -0.7364 -0.5511
15127TIP3   OH266871   2.660   2.781   4.911  0.1061  0.4173 -0.4278
15127TIP3    H166872   2.697   2.731   4.838  0.1136 -0.0756 -0.0870
15127TIP3    H266873   2.649   2.869   4.876  0.1740  0.1992 -1.0054
15128TIP3   OH266874   4.496   1.326   1.494 -0.1884 -0.4680  0.4293
15128TIP3    H166875   4.480   1.368   1.409  0.2424  0.3268  0.7278
15128TIP3    H266876   4.410   1.296   1.523 -0.8367  1.8041  1.0175
15129TIP3   OH266877   5.783   6.117  14.746 -0.0603 -0.2283 -0.3443
15129TIP3    H166878   5.855   6.119  14.809 -1.1461  0.7288  0.8912
15129TIP3    H266879   5.791   6.199  14.697 -0.3302 -0.1125 -0.1929
15130TIP3   OH266880   0.030   1.897  10.752 -0.2854  0.2625 -0.6429
15130TIP3    H166881   0.076   1.980  10.760  0.6144 -0.2570 -0.4029
15130TIP3    H266882   0.031   1.878  10.658 -0.0094  0.2527 -0.6383
15131TIP3   OH266883   4.671   5.937  14.072  0.1649  0.1088  0.2613
15131TIP3    H166884   4.765   5.948  14.057  0.0440 -0.9487 -1.3529
15131TIP3    H266885   4.666   5.868  14.138  0.5648  1.6251  1.9193
15132TIP3   OH266886   6.704   1.069   3.773 -0.4860 -0.4496  0.3776
15132TIP3    H166887   6.682   1.093   3.863 -0.9836  0.9801 -0.1116
15132TIP3    H266888   6.763   0.994   3.782  0.6291  0.5857  1.9489
15133TIP3   OH266889   1.589   4.289  15.914 -0.0165  1.1848 -0.1174
15133TIP3    H166890   1.640   4.366  15.890  0.9422  0.3819 -0.6598
15133TIP3    H266891   1.630   4.216  15.867 -1.4761  0.4779 -0.3480
15134TIP3   OH266892   1.370   4.115  10.955  0.4219 -0.9241  0.3308
15134TIP3    H166893   1.462   4.132  10.976  0.2409 -1.3369  1.4868
15134TIP3    H266894   1.373   4.050  10.885  1.0471  0.8001 -1.2799
15135TIP3   OH266895   6.290   3.045  16.101 -0.4397  0.4697  0.1889
15135TIP3    H166896   6.201   3.023  16.130  0.2585 -0.0388  2.0341
15135TIP3    H266897   6.344   2.974  16.135  0.9793  1.8644  0.9385
15136TIP3   OH266898   0.033   1.199  13.183 -0.1803 -0.1602 -0.7856
15136TIP3    H166899  -0.058   1.176  13.168  0.2597 -0.7960 -2.6922
15136TIP3    H266900   0.052   1.266  13.118 -0.6007  3.6172  2.7867
15137TIP3   OH266901   3.721   6.807   0.012  0.5598  0.3952 -0.0554
15137TIP3    H166902   3.716   6.823  -0.082 -0.5104  2.6714  0.3540
15137TIP3    H266903   3.649   6.747   0.031  1.5310 -1.0637 -0.8397
15138TIP3   OH266904   2.789   2.821  12.067 -0.6590 -0.1678  0.1526
15138TIP3    H166905   2.774   2.776  12.150  1.0891  0.6595  0.9542
15138TIP3    H266906   2.856   2.769  12.023  0.1995  0.7503  0.3662
15139TIP3   OH266907   1.568   5.756   4.580  0.3828 -0.2639 -0.3259
15139TIP3    H166908   1.519   5.771   4.661  0.4439 -0.6662 -0.2125
15139TIP3    H266909   1.640   5.699   4.606  0.7691  0.1169 -0.5399
15140TIP3   OH266910   4.224   4.772  15.990 -0.4933 -1.0914 -0.2446
15140TIP3    H166911   4.246   4.835  16.058 -1.3014 -1.4041  0.3175
15140TIP3    H266912   4.234   4.687  16.033 -2.0313 -1.2609 -0.1963
15141TIP3   OH266913   2.719   3.604   5.038  0.4164 -0.4000  0.0369
15141TIP3    H166914   2.683   3.594   4.950 -1.0791  0.7913  0.4908
15141TIP3    H266915   2.642   3.597   5.095  1.3125 -0.6754  1.2111
15142TIP3   OH266916   1.309   0.340  13.468  0.1090  0.6536 -0.0711
15142TIP3    H166917   1.337   0.405  13.532  0.0116  0.2743  0.3601
15142TIP3    H266918   1.374   0.345  13.398 -0.0577  1.4078 -0.1703
15143TIP3   OH266919   4.589   2.958   4.266  0.1780 -0.5425 -0.9440
15143TIP3    H166920   4.548   3.015   4.201 -1.0001  0.0393  0.2915
15143TIP3    H266921   4.543   2.875   4.258 -1.3708  0.1406  0.5127
15144TIP3   OH266922   4.661   2.292  14.288  0.6412  0.4686 -0.1944
15144TIP3    H166923   4.633   2.283  14.197 -0.7367 -0.4489  0.3179
15144TIP3    H266924   4.733   2.355  14.284 -0.5021  1.7152 -1.7124
15145TIP3   OH266925   6.010   5.606  10.764  0.0451 -0.2873  0.6877
15145TIP3    H166926   5.949   5.534  10.747  0.3803 -0.7350  1.3579
15145TIP3    H266927   5.957   5.671  10.810 -0.3962  0.1388 -0.3989
15146TIP3   OH266928   4.716   5.378  10.632  0.0052 -0.0785 -0.1245
15146TIP3    H166929   4.630   5.335  10.631 -0.0539  0.0253  0.4304
15146TIP3    H266930   4.697   5.469  10.658  0.6159 -0.8041  3.0828
15147TIP3   OH266931   2.915   2.975   1.619 -0.4218  0.0897 -0.5767
15147TIP3    H166932   2.962   2.975   1.535 -1.2243 -3.0884 -1.0905
15147TIP3    H266933   2.978   2.937   1.681 -0.3477  1.0598 -0.0569
15148TIP3   OH266934   1.712   1.874   1.182  0.0779  0.2518  0.2585
15148TIP3    H166935   1.740   1.966   1.176  3.4790 -0.7646 -0.8858
15148TIP3    H266936   1.761   1.840   1.258  0.9713 -1.2621 -0.9600
15149TIP3   OH266937   3.654   2.458  13.738  0.2772 -0.7433  0.3496
15149TIP3    H166938   3.666   2.368  13.709  2.3972 -0.1161 -0.8897
15149TIP3    H266939   3.638   2.507  13.657 -0.9210 -0.0191  1.0167
15150TIP3   OH266940   3.210   3.679   5.977 -0.3050  0.5027  0.2131
15150TIP3    H166941   3.275   3.726   6.029 -0.9534  1.5955  0.0513
15150TIP3    H266942   3.171   3.616   6.038  0.8421 -0.1134  0.3244
15151TIP3   OH266943   1.073   3.682   6.095  0.4475  0.1631  0.2903
15151TIP3    H166944   1.082   3.742   6.020  1.5250  2.9080  2.4974
15151TIP3    H266945   0.983   3.652   6.091  0.2320  0.9392 -1.5952
15152TIP3   OH266946   0.613   0.203   3.984  0.7370  0.6013 -0.1392
15152TIP3    H166947   0.630   0.287   4.027  1.9746 -0.0993  0.7816
15152TIP3    H266948   0.528   0.213   3.943 -0.2434  1.4804  2.0668
15153TIP3   OH266949   1.332   6.536   5.385 -0.0718  0.0689  0.3251
15153TIP3    H166950   1.366   6.624   5.371  0.0767  0.1393  1.1214
15153TIP3    H266951   1.319   6.501   5.297  1.1515  0.3939  0.0045
15154TIP3   OH266952   4.571   1.998  12.573 -0.1978  0.7730 -0.2483
15154TIP3    H166953   4.493   2.053  12.577  1.1843  2.7998 -0.0630
15154TIP3    H266954   4.642   2.059  12.554  1.2837 -1.0923 -0.9008
15155TIP3   OH266955   3.029   1.575  13.243  0.1731  0.6411 -0.0917
15155TIP3    H166956   3.019   1.507  13.176  1.1795  0.6824 -0.2897
15155TIP3    H266957   2.998   1.533  13.323  1.4785 -0.3070 -0.0702
15156TIP3   OH266958   6.386   5.669   4.138 -0.2543  0.1867 -0.4208
15156TIP3    H166959   6.409   5.686   4.229  0.6096 -0.0638 -0.5871
15156TIP3    H266960   6.302   5.713   4.125 -1.4590 -1.5841  1.0975
15157TIP3   OH266961   1.241   1.700   1.902 -0.1173  0.0061  0.2667
15157TIP3    H166962   1.252   1.724   1.994 -0.9821 -1.1830  0.6850
15157TIP3    H266963   1.199   1.614   1.904 -1.3231  0.5396 -1.2398
15158TIP3   OH266964   2.979   3.339  13.377 -0.0988  0.3324 -0.4149
15158TIP3    H166965   2.914   3.376  13.317  1.0797  3.2086  0.0131
15158TIP3    H266966   3.039   3.290  13.320 -0.0408  1.5070 -1.3840
15159TIP3   OH266967   0.568   0.229  14.579  0.0828 -0.1887  0.5502
15159TIP3    H166968   0.579   0.280  14.659 -1.3624 -0.8968  1.2200
15159TIP3    H266969   0.570   0.138  14.608 -3.5376 -0.4196  0.2457
15160TIP3   OH266970   0.971   5.591  11.166  0.1776  0.6144  0.1404
15160TIP3    H166971   1.019   5.650  11.108  0.9863 -0.4345 -0.2612
15160TIP3    H266972   0.904   5.647  11.206 -1.2332  1.0765 -2.7445
15161TIP3   OH266973   4.688   3.880   6.081  0.0034 -0.1589 -0.3528
15161TIP3    H166974   4.777   3.854   6.061 -0.0434 -0.5696 -0.0311
15161TIP3    H266975   4.648   3.900   5.996  0.6701  0.8985 -0.4263
15162TIP3   OH266976   5.834   2.015  17.112 -0.1598 -0.8889  0.1568
15162TIP3    H166977   5.901   2.033  17.046 -0.6122  0.9240  0.1661
15162TIP3    H266978   5.756   1.991  17.061 -0.8837  1.7582 -0.0694
15163TIP3   OH266979   5.392   4.824  13.918 -0.3671  0.2619  0.1818
15163TIP3    H166980   5.352   4.881  13.985 -0.2244 -0.8046  1.1897
15163TIP3    H266981   5.441   4.885  13.862 -1.9167  1.3702  0.0009
15164TIP3   OH266982   5.510   2.247   2.583 -0.2941 -0.0616 -0.7108
15164TIP3    H166983   5.490   2.225   2.492 -1.9845 -2.6711  0.2327
15164TIP3    H266984   5.589   2.196   2.603 -0.0641  0.3179 -0.6496
15165TIP3   OH266985   1.649   1.889   5.736  0.3081 -0.2586  0.2229
15165TIP3    H166986   1.564   1.846   5.750  0.1745  0.4629  1.6839
15165TIP3    H266987   1.645   1.968   5.789  0.9255  1.0914 -1.7009
15166TIP3   OH266988   3.826   5.956  15.217 -0.0664 -0.3615 -0.6813
15166TIP3    H166989   3.916   5.980  15.240  0.9632 -1.5835 -3.1719
15166TIP3    H266990   3.825   5.860  15.220 -0.8287 -0.4254 -2.1580
15167TIP3   OH266991   4.791   0.028  16.662  0.0433 -0.0358 -0.5735
15167TIP3    H166992   4.842   0.068  16.591  1.1300  0.4034  0.4377
15167TIP3    H266993   4.704   0.068  16.655  0.0967 -0.1087 -1.7487
15168TIP3   OH266994   0.662   3.461  16.155  0.1931 -0.0817 -0.1531
15168TIP3    H166995   0.616   3.424  16.079 -0.3403  0.0557  0.1025
15168TIP3    H266996   0.748   3.486  16.120 -0.8763  2.1404 -1.2735
15169TIP3   OH266997   0.701   3.277  14.077  0.2549 -0.5188  0.0886
15169TIP3    H166998   0.620   3.289  14.128 -0.9019 -0.2755 -1.7861
15169TIP3    H266999   0.686   3.324  13.996  2.2134 -0.6770 -0.3907
15170TIP3   OH267000   1.322   0.990  13.323 -0.1568  0.2005  0.1241
15170TIP3    H167001   1.246   1.021  13.273 -1.1156  0.2923  1.6091
15170TIP3    H267002   1.397   1.032  13.282 -1.0388  1.1724 -0.5141
15171TIP3   OH267003   0.055   3.227  16.577 -0.3770  0.9365 -0.6042
15171TIP3    H167004   0.087   3.309  16.539 -0.0513  1.0900  0.0089
15171TIP3    H267005   0.100   3.219  16.661 -0.7150  0.3353 -0.4742
15172TIP3   OH267006   5.070   4.662   0.596 -0.3076  0.3953  0.4656
15172TIP3    H167007   5.117   4.685   0.676 -2.4276  0.5212  1.7349
15172TIP3    H267008   5.054   4.746   0.553  0.5847  0.3526  0.0391
15173TIP3   OH267009   4.427   5.675  16.867  0.0347  0.4970  0.0857
15173TIP3    H167010   4.449   5.766  16.846 -0.6132  0.1795 -2.0602
15173TIP3    H267011   4.342   5.681  16.912 -0.2586  0.9196 -0.5152
15174TIP3   OH267012   1.153   2.414  16.932  0.3391  0.3646 -0.1569
15174TIP3    H167013   1.201   2.495  16.911 -0.4562  0.8946  0.0454
15174TIP3    H267014   1.220   2.346  16.931  0.6141  0.6308 -2.7307
15175TIP3   OH267015   2.244   3.706   0.393 -0.2144 -0.1561  0.1949
15175TIP3    H167016   2.276   3.794   0.415  0.6700 -0.3224 -0.4258
15175TIP3    H267017   2.207   3.673   0.475  0.3089  0.4221  0.6661
15176TIP3   OH267018   3.715   4.758   5.210  0.6179  0.1837 -0.2577
15176TIP3    H167019   3.733   4.687   5.149 -0.6475  0.4956 -1.0179
15176TIP3    H267020   3.742   4.724   5.295  0.9217 -0.8477 -0.7613
15177TIP3   OH267021   2.593   0.833   5.572  0.8232  0.1324 -1.0280
15177TIP3    H167022   2.670   0.778   5.583 -1.0716 -2.6076 -0.9757
15177TIP3    H267023   2.570   0.859   5.662  1.1020  0.1169 -0.9512
15178TIP3   OH267024   5.927   2.728  12.570 -0.5732 -0.4106 -0.5253
15178TIP3    H167025   5.974   2.809  12.550  0.1508 -0.5307  0.6514
15178TIP3    H267026   5.927   2.679  12.487  1.3441 -0.3906 -0.5534
15179TIP3   OH267027   6.809   5.492  13.849 -0.2477 -0.2698 -0.1882
15179TIP3    H167028   6.832   5.583  13.835 -1.4309  0.0443 -0.1400
15179TIP3    H267029   6.864   5.443  13.788  0.2757  0.4798 -0.3185
15180TIP3   OH267030   4.549   4.826   0.558  0.3870  0.0329 -0.3539
15180TIP3    H167031   4.562   4.769   0.634 -0.5761 -0.5290 -0.6004
15180TIP3    H267032   4.613   4.896   0.570 -0.8270  0.8346  1.8118
15181TIP3   OH267033   3.531   0.472  13.836 -0.3103 -0.5597 -0.5570
15181TIP3    H167034   3.537   0.430  13.750 -0.3262 -0.5984 -0.5397
15181TIP3    H267035   3.605   0.436  13.885 -0.2246 -0.4387 -0.5965
15182TIP3   OH267036   0.110   3.140   3.011  0.1163  0.4149  0.0178
15182TIP3    H167037   0.094   3.219   3.062  0.2308 -0.6727  1.7689
15182TIP3    H267038   0.022   3.107   2.989  0.0421  0.2698  0.5110
15183TIP3   OH267039   1.169   4.270  16.006  0.2315  0.2378  0.2019
15183TIP3    H167040   1.093   4.300  16.056  0.2095  1.4389 -0.5181
15183TIP3    H267041   1.158   4.311  15.920  1.8333  0.6566  0.1760
15184TIP3   OH267042   0.550   2.155   0.754 -0.9026 -0.1618  0.0922
15184TIP3    H167043   0.488   2.137   0.683 -2.4086  0.6583  1.1860
15184TIP3    H267044   0.559   2.250   0.754 -0.4566 -0.2028  0.6245
15185TIP3   OH267045   6.337   5.851  15.681 -0.6942  0.4279 -0.0195
15185TIP3    H167046   6.259   5.836  15.735 -0.2107 -0.6244  0.4042
15185TIP3    H267047   6.405   5.877  15.744 -0.3865  0.1743 -0.2451
15186TIP3   OH267048   1.901   2.126  11.963 -0.1741 -0.0398  0.0435
15186TIP3    H167049   1.956   2.104  12.038  0.0611 -2.3721 -0.7853
15186TIP3    H267050   1.935   2.211  11.933  0.7577  0.1454  1.5794
15187TIP3   OH267051   1.427   4.403   1.078  0.2277  0.2605 -0.0316
15187TIP3    H167052   1.473   4.343   1.137 -0.5291  0.4843  0.8040
15187TIP3    H267053   1.489   4.475   1.064  1.7919 -1.4745 -2.3714
15188TIP3   OH267054   3.312   5.971  16.091  0.3572 -0.1684  0.1848
15188TIP3    H167055   3.251   6.002  16.023  0.5244  0.0752  0.1420
15188TIP3    H267056   3.397   6.005  16.063  0.2964  0.6297  0.9397
15189TIP3   OH267057   0.745   1.362   5.397  0.5951  0.2575  0.0435
15189TIP3    H167058   0.736   1.282   5.347  0.4109  0.8318 -0.8428
15189TIP3    H267059   0.810   1.413   5.349 -1.8910  2.1757 -1.3959
15190TIP3   OH267060   1.443   3.759   3.264 -0.2644 -0.2318 -0.5105
15190TIP3    H167061   1.470   3.845   3.230 -2.4616  1.1689  1.1499
15190TIP3    H267062   1.454   3.767   3.359  4.2355 -3.5365 -0.6049
15191TIP3   OH267063   0.060   4.561  10.289  0.8899 -0.5167  0.2044
15191TIP3    H167064  -0.019   4.509  10.305  0.7721 -0.5500 -0.4939
15191TIP3    H267065   0.129   4.513  10.336  0.4840 -0.4456  0.8762
15192TIP3   OH267066   2.735   2.181  12.772  0.1984 -0.1231 -0.2251
15192TIP3    H167067   2.792   2.253  12.746 -1.1929  0.9740 -0.3016
15192TIP3    H267068   2.683   2.216  12.844 -0.2480 -1.1688 -0.0299
15193TIP3   OH267069   6.640   6.377  17.183 -0.8794 -0.0746  0.5356
15193TIP3    H167070   6.587   6.375  17.263 -1.0922 -2.6142  0.3677
15193TIP3    H267071   6.577   6.398  17.113 -1.2717 -1.0074  0.6114
15194TIP3   OH267072   3.501   6.059   1.613 -0.0131  0.2974  0.3140
15194TIP3    H167073   3.550   5.979   1.629  2.2944  1.8250  1.0726
15194TIP3    H267074   3.478   6.054   1.520  1.5418 -0.4756 -0.0550
15195TIP3   OH267075   5.044   5.392  14.103  0.3157 -0.4083  0.2488
15195TIP3    H167076   5.111   5.458  14.082 -1.0858  0.4539 -1.6831
15195TIP3    H267077   5.052   5.327  14.033 -0.6068 -0.4982  0.2252
15196TIP3   OH267078   0.111   2.307  15.169  0.4460 -0.0397  0.1273
15196TIP3    H167079   0.204   2.321  15.157  0.1918  0.7340 -1.0373
15196TIP3    H267080   0.099   2.213  15.158  1.0560 -0.1160  0.1266
15197TIP3   OH267081   6.817   0.619  12.555  0.5363  0.3832  0.5160
15197TIP3    H167082   6.756   0.621  12.482  1.9927  0.7527 -0.7241
15197TIP3    H267083   6.879   0.690  12.537  1.7363 -0.4207  1.3778
15198TIP3   OH267084   4.487   0.611  13.543  0.1359  0.1758  0.4060
15198TIP3    H167085   4.413   0.651  13.589 -2.0924 -2.1497 -1.0124
15198TIP3    H267086   4.508   0.534  13.596  2.2920  1.4141  1.3878
15199TIP3   OH267087   5.290   0.780   4.369  0.4550 -0.5869  0.4115
15199TIP3    H167088   5.369   0.744   4.409 -0.6543 -4.2661 -0.5893
15199TIP3    H267089   5.219   0.725   4.402 -1.5227  1.5795 -0.0692
15200TIP3   OH267090   5.439   6.528  13.181 -0.4675  0.1880 -0.3248
15200TIP3    H167091   5.459   6.450  13.128  0.2156 -0.5116  0.9532
15200TIP3    H267092   5.473   6.507  13.268 -1.0001  1.6051  0.2269
15201TIP3   OH267093   4.125   3.357   5.293  0.7167  0.4928  0.3751
15201TIP3    H167094   4.064   3.285   5.274 -0.2611  1.4837 -0.2813
15201TIP3    H267095   4.179   3.324   5.365 -0.4916 -0.4588  0.8679
15202TIP3   OH267096   2.323   0.936   1.879  0.3008  0.0485  0.2989
15202TIP3    H167097   2.309   0.851   1.920  0.0544  0.2278  0.5951
15202TIP3    H267098   2.392   0.921   1.814 -0.5957 -0.6258 -0.4909
15203TIP3   OH267099   3.717   2.973  13.302 -0.7092 -0.3587  0.4395
15203TIP3    H167100   3.635   3.000  13.260 -0.0485 -1.0457 -1.3105
15203TIP3    H267101   3.755   3.055  13.334 -2.4998 -0.1203  2.0903
15204TIP3   OH267102   4.616   2.857   3.761 -0.4311  0.8557 -0.1882
15204TIP3    H167103   4.568   2.777   3.782  0.5179  0.5967  0.9884
15204TIP3    H267104   4.605   2.867   3.666  0.4190 -1.2942 -0.5220
15205TIP3   OH267105   3.769   5.089  11.504 -0.0837 -0.8206  0.0801
15205TIP3    H167106   3.850   5.120  11.542 -0.0354 -0.5120 -0.2691
15205TIP3    H267107   3.700   5.133  11.554 -0.0022  0.8616 -1.2407
15206TIP3   OH267108   0.170   1.792   4.152  0.7430  0.0009  0.1319
15206TIP3    H167109   0.232   1.835   4.211  1.4538 -0.2425 -0.4277
15206TIP3    H267110   0.099   1.855   4.141  1.3959  0.7031 -0.0586
15207TIP3   OH267111   2.953   5.907   2.713  0.1022  0.4935 -0.2567
15207TIP3    H167112   2.916   5.992   2.690  0.2636  0.1847 -1.7097
15207TIP3    H267113   3.046   5.925   2.727  0.9841 -0.0446 -4.4859
15208TIP3   OH267114   3.853   4.797   1.620  0.0574  0.1897  0.2460
15208TIP3    H167115   3.836   4.731   1.687 -0.3395  0.2521  0.2106
15208TIP3    H267116   3.780   4.858   1.629 -0.8526 -0.6613 -1.3254
15209TIP3   OH267117   2.010   0.137  16.673  0.0138 -0.0964 -0.1163
15209TIP3    H167118   2.065   0.160  16.748 -0.3894 -0.6325  0.3521
15209TIP3    H267119   1.922   0.164  16.698 -0.1832 -0.6194 -0.2458
15210TIP3   OH267120   0.992   3.665   3.625  0.6069 -0.5470  0.5433
15210TIP3    H167121   1.080   3.630   3.614  0.0113 -1.6241 -1.0694
15210TIP3    H267122   0.937   3.589   3.642 -0.1409  0.0070  0.6620
15211TIP3   OH267123   6.316   4.407  12.250 -0.3249  0.0970  0.6218
15211TIP3    H167124   6.310   4.338  12.316  2.1494 -1.0578 -0.2955
15211TIP3    H267125   6.403   4.445  12.262 -0.0483  0.2475 -1.5958
15212TIP3   OH267126   5.607   6.108  12.850  0.3278 -0.3255  0.4262
15212TIP3    H167127   5.625   6.024  12.807 -0.4058 -0.5721  0.6023
15212TIP3    H267128   5.561   6.159  12.784 -0.6977 -0.6631  0.8744
15213TIP3   OH267129   5.112   0.524   0.656  0.3682  0.1636  0.3014
15213TIP3    H167130   5.189   0.543   0.710  0.8490 -0.3967 -0.1984
15213TIP3    H267131   5.109   0.429   0.651  0.8670  0.2387 -1.4720
15214TIP3   OH267132   4.456   3.794  16.616 -0.7410 -0.1361 -0.6482
15214TIP3    H167133   4.460   3.826  16.706  0.0476 -0.6708 -0.4836
15214TIP3    H267134   4.497   3.707  16.620  0.5970  0.4225 -1.7728
15215TIP3   OH267135   4.206   2.301  16.669  0.1325  0.0204  0.2705
15215TIP3    H167136   4.227   2.292  16.576  1.5404 -0.9944  0.6893
15215TIP3    H267137   4.112   2.322  16.669 -0.0855 -0.8371 -1.3315
15216TIP3   OH267138   3.517   4.504   5.200  0.2661  0.6606 -0.5466
15216TIP3    H167139   3.565   4.444   5.143 -0.1472  0.0201 -0.2218
15216TIP3    H267140   3.443   4.453   5.232  1.1384  0.6362  1.5137
15217TIP3   OH267141   0.967   0.520   4.737  0.4984 -0.0984 -0.0797
15217TIP3    H167142   0.890   0.567   4.769  0.7549 -0.9505  1.9293
15217TIP3    H267143   0.973   0.444   4.795  3.8171  0.8310  0.8679
15218TIP3   OH267144   5.617   0.283   1.842 -0.1887  0.4738  0.1216
15218TIP3    H167145   5.539   0.250   1.886  0.5154  0.9199  1.7094
15218TIP3    H267146   5.587   0.361   1.795 -0.8127  0.3173  0.2532
15219TIP3   OH267147   4.163   4.879   3.656 -0.4361 -0.4353  0.1363
15219TIP3    H167148   4.161   4.974   3.642  1.1441 -0.7664 -2.6266
15219TIP3    H267149   4.089   4.846   3.603 -1.0737 -0.7495  1.2079
15220TIP3   OH267150   4.953   2.809   5.162  0.1087 -0.4261 -0.7166
15220TIP3    H167151   4.947   2.905   5.165  0.8129 -0.4091  0.1536
15220TIP3    H267152   4.862   2.779   5.164 -0.1296  0.2298 -1.3543
15221TIP3   OH267153   0.214   0.869  16.629  0.2010 -0.0602 -0.1841
15221TIP3    H167154   0.276   0.841  16.697  0.1130 -1.8144 -0.8024
15221TIP3    H267155   0.180   0.787  16.593  0.7703  0.8294 -2.8293
15222TIP3   OH267156   6.457   4.435  16.828  0.2259  0.0462 -0.0972
15222TIP3    H167157   6.491   4.516  16.868 -1.9793  0.4550  1.0022
15222TIP3    H267158   6.441   4.459  16.737  3.3916 -0.3278 -0.8298
15223TIP3   OH267159   0.095   0.193  13.644 -0.6265 -0.4244  0.1899
15223TIP3    H167160   0.184   0.158  13.647  0.7453  2.9369  0.8339
15223TIP3    H267161   0.081   0.217  13.552 -0.1206  0.7826  0.4152
15224TIP3   OH267162   0.239   2.747  15.974 -0.2749 -0.1986  0.3214
15224TIP3    H167163   0.318   2.721  16.021  0.1919 -0.3869 -0.5488
15224TIP3    H267164   0.227   2.679  15.908 -0.2254  0.6834 -0.6185
15225TIP3   OH267165   0.589   6.352   3.731 -0.2615 -0.1460 -0.3579
15225TIP3    H167166   0.523   6.308   3.679 -2.3385  0.7407  1.4497
15225TIP3    H267167   0.648   6.283   3.760 -1.7190 -1.2874 -0.0987
15226TIP3   OH267168   5.598   5.502  17.242 -0.0880  0.5762 -0.0765
15226TIP3    H167169   5.590   5.483  17.335 -0.3292  1.0664  0.0026
15226TIP3    H267170   5.522   5.556  17.221  0.1305  0.7355 -0.4875
15227TIP3   OH267171   4.146   0.427  13.371  0.1559 -0.4970  0.2107
15227TIP3    H167172   4.149   0.419  13.467 -1.0948 -0.5305  0.2498
15227TIP3    H267173   4.069   0.376  13.345 -0.3035  0.6408 -0.6872
15228TIP3   OH267174   2.754   4.555  11.499  0.5275 -0.8070 -0.1301
15228TIP3    H167175   2.747   4.635  11.446  1.5149 -0.2795  0.5151
15228TIP3    H267176   2.671   4.511  11.486  0.1733  0.0617 -0.9291
15229TIP3   OH267177   2.866   5.347  14.364 -0.1474 -0.0406  0.2540
15229TIP3    H167178   2.890   5.330  14.455  1.1638 -0.9226 -0.2414
15229TIP3    H267179   2.809   5.274  14.339  1.0685 -0.8597 -0.2043
15230TIP3   OH267180   2.142   2.383   4.462  0.1718 -0.2595 -0.0984
15230TIP3    H167181   2.073   2.317   4.454 -0.6572  0.6296 -0.5012
15230TIP3    H267182   2.095   2.465   4.476  1.1781  0.2799  0.1967
15231TIP3   OH267183   3.429   2.426  16.845 -0.4946 -0.2790 -0.1059
15231TIP3    H167184   3.436   2.521  16.843  0.6509 -0.3244  1.4171
15231TIP3    H267185   3.367   2.408  16.915 -0.1354 -0.6823  0.1091
15232TIP3   OH267186   4.204   1.682   5.587 -0.4444  0.3337 -0.2212
15232TIP3    H167187   4.125   1.658   5.635  0.6955 -0.8012  1.1313
15232TIP3    H267188   4.187   1.770   5.555 -2.2440  0.1086  0.0627
15233TIP3   OH267189   6.267   4.311   1.818  0.1869  0.5141  0.6515
15233TIP3    H167190   6.246   4.373   1.748 -0.8720  0.2101  0.7036
15233TIP3    H267191   6.187   4.303   1.869  0.8912  0.5802  1.8043
15234TIP3   OH267192   6.589   1.716  14.144  0.0528 -0.0861  0.2543
15234TIP3    H167193   6.590   1.711  14.049 -0.7067  1.1554  0.1771
15234TIP3    H267194   6.622   1.803  14.165 -1.0190  0.1418  1.0770
15235TIP3   OH267195   4.009   2.554  11.226 -0.4840 -0.1101  0.7585
15235TIP3    H167196   4.027   2.592  11.140 -0.4220 -2.6075 -0.3630
15235TIP3    H267197   4.095   2.551  11.270 -0.4255  0.6514  0.6928
15236TIP3   OH267198   5.410   6.044  14.833  0.9162 -0.1146 -0.0591
15236TIP3    H167199   5.367   6.031  14.917 -1.4854  0.4263 -1.1612
15236TIP3    H267200   5.486   5.985  14.835  0.5496 -0.5341  2.2264
15237TIP3   OH267201   6.156   4.553  16.210  0.2614 -0.0965  0.0142
15237TIP3    H167202   6.249   4.578  16.208 -0.2663  2.0913  1.1895
15237TIP3    H267203   6.114   4.611  16.146 -0.3345 -0.8969 -0.3228
15238TIP3   OH267204   2.837   0.426  13.275 -0.1841 -0.3918 -0.3489
15238TIP3    H167205   2.841   0.382  13.190  2.5971 -0.0521 -0.4472
15238TIP3    H267206   2.807   0.358  13.336 -1.0277 -0.9677 -1.3980
15239TIP3   OH267207   5.709   0.375  16.535  0.3600 -0.6616  0.1367
15239TIP3    H167208   5.640   0.330  16.583  0.3235 -1.0522 -0.2812
15239TIP3    H267209   5.711   0.463  16.573  0.3920 -0.9990  0.9118
15240TIP3   OH267210   0.045   5.233   2.257 -0.1834 -0.1784 -0.3305
15240TIP3    H167211   0.103   5.254   2.330  1.3995 -1.5649 -1.1594
15240TIP3    H267212   0.002   5.315   2.235  1.5685  0.8985  0.2075
15241TIP3   OH267213   0.516   0.300   1.955  0.8404 -0.5952  0.1528
15241TIP3    H167214   0.610   0.292   1.968  0.6252 -3.1915  0.4355
15241TIP3    H267215   0.492   0.222   1.905 -0.8235  1.2033 -1.9450
15242TIP3   OH267216   6.021   3.623   5.699 -0.2001 -0.1948 -0.6717
15242TIP3    H167217   5.942   3.611   5.646  0.2087  1.9509 -1.8064
15242TIP3    H267218   6.003   3.699   5.753  1.8074  1.5434 -2.3581
15243TIP3   OH267219   5.604   6.223   3.066  0.2414  0.7578 -0.1466
15243TIP3    H167220   5.600   6.134   3.030  0.5525  0.6473  0.0847
15243TIP3    H267221   5.523   6.264   3.037 -0.2149  0.1804  0.3062
15244TIP3   OH267222   1.393   3.787  16.427  0.0125  0.2112  0.5536
15244TIP3    H167223   1.421   3.723  16.361 -1.7288  0.5402 -0.5263
15244TIP3    H267224   1.412   3.872  16.388 -1.9518  0.4314  0.0004
15245TIP3   OH267225   2.798   3.749   6.014  0.4155 -0.0095  0.4465
15245TIP3    H167226   2.835   3.816   6.072 -0.1347 -0.6994  1.6259
15245TIP3    H267227   2.703   3.761   6.021  0.3629  0.8450 -1.4661
15246TIP3   OH267228   5.434   1.003   5.437 -0.5568 -0.2440 -0.0815
15246TIP3    H167229   5.451   0.984   5.345  0.8871  0.6088 -0.0042
15246TIP3    H267230   5.384   1.085   5.435 -0.0504  0.0632 -0.0768
15247TIP3   OH267231   2.625   6.562  16.821 -0.1589  0.2294  0.0655
15247TIP3    H167232   2.608   6.479  16.865 -0.4727 -0.7687 -1.8915
15247TIP3    H267233   2.538   6.600  16.807 -0.0892  0.3644 -0.0026
15248TIP3   OH267234   4.335   6.235   3.800  0.2713 -0.1725 -0.2196
15248TIP3    H167235   4.403   6.169   3.784 -0.0746 -0.4215 -0.6584
15248TIP3    H267236   4.289   6.204   3.878  0.6865  0.0179  0.1028
15249TIP3   OH267237   0.731   2.632  12.959 -0.0549 -0.0422  0.0368
15249TIP3    H167238   0.779   2.641  13.041  0.4582 -0.6608 -0.1924
15249TIP3    H267239   0.786   2.576  12.905 -0.6173 -0.0295 -0.5546
15250TIP3   OH267240   5.399   6.343   2.829 -0.0391 -0.0065  0.1969
15250TIP3    H167241   5.383   6.436   2.845 -1.1393  0.5875 -3.6777
15250TIP3    H267242   5.485   6.340   2.788  0.1475 -0.7229  0.6353
15251TIP3   OH267243   4.159   4.175   0.280 -0.0275 -0.4452 -0.8983
15251TIP3    H167244   4.151   4.162   0.374  1.4516 -1.2424 -0.8565
15251TIP3    H267245   4.088   4.124   0.242  0.7850 -2.0558 -0.3064
15252TIP3   OH267246   2.369   4.848  15.303 -0.0072 -0.3882  0.1682
15252TIP3    H167247   2.284   4.879  15.334 -0.6085  0.2163 -1.9940
15252TIP3    H267248   2.418   4.929  15.285  1.1795 -0.7312  1.7836
15253TIP3   OH267249   6.397   0.600  11.504 -1.0053 -0.0333  0.0420
15253TIP3    H167250   6.316   0.636  11.469 -1.3033 -1.4992 -0.7872
15253TIP3    H267251   6.390   0.506  11.490  0.0612 -0.3598  1.5808
15254TIP3   OH267252   4.100   5.099  16.883  0.1366  0.2630 -0.0036
15254TIP3    H167253   4.189   5.084  16.852 -0.1475 -2.5465  0.4218
15254TIP3    H267254   4.046   5.035  16.836 -1.3674  0.6607  1.1184
15255TIP3   OH267255   2.244   6.424  13.121  0.5701 -0.2516  0.0961
15255TIP3    H167256   2.255   6.410  13.027  0.2446 -1.6804  0.2591
15255TIP3    H267257   2.332   6.418  13.157  0.9525  2.2714 -0.3521
15256TIP3   OH267258   4.157   4.169  12.748  0.9212 -0.3084  0.2014
15256TIP3    H167259   4.167   4.087  12.795 -0.5697 -0.7316 -0.1949
15256TIP3    H267260   4.062   4.181  12.739  1.1463  0.0870 -2.0792
15257TIP3   OH267261   5.061   3.188  11.929 -0.3682  0.4434  0.0250
15257TIP3    H167262   5.085   3.105  11.970  1.1787  1.8640  2.1911
15257TIP3    H267263   5.055   3.249  12.003 -1.7934  2.1705 -1.4841
15258TIP3   OH267264   6.285   2.777  13.609  0.2263  0.5110 -0.1145
15258TIP3    H167265   6.301   2.690  13.572  1.8762  1.2072 -1.0997
15258TIP3    H267266   6.221   2.762  13.678  0.4368 -1.4878 -0.3191
15259TIP3   OH267267   3.764   5.817   3.098  0.0170  0.3414  0.5976
15259TIP3    H167268   3.817   5.747   3.059 -0.2206  0.7952 -0.5792
15259TIP3    H267269   3.829   5.877   3.135  0.3391  0.7231 -0.5415
15260TIP3   OH267270   4.397   1.231  13.950 -0.1491 -0.0907  0.4890
15260TIP3    H167271   4.397   1.311  14.002 -0.3615 -0.1892  0.6454
15260TIP3    H267272   4.489   1.211  13.935 -0.1148  0.8061 -0.5279
15261TIP3   OH267273   4.140   3.464   5.929 -0.1357  0.1327 -0.5584
15261TIP3    H167274   4.164   3.504   5.845 -0.4761 -0.6217 -1.0267
15261TIP3    H267275   4.187   3.515   5.994  1.5030 -0.3338 -1.3412
15262TIP3   OH267276   0.574   2.296  12.242 -0.1612  0.2105 -0.2942
15262TIP3    H167277   0.603   2.259  12.325  0.7378  0.1159 -0.6416
15262TIP3    H267278   0.627   2.252  12.175 -0.8305  0.3274 -0.9124
15263TIP3   OH267279   0.384   1.442   5.197 -0.2208 -0.4402 -0.0153
15263TIP3    H167280   0.311   1.392   5.231 -0.2288 -0.6442 -0.3349
15263TIP3    H267281   0.376   1.528   5.240  1.0122 -1.3754  2.1445
15264TIP3   OH267282   3.368   2.374   5.270  0.5038  0.1929  0.8281
15264TIP3    H167283   3.281   2.400   5.239  1.8923  2.6073 -1.2513
15264TIP3    H267284   3.361   2.375   5.365 -1.5175  1.1618  0.6965
15265TIP3   OH267285   3.701   0.751   4.509 -0.0126 -0.4372 -0.3164
15265TIP3    H167286   3.793   0.774   4.516  0.0157 -1.1918  2.4280
15265TIP3    H267287   3.655   0.834   4.511  0.4684 -0.1885  1.8611
15266TIP3   OH267288   4.958   3.696  17.288 -0.5798  0.2296 -0.1347
15266TIP3    H167289   4.920   3.677  17.203  0.7513 -2.6255 -0.1629
15266TIP3    H267290   4.883   3.697  17.348 -1.0714 -2.4363 -0.6311
15267TIP3   OH267291   0.890   3.289   5.251 -0.1014 -0.5345  0.2779
15267TIP3    H167292   0.982   3.310   5.238 -0.0826 -1.1176 -0.5790
15267TIP3    H267293   0.868   3.328   5.336  0.5082  1.0091 -0.2500
15268TIP3   OH267294   1.420   2.087   2.087  0.0368 -0.0564 -0.2205
15268TIP3    H167295   1.448   2.082   1.995 -1.3576  0.5654 -0.6951
15268TIP3    H267296   1.328   2.062   2.085  0.0604 -0.2712  1.0571
15269TIP3   OH267297   5.413   3.478   1.740  0.1006 -0.0694 -0.1035
15269TIP3    H167298   5.384   3.390   1.718 -0.7981  0.5890 -1.6064
15269TIP3    H267299   5.354   3.504   1.812 -0.5724 -0.1617 -0.6142
15270TIP3   OH267300   3.894   3.155   6.098  0.5098  0.0352  0.0576
15270TIP3    H167301   3.820   3.141   6.158 -0.1372  0.5429 -0.6158
15270TIP3    H267302   3.964   3.187   6.155  0.3674 -0.9071  0.7783
15271TIP3   OH267303   2.805   5.538   0.487 -0.1732 -0.3948  0.3038
15271TIP3    H167304   2.774   5.470   0.546  0.7891 -1.5456 -0.4841
15271TIP3    H267305   2.727   5.588   0.464 -1.1851 -2.2589 -0.4283
15272TIP3   OH267306   5.289   5.930  12.356  0.4103 -0.0159 -0.3970
15272TIP3    H167307   5.247   5.908  12.272 -0.1645  1.5390 -0.5461
15272TIP3    H267308   5.278   6.025  12.363  2.1693  0.1330  0.5340
15273TIP3   OH267309   1.539   1.404  16.839 -0.5016 -0.2489 -0.3739
15273TIP3    H167310   1.579   1.435  16.920  0.3738  0.8401 -1.2077
15273TIP3    H267311   1.582   1.321  16.820  1.1222  0.7456 -1.0802
15274TIP3   OH267312   5.261   5.754   2.198 -0.2203  0.0427 -0.4469
15274TIP3    H167313   5.175   5.795   2.206 -0.7282 -1.1337  0.4604
15274TIP3    H267314   5.300   5.763   2.285  1.2282  1.9415 -1.2771
15275TIP3   OH267315   1.618   1.618   0.501 -0.1915 -0.9341  0.1990
15275TIP3    H167316   1.677   1.679   0.544  1.8502 -2.6820 -0.0018
15275TIP3    H267317   1.605   1.655   0.413 -0.6157  0.2299  0.7443
15276TIP3   OH267318   1.014   3.338   6.597  0.2489  0.4657 -0.7810
15276TIP3    H167319   1.054   3.384   6.670 -0.2338  0.3213 -0.4272
15276TIP3    H267320   0.970   3.263   6.637  1.3509 -0.5361 -1.3808
15277TIP3   OH267321   2.015   2.325  15.410 -0.3194 -0.3542  0.4085
15277TIP3    H167322   1.964   2.338  15.330  0.4274  1.2469  0.1765
15277TIP3    H267323   1.960   2.359  15.480 -0.4205 -0.5177  0.4075
15278TIP3   OH267324   2.779   6.510   0.440  0.0716 -0.0700  0.8497
15278TIP3    H167325   2.830   6.551   0.371 -3.1495  3.8194  0.5735
15278TIP3    H267326   2.822   6.536   0.522 -0.5124  1.8206  0.5671
15279TIP3   OH267327   2.259   2.558  15.919 -0.3723 -0.6817 -0.6563
15279TIP3    H167328   2.312   2.622  15.872  0.1729 -0.3887  0.3376
15279TIP3    H267329   2.314   2.530  15.992 -2.2362  0.9439  1.4444
15280TIP3   OH267330   2.578   5.302  13.812 -0.2660  0.0925  0.1046
15280TIP3    H167331   2.530   5.321  13.732 -2.5051  1.5972  1.7493
15280TIP3    H267332   2.645   5.370  13.818 -1.0638  0.8606  0.2731
15281TIP3   OH267333   4.339   6.373  11.256 -0.0104  0.1490 -0.4298
15281TIP3    H167334   4.391   6.316  11.312  0.2544  0.6053 -0.2068
15281TIP3    H267335   4.297   6.435  11.317 -0.4228  0.0951 -0.6539
15282TIP3   OH267336   4.700   0.645  15.365 -0.5732 -0.6952 -0.5642
15282TIP3    H167337   4.689   0.712  15.433  0.6646 -0.7662 -0.2828
15282TIP3    H267338   4.621   0.592  15.371 -0.7746 -0.3086  0.3879
15283TIP3   OH267339   1.043   0.162  13.131  0.1520  0.2403 -0.8466
15283TIP3    H167340   1.091   0.244  13.116 -0.5502  0.7691 -0.2413
15283TIP3    H267341   1.084   0.124  13.209 -0.0732  0.4364 -0.6327
15284TIP3   OH267342   3.821   2.490  10.901 -0.2699  0.5345 -0.7347
15284TIP3    H167343   3.811   2.531  10.815 -0.5519 -0.3533 -1.1290
15284TIP3    H267344   3.740   2.512  10.947 -0.0976  1.0519 -0.6799
15285TIP3   OH267345   6.352   6.362  15.784 -0.6459  0.1255  0.1420
15285TIP3    H167346   6.409   6.433  15.755  1.0439 -1.6850 -1.0261
15285TIP3    H267347   6.364   6.359  15.879  0.7336  0.1431 -0.0279
15286TIP3   OH267348   1.436   4.330  15.132 -0.0263  0.1756  0.4855
15286TIP3    H167349   1.526   4.307  15.108 -0.5827 -0.7702 -0.7084
15286TIP3    H267350   1.414   4.271  15.204 -0.2158 -0.6160 -0.2208
15287TIP3   OH267351   2.699   3.278  10.711  0.2678 -0.7390  0.3286
15287TIP3    H167352   2.655   3.194  10.718 -0.4015 -0.5447 -1.4636
15287TIP3    H267353   2.726   3.285  10.620  0.8516  0.7297  0.5914
15288TIP3   OH267354   2.568   6.639  16.096 -0.0754 -0.0363  0.2610
15288TIP3    H167355   2.571   6.725  16.054  2.0318 -0.5497 -0.7328
15288TIP3    H267356   2.573   6.657  16.190 -0.4537  0.9560  0.0896
15289TIP3   OH267357   1.792   0.372   0.077  0.1255 -0.1815  0.3991
15289TIP3    H167358   1.696   0.365   0.078  0.1476 -0.6920 -0.3026
15289TIP3    H267359   1.822   0.289   0.115  0.2828  0.2806  1.2898
15290TIP3   OH267360   3.746   1.600  12.194 -0.1975 -0.0303  0.3695
15290TIP3    H167361   3.768   1.604  12.101 -0.2511 -0.8593  0.3238
15290TIP3    H267362   3.787   1.520  12.226 -0.9867 -0.2585  0.8416
15291TIP3   OH267363   6.573   2.253  11.293  0.9746  0.4249 -0.2861
15291TIP3    H167364   6.575   2.180  11.230  2.0371  0.9991 -0.9402
15291TIP3    H267365   6.598   2.329  11.241  0.3679  1.1705  0.5140
15292TIP3   OH267366   5.595   6.557  17.172  0.2169  0.1212  0.8282
15292TIP3    H167367   5.621   6.513  17.252 -0.1934  0.5386  1.1921
15292TIP3    H267368   5.506   6.589  17.190 -0.1173 -0.3250 -0.0092
15293TIP3   OH267369   3.933   4.113   6.030 -0.0345 -0.0533  0.3372
15293TIP3    H167370   3.903   4.152   6.112 -1.8007 -0.3714 -0.1435
15293TIP3    H267371   3.869   4.045   6.010  0.3238  0.0801 -1.3652
15294TIP3   OH267372   3.045   0.256   5.200  0.0718  0.1933  0.0966
15294TIP3    H167373   3.101   0.237   5.125  1.2319  1.7038  0.5437
15294TIP3    H267374   2.972   0.306   5.164 -1.7346 -2.9177 -0.6960
15295TIP3   OH267375   3.392   3.873  15.313 -0.3300 -0.3364 -0.3151
15295TIP3    H167376   3.414   3.882  15.405  0.0835 -0.5636 -0.3913
15295TIP3    H267377   3.298   3.854  15.312 -0.0529 -1.7705  0.1341
15296TIP3   OH267378   1.110   6.801  16.184  0.0834 -0.0720 -0.3173
15296TIP3    H167379   1.200   6.775  16.205  0.1647  0.9010  0.6041
15296TIP3    H267380   1.105   6.796  16.089  0.5313 -1.9972 -0.2676
15297TIP3   OH267381   1.436   0.507   0.577  0.6824  0.9417 -0.2923
15297TIP3    H167382   1.526   0.500   0.545  0.4411 -1.6900 -0.5630
15297TIP3    H267383   1.444   0.553   0.661  2.5770 -1.0845  0.7225
15298TIP3   OH267384   2.184   4.901   4.435 -0.3892  0.3488 -0.0215
15298TIP3    H167385   2.111   4.840   4.423  0.1765 -0.1105 -1.1475
15298TIP3    H267386   2.153   4.984   4.399 -1.3089  0.8521  1.8749
15299TIP3   OH267387   2.308   2.482   0.628 -0.1027  0.3091 -0.2521
15299TIP3    H167388   2.399   2.497   0.602  0.2420  2.5044  2.0215
15299TIP3    H267389   2.315   2.435   0.711 -1.0994 -0.8071 -0.7787
15300TIP3   OH267390   3.732   1.978  12.962  0.1896  0.6300 -0.1698
15300TIP3    H167391   3.821   1.954  12.936 -0.4323 -0.2512 -1.5629
15300TIP3    H267392   3.724   2.070  12.937 -0.4531 -0.2328 -3.4508
15301TIP3   OH267393   4.446   2.919   1.742 -0.1696 -0.4352  0.4881
15301TIP3    H167394   4.444   2.957   1.830  0.5127  0.7470 -0.0096
15301TIP3    H267395   4.523   2.862   1.743  1.6951  2.0236 -0.3474
15302TIP3   OH267396   1.224   4.986  15.038  0.1690 -0.3390  0.4535
15302TIP3    H167397   1.270   4.914  14.994 -0.6377 -0.4467 -0.2028
15302TIP3    H267398   1.257   4.982  15.128  1.9330 -0.0129 -0.1453
15303TIP3   OH267399   0.440   5.443   4.917 -0.1297 -0.1593 -0.0200
15303TIP3    H167400   0.406   5.398   4.839  0.4388 -0.8187  0.1066
15303TIP3    H267401   0.362   5.465   4.967 -0.3524 -3.8351  1.4605
15304TIP3   OH267402   6.323   3.714  14.629 -0.0981 -0.2222 -0.0693
15304TIP3    H167403   6.227   3.716  14.626 -0.1105 -0.1467  0.3632
15304TIP3    H267404   6.347   3.636  14.578 -0.1845  2.5498 -4.6792
15305TIP3   OH267405   3.050   0.457  12.881  0.3857  0.3770 -0.3931
15305TIP3    H167406   3.133   0.483  12.922  1.4600  0.4355 -2.5221
15305TIP3    H267407   2.991   0.530  12.898  0.5562  0.0618  1.6891
15306TIP3   OH267408   0.675   6.774  17.163  0.1453 -0.3817  0.0630
15306TIP3    H167409   0.685   6.732  17.077 -0.3586  0.3253 -0.3445
15306TIP3    H267410   0.665   6.867  17.143  0.2390 -0.1910  0.9052
15307TIP3   OH267411   3.342   5.442   4.897 -0.3290  0.2947  0.0073
15307TIP3    H167412   3.259   5.491   4.896 -0.6768 -0.2823  0.2610
15307TIP3    H267413   3.327   5.367   4.840  0.7817  1.3904 -1.7697
15308TIP3   OH267414   0.995   5.725   0.547 -0.1890 -0.1827  0.1265
15308TIP3    H167415   1.086   5.738   0.575 -0.4846  2.0415  0.1173
15308TIP3    H267416   0.951   5.689   0.624  0.5147 -0.5389  0.3704
15309TIP3   OH267417   2.631   6.460  11.992 -0.0782  0.0205 -0.3804
15309TIP3    H167418   2.714   6.499  12.021  1.6577 -3.4274 -0.4736
15309TIP3    H267419   2.574   6.464  12.069  1.4705 -0.9763  0.8502
15310TIP3   OH267420   3.286   1.221   3.895 -0.2027  0.0650 -0.3387
15310TIP3    H167421   3.297   1.241   3.988  0.0582  1.6144 -0.6838
15310TIP3    H267422   3.292   1.306   3.852 -0.7313 -0.5975 -1.7376
15311TIP3   OH267423   2.508   3.110   3.376 -0.0470 -0.0981 -0.1477
15311TIP3    H167424   2.491   3.016   3.372  0.6660 -0.2149 -0.4650
15311TIP3    H267425   2.475   3.144   3.293 -0.8512  0.0324  0.2109
15312TIP3   OH267426   2.903   3.469   0.732 -0.3091  0.1160 -0.2021
15312TIP3    H167427   2.831   3.420   0.771  0.6212  0.2040  1.6860
15312TIP3    H267428   2.958   3.403   0.690 -0.0573 -0.2582  0.7073
15313TIP3   OH267429   1.851   3.562   3.279 -0.9934 -0.1339  0.1419
15313TIP3    H167430   1.891   3.475   3.273  0.6265  0.5586  0.7245
15313TIP3    H267431   1.835   3.575   3.372 -0.2680  0.6028  0.1740
15314TIP3   OH267432   0.477   5.579  14.820 -0.0380  0.1990  0.1161
15314TIP3    H167433   0.555   5.636  14.819  0.2727 -0.1389  2.2435
15314TIP3    H267434   0.407   5.635  14.787  0.4477  1.5625  1.3408
15315TIP3   OH267435   2.766   0.076   0.391  0.0081  0.6104 -0.4848
15315TIP3    H167436   2.682   0.098   0.432 -0.6611  0.4742 -1.7365
15315TIP3    H267437   2.831   0.100   0.456 -1.0280  0.2211  0.7177
15316TIP3   OH267438   5.223   1.862   4.503 -0.1629 -0.2289  0.1311
15316TIP3    H167439   5.280   1.837   4.575 -1.9112 -0.6714  1.3875
15316TIP3    H267440   5.281   1.905   4.440  2.0232 -3.0226  0.1580
15317TIP3   OH267441   0.916   0.152  12.200  0.1121 -0.5428  0.4650
15317TIP3    H167442   0.967   0.224  12.237  0.5997 -0.6173 -0.0528
15317TIP3    H267443   0.828   0.165  12.234  0.1372  0.4441  0.1816
15318TIP3   OH267444   0.382   0.273  12.520  0.3200  0.5904 -0.6719
15318TIP3    H167445   0.382   0.342  12.454 -0.2957  2.1158  0.8774
15318TIP3    H267446   0.384   0.192  12.470 -1.2731  1.6834 -2.6051
15319TIP3   OH267447   3.260   4.700  14.374  0.1849  0.5427  0.8328
15319TIP3    H167448   3.330   4.720  14.436  0.4538  0.9986  0.3958
15319TIP3    H267449   3.306   4.664  14.298 -0.2532 -1.1529  1.3620
15320TIP3   OH267450   3.054   5.039  16.835  0.2879 -0.5044  0.1456
15320TIP3    H167451   3.058   5.111  16.897 -1.3661  0.1455 -0.4687
15320TIP3    H267452   2.993   4.976  16.874 -0.6207 -0.1761 -0.7204
15321TIP3   OH267453   4.709   1.254   0.899  0.1305  0.1221 -0.4950
15321TIP3    H167454   4.676   1.319   0.961 -1.0527 -0.2593 -0.7159
15321TIP3    H267455   4.787   1.217   0.942  0.5009  1.2981 -0.1431
15322TIP3   OH267456   5.700   4.530   0.483  0.0075  0.7247  0.6779
15322TIP3    H167457   5.781   4.487   0.509 -0.6484  0.2502  2.0124
15322TIP3    H267458   5.681   4.497   0.395  0.3500 -0.4897  1.0596
15323TIP3   OH267459   2.803   1.706  17.103 -0.1041 -0.1213  0.1044
15323TIP3    H167460   2.872   1.688  17.039 -0.5059  0.9828 -0.6701
15323TIP3    H267461   2.829   1.788  17.144 -1.1626  0.5263 -0.4948
15324TIP3   OH267462   4.701   4.975  10.916 -0.1487 -0.5053  0.2380
15324TIP3    H167463   4.789   4.945  10.940 -0.3339 -0.7753  0.5980
15324TIP3    H267464   4.652   4.894  10.902 -0.3500 -0.3546  0.0894
15325TIP3   OH267465   3.486   5.645  14.540 -0.0147 -0.1645  0.1683
15325TIP3    H167466   3.410   5.696  14.567  0.3845  0.7110 -0.3312
15325TIP3    H267467   3.510   5.594  14.618 -0.1240  0.7815  0.8361
15326TIP3   OH267468   1.486   5.462  11.491 -0.0122 -0.3011  0.1887
15326TIP3    H167469   1.516   5.373  11.506 -2.0462 -1.2291 -1.0930
15326TIP3    H267470   1.392   5.454  11.473  0.2453  1.7966 -2.5082
15327TIP3   OH267471   0.752   2.706  16.399  0.0921 -0.4281 -0.4803
15327TIP3    H167472   0.815   2.669  16.336  0.4671  0.5498 -0.6928
15327TIP3    H267473   0.748   2.642  16.470 -0.8330 -1.8685 -1.8071
15328TIP3   OH267474   1.020   3.286  12.065  0.7013  0.2978 -0.1077
15328TIP3    H167475   1.084   3.239  12.118 -0.1089 -0.5470  0.1344
15328TIP3    H267476   1.010   3.233  11.986 -0.6240 -0.2425  0.4075
15329TIP3   OH267477   2.337   2.356  11.501  0.1518  1.0139 -0.1148
15329TIP3    H167478   2.262   2.408  11.472 -0.0680  0.7745  0.0174
15329TIP3    H267479   2.341   2.368  11.595 -1.6160 -1.3995  0.3265
15330TIP3   OH267480   2.341   5.992   6.695 -0.6299 -0.1993  0.3383
15330TIP3    H167481   2.337   6.064   6.632  0.3791 -0.0439  0.4376
15330TIP3    H267482   2.267   6.006   6.754 -1.7865 -0.5262 -0.9969
15331TIP3   OH267483   0.267   2.565   4.713 -0.1102 -0.3910 -0.2515
15331TIP3    H167484   0.308   2.538   4.631 -0.0889 -2.7022  0.4711
15331TIP3    H267485   0.191   2.507   4.722 -1.8899  1.8750 -0.1162
15332TIP3   OH267486   1.600   4.993  15.033 -0.8624  0.0822 -0.0426
15332TIP3    H167487   1.613   5.025  15.122 -0.9180 -1.6701  0.6067
15332TIP3    H267488   1.624   5.067  14.977 -0.1278  0.9512  1.4080
15333TIP3   OH267489   2.720   4.792   5.659  0.1004  0.2531  0.4854
15333TIP3    H167490   2.641   4.779   5.607 -0.7417  1.2074  1.4851
15333TIP3    H267491   2.720   4.886   5.679  1.3600  0.2193  0.7003
15334TIP3   OH267492   5.827   4.761   5.208  0.2402 -0.8091  0.4009
15334TIP3    H167493   5.906   4.731   5.253 -0.2176 -1.6355  0.6590
15334TIP3    H267494   5.835   4.857   5.207  0.9437 -0.8564  0.9694
15335TIP3   OH267495   5.912   0.027  13.736  0.1986 -0.1599  0.1240
15335TIP3    H167496   5.946  -0.057  13.705 -0.5613 -0.5134  0.2416
15335TIP3    H267497   5.972   0.092  13.700  1.9362 -0.8830  1.6445
15336TIP3   OH267498   6.659   6.513   5.494  0.8317 -0.3231 -0.4009
15336TIP3    H167499   6.572   6.480   5.473  0.3712  0.0733  0.8433
15336TIP3    H267500   6.643   6.593   5.545  1.9157  1.2978 -2.4894
15337TIP3   OH267501   5.457   4.423   1.005  0.6232  0.1621  0.2690
15337TIP3    H167502   5.516   4.369   0.952  0.4370  0.3806 -0.1605
15337TIP3    H267503   5.503   4.434   1.088  0.2778 -1.4044  0.6860
15338TIP3   OH267504   3.913   2.270   3.055  0.1504  0.0141 -0.0004
15338TIP3    H167505   3.985   2.224   3.012  0.8344  0.2358  0.8972
15338TIP3    H267506   3.921   2.361   3.023 -0.5739 -0.2508 -0.9669
15339TIP3   OH267507   2.972   4.202   4.152 -0.2379 -0.0685 -0.0690
15339TIP3    H167508   2.921   4.123   4.132  0.9552 -0.4147 -1.8840
15339TIP3    H267509   2.910   4.274   4.137 -0.6210 -0.5521 -0.8506
15340TIP3   OH267510   3.752   0.480  15.789  0.1144 -0.2762 -0.1363
15340TIP3    H167511   3.745   0.472  15.694  2.4919 -0.0360 -0.3568
15340TIP3    H267512   3.699   0.557  15.810  2.0939  1.5888 -1.6844
15341TIP3   OH267513   0.288   6.240   2.088  0.2883 -0.3423  0.3659
15341TIP3    H167514   0.245   6.211   2.169  0.5780  1.6885  1.2873
15341TIP3    H267515   0.379   6.214   2.099 -0.3263 -3.1262 -0.8392
15342TIP3   OH267516   5.032   4.620   1.644  0.5416  0.0587  0.6669
15342TIP3    H167517   5.074   4.689   1.694 -0.9123  1.3239  0.1782
15342TIP3    H267518   5.094   4.600   1.574 -0.6415  3.6639 -1.5491
15343TIP3   OH267519   0.844   0.649   1.666  0.3687  0.0563  0.4337
15343TIP3    H167520   0.752   0.675   1.658  0.6617  1.8965  2.4239
15343TIP3    H267521   0.857   0.584   1.597 -2.9325 -1.6724  1.3288
15344TIP3   OH267522   1.015   6.235  11.112 -0.0491 -0.3526 -0.2886
15344TIP3    H167523   1.101   6.216  11.075 -1.6562 -2.3872 -3.2173
15344TIP3    H267524   0.990   6.155  11.159 -0.2315  0.3401  0.8233
15345TIP3   OH267525   6.781   2.024   1.545 -0.2321  0.4469 -0.0155
15345TIP3    H167526   6.815   2.088   1.608  0.4563 -0.8852  0.9959
15345TIP3    H267527   6.734   1.960   1.599 -1.7434  0.6152 -1.1103
15346TIP3   OH267528   5.437   2.102  13.960 -0.2669  0.0773  0.2704
15346TIP3    H167529   5.487   2.021  13.969 -2.8772 -1.5133  0.9730
15346TIP3    H267530   5.495   2.170  13.994  2.0680 -1.4501 -0.5724
15347TIP3   OH267531   5.681   5.841   1.015 -0.2295 -0.2985 -0.1209
15347TIP3    H167532   5.683   5.746   1.011 -0.6088 -0.3524  0.6843
15347TIP3    H267533   5.682   5.870   0.924 -0.0407 -1.0699 -0.3631
15348TIP3   OH267534   0.662   2.574  15.858  0.0335  0.6865 -0.0666
15348TIP3    H167535   0.649   2.493  15.809 -0.7790  0.4903  0.4647
15348TIP3    H267536   0.751   2.567  15.893 -0.0274  0.0387 -0.0436
15349TIP3   OH267537   4.083   0.933   5.769  0.4816 -0.2571  0.3240
15349TIP3    H167538   4.025   0.971   5.834  2.0927  0.8484  1.1136
15349TIP3    H267539   4.024   0.885   5.710 -1.2151  0.7748  1.1620
15350TIP3   OH267540   5.576   5.062  17.029  0.2341 -0.1882  0.1753
15350TIP3    H167541   5.579   5.011  17.110  2.4827  0.5029  0.5890
15350TIP3    H267542   5.551   5.150  17.057  2.0456  0.3128  0.3130
15351TIP3   OH267543   1.536   4.530  15.708 -0.4104 -0.1855  0.1453
15351TIP3    H167544   1.630   4.511  15.718 -0.4214 -0.4835 -0.3204
15351TIP3    H267545   1.524   4.613  15.753 -0.1076 -0.6293  1.0639
15352TIP3   OH267546   0.118   1.762   0.488 -0.0726 -0.2526 -0.1185
15352TIP3    H167547   0.059   1.794   0.419 -0.1633 -1.2330 -0.5011
15352TIP3    H267548   0.088   1.672   0.505  2.0444 -1.1938 -1.1555
15353TIP3   OH267549   4.400   4.020   0.824  0.2050  0.0814 -0.2549
15353TIP3    H167550   4.389   4.035   0.731  0.0482  0.5851 -0.1540
15353TIP3    H267551   4.356   3.936   0.841  0.0880  0.0764 -0.5957
15354TIP3   OH267552   3.112   1.082   5.842 -0.2255  0.8930  0.2217
15354TIP3    H167553   3.076   1.083   5.931 -4.6257  1.9553 -1.4436
15354TIP3    H267554   3.129   0.990   5.824 -0.9441  0.4903  1.5612
15355TIP3   OH267555   5.912   6.735  12.239  0.4550  0.3519  0.8395
15355TIP3    H167556   5.836   6.740  12.297 -1.1716  0.1419 -1.2134
15355TIP3    H267557   5.957   6.819  12.251  0.4035  0.1372  2.7022
15356TIP3   OH267558   2.992   2.582   0.746 -0.2626  0.1995  0.1519
15356TIP3    H167559   3.069   2.594   0.689  0.7550 -0.5223  1.3423
15356TIP3    H267560   2.991   2.488   0.766 -1.8551  0.0875 -0.3846
15357TIP3   OH267561   0.014   1.597   5.219 -0.1530 -0.5378 -0.4226
15357TIP3    H167562   0.063   1.661   5.168  0.5749 -2.0622 -1.6841
15357TIP3    H267563   0.076   1.569   5.287 -0.8509  0.9055  0.8207
15358TIP3   OH267564   4.734   5.657  13.371 -0.1332  0.0532  0.5796
15358TIP3    H167565   4.716   5.563  13.375  0.4390 -0.0688  0.3766
15358TIP3    H267566   4.658   5.698  13.411 -0.3934 -0.4980  0.6523
15359TIP3   OH267567   0.569   1.620  13.743 -0.1213  0.0058  0.4560
15359TIP3    H167568   0.656   1.594  13.771 -0.5016  0.1884  1.8538
15359TIP3    H267569   0.518   1.539  13.740  0.4004 -0.2646 -1.5312
15360TIP3   OH267570   5.238   3.613  14.740  0.3798 -0.4832  0.8902
15360TIP3    H167571   5.234   3.680  14.808  0.1557  1.4553 -1.0081
15360TIP3    H267572   5.151   3.615  14.700  0.1697 -2.3471  1.1852
15361TIP3   OH267573   2.864   4.341   1.861 -1.0147 -0.3125  0.0330
15361TIP3    H167574   2.919   4.385   1.927 -1.6809  0.1599  0.2775
15361TIP3    H267575   2.926   4.313   1.794 -0.3769 -0.4394  0.6647
15362TIP3   OH267576   0.433   6.558   2.777 -0.5985 -0.4952 -0.6520
15362TIP3    H167577   0.388   6.598   2.852  0.1118  1.6249 -1.3443
15362TIP3    H267578   0.362   6.522   2.724 -1.3687  1.1440 -0.7647
15363TIP3   OH267579   5.155   6.548  14.354  0.6416 -0.4424  0.1080
15363TIP3    H167580   5.146   6.532  14.448 -0.0502  0.3489  0.1806
15363TIP3    H267581   5.066   6.558  14.323  0.9442  0.7772 -0.3744
15364TIP3   OH267582   1.027   1.516  11.252  0.4397  0.5975  0.0864
15364TIP3    H167583   0.992   1.428  11.236  0.0153  0.6330  0.7766
15364TIP3    H267584   1.096   1.526  11.188  1.0751 -0.5870  0.5555
15365TIP3   OH267585   6.420   4.447  12.882 -0.2994  0.3220 -0.4734
15365TIP3    H167586   6.333   4.409  12.886  0.5595 -1.5128  2.8206
15365TIP3    H267587   6.412   4.529  12.932 -0.4938  1.0043 -1.5990
15366TIP3   OH267588   4.232   4.326  12.468  0.2511  0.2647 -0.3919
15366TIP3    H167589   4.263   4.400  12.521 -1.1075  1.2584 -0.9651
15366TIP3    H267590   4.155   4.293  12.515  0.0917  0.0250 -0.8182
15367TIP3   OH267591   4.535   6.576   2.927  0.4886  0.0403  0.2349
15367TIP3    H167592   4.587   6.544   2.853 -1.2780 -0.7170 -0.7125
15367TIP3    H267593   4.572   6.532   3.004  0.6273 -1.2430 -0.5554
15368TIP3   OH267594   3.580   3.198  14.506  0.1269 -1.1391 -0.2207
15368TIP3    H167595   3.536   3.122  14.544  1.3764 -1.4890  0.5295
15368TIP3    H267596   3.626   3.239  14.579 -0.2576  0.1494 -0.6904
15369TIP3   OH267597   2.078   2.145  13.144 -0.2808 -0.5537 -0.4672
15369TIP3    H167598   2.099   2.097  13.063 -2.5433 -0.2058 -1.2773
15369TIP3    H267599   2.121   2.230  13.132 -0.9942 -0.3238 -1.5459
15370TIP3   OH267600   6.397   3.984   2.266  0.2600 -0.1975 -0.7720
15370TIP3    H167601   6.477   3.936   2.285 -0.4979 -1.2428 -0.1570
15370TIP3    H267602   6.386   4.044   2.340 -1.5172 -2.7175  1.0766
15371TIP3   OH267603   3.399   1.901  15.219  0.2800  0.4336 -0.2611
15371TIP3    H167604   3.336   1.974  15.217 -1.6260 -1.1909 -0.9628
15371TIP3    H267605   3.467   1.930  15.280 -0.6469  2.6299 -0.2046
15372TIP3   OH267606   1.644   3.148  12.334  0.8194  0.5656  0.0335
15372TIP3    H167607   1.692   3.065  12.336 -0.9729 -0.5699 -1.7743
15372TIP3    H267608   1.588   3.146  12.412  2.1420  0.9526  1.0099
15373TIP3   OH267609   1.309   2.091   3.379  0.1884 -0.3128 -0.0272
15373TIP3    H167610   1.371   2.040   3.326 -1.3650 -2.8776  0.5205
15373TIP3    H267611   1.227   2.041   3.374 -0.7458  0.9064  2.4533
15374TIP3   OH267612   4.856   1.844   5.365  0.1803  0.3104  0.4795
15374TIP3    H167613   4.947   1.863   5.389  0.2594  0.9858 -0.3301
15374TIP3    H267614   4.805   1.870   5.442  0.4546  2.2773  0.0295
15375TIP3   OH267615   5.011   2.943   4.578 -0.1836 -0.4775  0.7859
15375TIP3    H167616   4.958   2.878   4.531 -0.3598 -0.8574  1.5080
15375TIP3    H267617   4.948   3.009   4.607 -0.2782 -0.9937  1.7532
15376TIP3   OH267618   5.559   1.880  14.613  0.0287  0.8395  0.5963
15376TIP3    H167619   5.511   1.961  14.598 -1.4449 -0.3589 -1.3075
15376TIP3    H267620   5.613   1.870  14.535  1.2750  0.6933  1.4576
15377TIP3   OH267621   5.747   6.150   4.654 -0.3494  0.1082 -0.5434
15377TIP3    H167622   5.737   6.133   4.748 -0.5678  0.3550 -0.5228
15377TIP3    H267623   5.841   6.143   4.639 -0.2399  0.7423 -0.1783
15378TIP3   OH267624   5.005   0.977   4.563 -0.0237 -0.0043  0.4685
15378TIP3    H167625   4.977   0.968   4.654 -0.5373  1.9535  0.5100
15378TIP3    H267626   5.101   0.987   4.568 -0.0783  0.3477  0.8131
15379TIP3   OH267627   0.438   1.366   3.086  0.2780  0.2032  0.3084
15379TIP3    H167628   0.382   1.398   3.157  1.6698  3.3015  0.0549
15379TIP3    H267629   0.494   1.300   3.127 -0.2207  0.6072  1.6593
15380TIP3   OH267630   1.165   1.691  12.401 -0.2011  0.5541 -0.4684
15380TIP3    H167631   1.072   1.682  12.378  0.1351  0.6520 -1.8755
15380TIP3    H267632   1.168   1.672  12.495 -2.0255  3.1073  0.1662
15381TIP3   OH267633   4.321   4.319  11.414  0.0929 -0.2892  0.1029
15381TIP3    H167634   4.403   4.332  11.367 -1.5394  1.5225 -2.3277
15381TIP3    H267635   4.326   4.379  11.489  1.0265 -0.2987  0.0511
15382TIP3   OH267636   4.794   3.298   0.634  0.1625  0.2823  0.1587
15382TIP3    H167637   4.729   3.325   0.698 -1.1022  0.6518 -1.2597
15382TIP3    H267638   4.838   3.223   0.674 -1.4123 -0.2291  0.9516
15383TIP3   OH267639   1.834   4.112   3.938  0.1331  0.2916  0.2249
15383TIP3    H167640   1.820   4.036   3.994  0.7281  0.7821  1.0411
15383TIP3    H267641   1.771   4.177   3.968 -0.3074  0.1645 -0.4086
15384TIP3   OH267642   2.846   5.119   0.759 -0.0723 -0.0796 -0.1187
15384TIP3    H167643   2.864   5.137   0.667 -0.5312  0.9679 -0.0040
15384TIP3    H267644   2.912   5.054   0.784  1.4317  1.2344 -0.6067
15385TIP3   OH267645   1.844   0.286   1.638 -0.3280  0.4074 -0.1972
15385TIP3    H167646   1.754   0.298   1.606  0.3778  1.6451 -1.7957
15385TIP3    H267647   1.842   0.201   1.682 -1.9619 -0.2058 -1.3840
15386TIP3   OH267648   4.218   1.362  13.755 -0.5065  0.0274  0.0334
15386TIP3    H167649   4.267   1.386  13.677 -3.0525  0.0945 -1.5907
15386TIP3    H267650   4.284   1.323  13.813  1.2387 -1.0690 -2.5728
15387TIP3   OH267651   4.809   4.169  17.197 -0.0343  0.2380 -0.1806
15387TIP3    H167652   4.870   4.217  17.141 -1.0495  2.0217  0.2057
15387TIP3    H267653   4.820   4.209  17.283 -0.8631 -0.2708  0.1612
15388TIP3   OH267654   0.710   1.395  11.266 -0.1660 -0.2517  0.4710
15388TIP3    H167655   0.793   1.347  11.266 -0.4488 -0.7680 -1.2994
15388TIP3    H267656   0.648   1.337  11.311  0.2716 -0.1243  1.2499
15389TIP3   OH267657   2.167   6.024  11.850 -0.0377  0.7311 -0.1337
15389TIP3    H167658   2.124   6.103  11.882  0.2517  0.9492 -0.2789
15389TIP3    H267659   2.196   6.047  11.761  2.7582  1.4911  0.9308
15390TIP3   OH267660   4.513   4.232  14.869 -0.1760 -0.1206 -0.2965
15390TIP3    H167661   4.527   4.227  14.963 -0.5523  0.8334 -0.1920
15390TIP3    H267662   4.473   4.317  14.854  0.1197 -0.1541 -1.3498
15391TIP3   OH267663   1.159   1.625   0.959  0.4753  0.3636  0.0400
15391TIP3    H167664   1.102   1.623   0.882 -0.2604 -0.7196  0.5964
15391TIP3    H267665   1.134   1.547   1.009  2.0231  0.2157  0.5976
15392TIP3   OH267666   2.946   3.976  15.040  0.4936 -0.0903  0.2313
15392TIP3    H167667   2.865   3.926  15.042  0.1642  0.4674  1.2300
15392TIP3    H267668   2.927   4.055  15.091  0.9100  1.1832 -1.5276
15393TIP3   OH267669   4.095   3.583   0.280  0.2070  0.3272 -0.1152
15393TIP3    H167670   4.005   3.610   0.296 -0.3712 -2.0096  0.8006
15393TIP3    H267671   4.109   3.599   0.187 -1.8619 -1.2517 -0.7190
15394TIP3   OH267672   1.854   2.844   1.272  0.3881  0.1266 -0.2425
15394TIP3    H167673   1.794   2.913   1.243 -0.5622 -0.9090 -0.7825
15394TIP3    H267674   1.820   2.817   1.357 -0.1425 -0.7170 -0.7150
15395TIP3   OH267675   3.722   5.613   0.092 -0.4796 -0.1560  0.2565
15395TIP3    H167676   3.788   5.668   0.133 -0.5021 -0.3483  0.5518
15395TIP3    H267677   3.663   5.674   0.048  0.3841 -0.0302 -0.7301
15396TIP3   OH267678   1.446   1.139   0.624 -1.1063 -0.0925 -0.3672
15396TIP3    H167679   1.461   1.215   0.679  0.6757  0.8408 -2.0933
15396TIP3    H267680   1.440   1.174   0.535 -2.3869 -1.7418 -0.9681
15397TIP3   OH267681   6.024   6.677   2.558 -0.3762 -0.7371  0.0727
15397TIP3    H167682   6.012   6.644   2.469 -0.2343  0.9323 -0.5779
15397TIP3    H267683   6.118   6.676   2.571 -0.4026 -1.0656  0.2398
15398TIP3   OH267684   6.094   4.552   1.822  0.0851  0.2047 -0.2768
15398TIP3    H167685   6.002   4.566   1.844  0.0626  0.6847 -0.6761
15398TIP3    H267686   6.093   4.525   1.730  0.2610 -0.8126  0.0125
15399TIP3   OH267687   6.767   2.602   2.826 -0.2216 -0.6093  0.0288
15399TIP3    H167688   6.823   2.566   2.757 -1.8311 -0.1543 -1.5448
15399TIP3    H267689   6.708   2.531   2.850 -0.0239 -0.5989  0.5580
15400TIP3   OH267690   1.687   3.457   4.692 -0.1903  0.1263 -0.8115
15400TIP3    H167691   1.736   3.376   4.679  0.2746  0.5788 -1.9080
15400TIP3    H267692   1.620   3.434   4.757 -0.2042 -1.1895 -1.2786
15401TIP3   OH267693   2.428   6.818   1.881 -0.1847  0.0414  0.5571
15401TIP3    H167694   2.511   6.782   1.910 -1.1380 -1.7374  1.1356
15401TIP3    H267695   2.447   6.855   1.794  0.9195 -1.4645  0.1363
15402TIP3   OH267696   1.059   1.445  16.705  0.2893  0.5252  0.2684
15402TIP3    H167697   1.152   1.437  16.727  0.5881  2.4640 -0.1693
15402TIP3    H267698   1.013   1.422  16.786  1.0723 -2.4882 -0.0987
15403TIP3   OH267699   5.312   3.594  16.973  0.6093 -0.0778 -0.0569
15403TIP3    H167700   5.294   3.687  16.962  0.9217 -0.0047  0.0659
15403TIP3    H267701   5.354   3.587  17.059 -1.1000 -0.5452  0.7829
15404TIP3   OH267702   1.802   4.838  16.278  0.2057  0.4475  0.5195
15404TIP3    H167703   1.761   4.770  16.224  1.5222 -0.6632  0.8814
15404TIP3    H267704   1.809   4.798  16.365  0.9891  1.0479  0.7366
15405TIP3   OH267705   5.576   3.063   2.916 -0.2939  0.1930  0.3283
15405TIP3    H167706   5.652   3.005   2.925 -0.3301 -0.0731 -1.0048
15405TIP3    H267707   5.592   3.111   2.835 -0.1490  2.2496  1.5406
15406TIP3   OH267708   4.651   5.040  13.251  0.4608 -0.2249  0.4570
15406TIP3    H167709   4.680   4.950  13.261 -0.8181 -0.8230 -1.0191
15406TIP3    H267710   4.612   5.062  13.336 -0.6271 -1.5930  0.3276
15407TIP3   OH267711   4.128   4.338   0.981 -0.2798 -0.1218  0.1783
15407TIP3    H167712   4.124   4.404   1.051 -1.0805  2.1059 -1.8876
15407TIP3    H267713   4.116   4.388   0.901  0.4295 -2.6578 -1.5640
15408TIP3   OH267714   5.483   4.626  11.132  0.4067 -0.2094 -0.2743
15408TIP3    H167715   5.481   4.610  11.038 -2.3963  1.1343 -0.4828
15408TIP3    H267716   5.398   4.596  11.164  0.8842  0.3910  1.6432
15409TIP3   OH267717   1.044   1.523   2.854  0.5384 -0.1718  0.2939
15409TIP3    H167718   1.022   1.569   2.773  0.0578 -3.1352 -1.3449
15409TIP3    H267719   1.137   1.544   2.869 -0.0856  2.5764  0.5087
15410TIP3   OH267720   2.655   2.241   3.002 -0.7107 -0.1722  0.1084
15410TIP3    H167721   2.652   2.227   3.097  0.9367 -1.0241  0.0564
15410TIP3    H267722   2.639   2.154   2.964 -1.5869  0.2084 -0.3939
15411TIP3   OH267723   4.036   3.477  12.864  0.0321 -0.1600 -0.3561
15411TIP3    H167724   4.073   3.557  12.902  1.2853 -0.3841 -1.0741
15411TIP3    H267725   4.105   3.444  12.806 -1.1882 -0.7545 -1.4965
15412TIP3   OH267726   2.850   3.394  13.625  0.3300  0.0741 -0.3519
15412TIP3    H167727   2.874   3.359  13.539 -0.7968  1.4248 -1.2458
15412TIP3    H267728   2.758   3.419  13.615 -0.4900 -1.9389  1.9763
15413TIP3   OH267729   3.584   1.683  14.685  0.3476  0.6690  0.2911
15413TIP3    H167730   3.635   1.765  14.692 -1.1329  1.6308 -0.0079
15413TIP3    H267731   3.650   1.614  14.694  1.9191  1.8741 -1.4992
15414TIP3   OH267732   4.302   4.196   1.979 -0.0452 -0.0733 -0.7481
15414TIP3    H167733   4.358   4.226   2.050 -0.0786  0.9917 -1.1663
15414TIP3    H267734   4.359   4.198   1.901 -0.7283  1.2496 -1.2203
15415TIP3   OH267735   3.980   2.725   4.050 -0.4050 -0.3706 -0.2586
15415TIP3    H167736   4.044   2.669   4.094 -0.2205 -0.6649 -0.8895
15415TIP3    H267737   4.015   2.736   3.962 -0.4018  0.8113 -0.1179
15416TIP3   OH267738   4.101   6.320  11.130  0.3270 -0.6860 -0.3891
15416TIP3    H167739   4.113   6.248  11.069  1.7545 -0.4297 -0.4270
15416TIP3    H267740   4.189   6.340  11.161 -0.2000  0.2392  0.5378
15417TIP3   OH267741   2.177   4.577  11.857 -0.5627 -0.1096 -0.1652
15417TIP3    H167742   2.170   4.641  11.786 -1.7651  0.8936  0.8302
15417TIP3    H267743   2.246   4.517  11.829  0.2340  1.3365 -1.3516
15418TIP3   OH267744   1.329   3.454  15.006 -1.2494  0.1690 -0.2371
15418TIP3    H167745   1.245   3.499  15.011 -0.3791  1.8691 -0.6598
15418TIP3    H267746   1.365   3.479  14.921 -0.6753 -1.1931 -0.4042
15419TIP3   OH267747   2.997   4.581  16.482  0.4710 -0.2474 -0.0751
15419TIP3    H167748   3.089   4.568  16.507  0.9105 -1.1102 -2.0609
15419TIP3    H267749   2.966   4.494  16.459 -1.2582 -0.1667  1.8585
15420TIP3   OH267750   3.595   3.657   6.717  0.0619  0.0122  0.1286
15420TIP3    H167751   3.575   3.751   6.712 -0.6416 -0.2173 -2.3221
15420TIP3    H267752   3.690   3.653   6.719  0.1599  0.7740 -1.5880
15421TIP3   OH267753   6.645   3.042  12.539  0.6085 -0.6048  0.1389
15421TIP3    H167754   6.739   3.057  12.543  0.5864 -0.4965  0.2848
15421TIP3    H267755   6.626   2.992  12.619  0.5691 -0.7644  0.0290
15422TIP3   OH267756   1.154   1.429   3.914  0.1317  0.1829  0.1946
15422TIP3    H167757   1.139   1.492   3.985  0.8038 -1.1314  1.5162
15422TIP3    H267758   1.103   1.463   3.841 -1.2248  1.1133  1.5569
15423TIP3   OH267759   0.231   6.136  10.483  0.2668  0.2127 -0.2905
15423TIP3    H167760   0.318   6.165  10.455 -0.0855  1.0884 -0.5193
15423TIP3    H267761   0.224   6.046  10.454  0.7796  0.4098 -1.0323
15424TIP3   OH267762   4.309   0.376  14.979 -0.1604 -0.2669 -0.0955
15424TIP3    H167763   4.261   0.399  14.899  1.7046  0.1769 -1.1428
15424TIP3    H267764   4.372   0.447  14.990 -0.1822 -0.4914  1.6138
15425TIP3   OH267765   3.315   4.500  15.979 -0.5341 -0.0758 -0.2871
15425TIP3    H167766   3.319   4.422  15.924  0.9879 -0.3600  0.2033
15425TIP3    H267767   3.406   4.521  15.998 -0.9070  1.8612 -0.4610
15426TIP3   OH267768   2.534   6.076  11.687 -0.3563  0.1533  0.2260
15426TIP3    H167769   2.443   6.048  11.671  0.0623 -0.1694 -1.6590
15426TIP3    H267770   2.587   6.003  11.655  0.5791  0.4437  1.1181
15427TIP3   OH267771   1.871   6.486   3.951  0.2028  0.0935  0.4925
15427TIP3    H167772   1.848   6.400   3.987  2.0393 -1.0524 -0.9867
15427TIP3    H267773   1.962   6.499   3.976  0.4646  0.8043 -0.7624
15428TIP3   OH267774   3.190   5.318   2.246 -0.4340 -0.1246 -0.1194
15428TIP3    H167775   3.195   5.413   2.256  0.9252 -0.0770 -1.1934
15428TIP3    H267776   3.248   5.283   2.314 -1.9723 -0.2556  1.1694
15429TIP3   OH267777   2.906   5.337  14.640 -0.3371 -0.4706 -0.2885
15429TIP3    H167778   2.986   5.360  14.687 -0.9201  0.2705  0.3534
15429TIP3    H267779   2.867   5.266  14.692 -0.8940  0.2346  0.2779
15430TIP3   OH267780   6.568   1.579  11.841  0.2088  0.7373 -0.3180
15430TIP3    H167781   6.576   1.674  11.848  0.5916  0.7099 -0.3290
15430TIP3    H267782   6.603   1.547  11.924 -1.6534  0.6793  0.4538
15431TIP3   OH267783   0.337   6.390   3.176 -0.0975  0.8295 -0.1672
15431TIP3    H167784   0.295   6.402   3.090  1.9494 -0.9989 -1.4760
15431TIP3    H267785   0.281   6.326   3.220 -0.1204  0.3448 -0.8858
15432TIP3   OH267786   6.456   3.813  12.070  0.3732 -0.4175  0.0720
15432TIP3    H167787   6.448   3.907  12.060  1.4617 -0.2485  0.7196
15432TIP3    H267788   6.469   3.799  12.164 -0.2923 -1.2461  0.0463
15433TIP3   OH267789   2.223   4.980  12.628  0.0973  0.3177 -0.1235
15433TIP3    H167790   2.152   5.034  12.592  0.8456  0.6685 -1.0997
15433TIP3    H267791   2.303   5.030  12.609  0.7428 -0.8008 -0.4063
15434TIP3   OH267792   1.557   6.359  15.821  0.4012  0.4083  0.3786
15434TIP3    H167793   1.481   6.349  15.765  0.3908  0.4760  0.3801
15434TIP3    H267794   1.604   6.277  15.812  1.2607  1.0190 -1.0145
15435TIP3   OH267795   1.705   4.570   1.058  0.3702 -0.3074  0.1760
15435TIP3    H167796   1.789   4.523   1.051  0.2031 -0.8196  1.3836
15435TIP3    H267797   1.726   4.647   1.111  0.0894 -0.3930  0.4069
15436TIP3   OH267798   3.916   6.439  14.326 -0.2944  0.0873  0.1928
15436TIP3    H167799   3.846   6.385  14.363 -0.2878  0.3580  0.5949
15436TIP3    H267800   3.871   6.505  14.274 -0.2839 -0.6960 -0.8372
15437TIP3   OH267801   3.989   2.634  15.485  0.2241 -0.1458 -0.1874
15437TIP3    H167802   3.983   2.637  15.580  1.8941 -1.1521 -0.0255
15437TIP3    H267803   3.899   2.625  15.455 -0.3525  0.5991  1.2697
15438TIP3   OH267804   1.935   5.027  12.751  0.1785  0.6202 -0.0500
15438TIP3    H167805   1.978   5.102  12.793  0.8867 -0.1563  0.6334
15438TIP3    H267806   2.000   4.957  12.755 -0.5068 -0.0575 -0.6266
15439TIP3   OH267807   2.443   4.620  14.170 -0.3874 -0.5488 -0.1727
15439TIP3    H167808   2.506   4.595  14.103 -0.0747 -1.2106  0.3556
15439TIP3    H267809   2.435   4.715  14.162  0.6436 -0.4628 -0.2813
15440TIP3   OH267810   2.579   4.781   2.902  0.3813 -0.0781 -0.1340
15440TIP3    H167811   2.672   4.805   2.907  0.4092 -0.2989  0.4602
15440TIP3    H267812   2.544   4.836   2.832 -0.2604  4.1002  3.2101
15441TIP3   OH267813   3.622   6.336   3.115 -0.4785  0.2840  0.0611
15441TIP3    H167814   3.636   6.267   3.181 -2.3782  0.7500  0.9888
15441TIP3    H267815   3.651   6.416   3.158 -0.0421  0.3474 -0.3414
15442TIP3   OH267816   2.926   1.647  16.134  0.0665 -0.0114  0.3059
15442TIP3    H167817   2.993   1.679  16.195  1.4487  2.5614 -2.4641
15442TIP3    H267818   2.976   1.598  16.068 -1.1358 -0.5691 -0.1996
15443TIP3   OH267819   6.431   4.056  16.284 -0.6738 -0.3221  0.4123
15443TIP3    H167820   6.398   3.977  16.242  0.2718 -0.3891 -0.2035
15443TIP3    H267821   6.387   4.128  16.237 -0.3516 -0.4280 -0.0471
15444TIP3   OH267822   5.143   3.433  16.304  0.0960 -0.5212 -0.3959
15444TIP3    H167823   5.177   3.345  16.322  2.1738  0.1865 -0.7185
15444TIP3    H267824   5.048   3.423  16.308  0.1519 -3.4419 -3.3288
15445TIP3   OH267825   5.426   0.999   4.612 -0.0180 -0.1471 -0.1548
15445TIP3    H167826   5.438   0.980   4.705 -3.1787 -1.2423  0.0771
15445TIP3    H267827   5.415   1.094   4.607 -3.0523 -0.4114  1.0108
15446TIP3   OH267828   6.759   0.909  15.175  0.6245  0.1596  0.2238
15446TIP3    H167829   6.666   0.931  15.174 -0.0665 -2.2530  2.7060
15446TIP3    H267830   6.766   0.833  15.117  0.6824 -0.8571  1.5494
15447TIP3   OH267831   6.158   4.024  15.054  0.1085 -0.2422  0.1369
15447TIP3    H167832   6.110   4.106  15.067 -1.5928 -0.9390 -1.4990
15447TIP3    H267833   6.250   4.048  15.069 -0.4526  1.7472  0.6178
15448TIP3   OH267834   0.348   4.761   4.673 -0.2531  0.7093 -0.1898
15448TIP3    H167835   0.277   4.783   4.733  0.2395  1.1045  0.2555
15448TIP3    H267836   0.380   4.846   4.641 -0.0407  0.5298 -0.4573
15449TIP3   OH267837   6.221   3.129   3.677  0.1223 -0.5022 -0.1017
15449TIP3    H167838   6.268   3.195   3.727  1.8321 -1.7831  0.0328
15449TIP3    H267839   6.289   3.074   3.639 -1.2503 -2.6203  0.3554
15450TIP3   OH267840   3.486   2.189   2.578  0.3478 -0.6266  0.2029
15450TIP3    H167841   3.465   2.096   2.581  0.6489 -0.7125 -0.2336
15450TIP3    H267842   3.471   2.214   2.486 -0.6623 -0.0231  0.5281
15451TIP3   OH267843   2.239   2.748  11.734  0.3792  0.4215 -0.9622
15451TIP3    H167844   2.203   2.831  11.767  0.5737  0.5749 -1.1331
15451TIP3    H267845   2.304   2.723  11.800 -0.3785 -0.1055 -0.4054
15452TIP3   OH267846   4.601   0.121   5.039 -0.3463  0.0315  0.6998
15452TIP3    H167847   4.657   0.048   5.011  0.4675  0.4493  1.2533
15452TIP3    H267848   4.512   0.088   5.024  0.0303 -0.5999 -0.2716
15453TIP3   OH267849   2.499   1.763   0.586 -0.2630 -0.1939 -0.1011
15453TIP3    H167850   2.499   1.835   0.650 -1.9006 -0.1030 -0.2042
15453TIP3    H267851   2.571   1.706   0.615  1.3127  1.6678 -0.2361
15454TIP3   OH267852   5.251   6.505   3.508 -0.1504  0.3975  0.3640
15454TIP3    H167853   5.345   6.492   3.492 -0.2945  0.2084 -0.3672
15454TIP3    H267854   5.246   6.532   3.599  0.4439 -1.7373  1.0618
15455TIP3   OH267855   6.372   3.549  15.325 -0.4915 -0.3199  0.1608
15455TIP3    H167856   6.317   3.541  15.247  0.7137 -0.2495 -0.7242
15455TIP3    H267857   6.360   3.639  15.354 -0.2585 -0.0754 -0.4857
15456TIP3   OH267858   0.934   5.805   1.424 -0.3512  0.2328 -0.4396
15456TIP3    H167859   0.885   5.850   1.493  0.0427  0.2847 -0.1912
15456TIP3    H267860   0.986   5.740   1.470  1.8309  1.9659 -0.4158
15457TIP3   OH267861   2.089   3.423   5.102 -0.7435 -0.6196  0.0996
15457TIP3    H167862   2.063   3.349   5.158  0.2826 -0.3639  0.9256
15457TIP3    H267863   2.051   3.500   5.146  1.4837 -0.2246  1.3918
15458TIP3   OH267864   3.118   3.089   3.762  0.3392  0.2659 -0.0154
15458TIP3    H167865   3.173   3.166   3.746 -0.8518  1.2263  0.4199
15458TIP3    H267866   3.078   3.105   3.847 -0.1707 -0.6841 -0.0665
15459TIP3   OH267867   5.640   6.436   3.967 -0.2577 -0.4781  0.8900
15459TIP3    H167868   5.692   6.361   3.938  0.6168  0.0048  1.1719
15459TIP3    H267869   5.592   6.405   4.043  0.4614 -0.6288  1.2927
15460TIP3   OH267870   5.256   2.838  16.118 -0.4986 -0.4795  0.0975
15460TIP3    H167871   5.196   2.765  16.130 -1.1180  0.1055  0.5192
15460TIP3    H267872   5.329   2.819  16.177  0.8089 -2.3279 -2.0061
15461TIP3   OH267873   5.405   4.289  14.471  0.0418 -0.1251  0.1368
15461TIP3    H167874   5.480   4.262  14.523 -0.1118  1.0209  0.9704
15461TIP3    H267875   5.423   4.254  14.383  0.8684 -1.0398  0.6567
15462TIP3   OH267876   1.180   0.287  14.026  0.7423  0.0208  0.2690
15462TIP3    H167877   1.099   0.328  14.056  0.6310  1.1101 -1.4447
15462TIP3    H267878   1.245   0.307  14.094  0.1338  1.1024  0.5352
15463TIP3   OH267879   4.930   5.445  11.971  0.2009 -0.0591  0.1948
15463TIP3    H167880   4.857   5.399  12.014 -0.5203 -0.3905 -1.3617
15463TIP3    H267881   4.985   5.474  12.044 -0.0785 -2.1421  1.2848
15464TIP3   OH267882   5.535   1.155   1.075 -0.0649  0.4217  0.3392
15464TIP3    H167883   5.544   1.189   1.164 -1.0622  0.1459  0.5514
15464TIP3    H267884   5.450   1.188   1.044 -0.3111 -0.5328 -0.0374
15465TIP3   OH267885   5.676   4.182  12.986  0.5727 -0.6334  0.3734
15465TIP3    H167886   5.628   4.104  13.014 -0.6545 -0.8346 -2.0881
15465TIP3    H267887   5.748   4.148  12.933 -1.2534 -0.1163 -2.5901
15466TIP3   OH267888   1.148   2.539   2.354 -0.2596  0.0318  0.0465
15466TIP3    H167889   1.238   2.563   2.333 -0.2870 -1.4976 -1.9961
15466TIP3    H267890   1.098   2.561   2.275 -1.5190  0.0574  0.8348
15467TIP3   OH267891   1.113   1.461   1.905 -0.0665 -0.1565 -0.8298
15467TIP3    H167892   1.055   1.391   1.874 -0.3693 -0.4151  0.3029
15467TIP3    H267893   1.183   1.416   1.952  0.1763  0.2551 -0.7928
15468TIP3   OH267894   0.534   5.354  11.440 -0.4148 -0.3484  0.5022
15468TIP3    H167895   0.477   5.385  11.370  1.3153  0.5616 -0.5280
15468TIP3    H267896   0.587   5.431  11.463  0.2514 -1.1273  1.5868
15469TIP3   OH267897   4.404   6.739   4.226  0.1996 -0.1135  0.6619
15469TIP3    H167898   4.463   6.814   4.224  0.4586 -0.2978  1.2790
15469TIP3    H267899   4.462   6.664   4.240  0.0347 -0.5279 -0.7975
15470TIP3   OH267900   0.120   1.526  11.051 -0.0726  0.4782  0.5098
15470TIP3    H167901   0.062   1.484  10.988  0.7458  1.3207 -0.8112
15470TIP3    H267902   0.105   1.619  11.039  1.6258  0.7073  0.0892
15471TIP3   OH267903   2.077   6.355   1.702  0.3256 -0.0824  0.0425
15471TIP3    H167904   2.102   6.273   1.659 -1.1326  0.0065 -0.9699
15471TIP3    H267905   2.125   6.423   1.655  1.1028 -0.2897  0.5267
15472TIP3   OH267906   0.328   3.285   3.303 -0.3139 -0.0939  0.0009
15472TIP3    H167907   0.377   3.243   3.233  0.3954 -1.4544  1.3015
15472TIP3    H267908   0.373   3.369   3.316  1.2794 -1.0483  0.7335
15473TIP3   OH267909   6.357   5.788  14.054 -0.0593  0.4823  0.2239
15473TIP3    H167910   6.346   5.694  14.067 -1.1456  0.3572 -1.3790
15473TIP3    H267911   6.335   5.827  14.139 -1.0697 -0.6166  0.4808
15474TIP3   OH267912   5.835   6.361  17.162  0.4374 -0.2531  0.3020
15474TIP3    H167913   5.804   6.448  17.187  0.2723  0.2182 -1.4711
15474TIP3    H267914   5.766   6.301  17.191 -0.2718  0.3890 -0.0533
15475TIP3   OH267915   2.392   6.047   2.356  0.3058 -0.2853  0.2018
15475TIP3    H167916   2.352   6.031   2.271 -2.0655 -1.2542  1.4594
15475TIP3    H267917   2.463   6.110   2.338 -3.3288  3.4967 -1.7496
15476TIP3   OH267918   2.058   6.740   5.907 -0.4298  0.1701 -0.0003
15476TIP3    H167919   2.121   6.697   5.848  0.1083 -0.3455  0.9421
15476TIP3    H267920   2.019   6.668   5.956  1.2417  0.8340  2.3587
15477TIP3   OH267921   5.665   5.477  14.335  0.5416 -0.4711  0.1100
15477TIP3    H167922   5.596   5.448  14.395  1.2037 -2.0341  0.1438
15477TIP3    H267923   5.618   5.505  14.257 -0.2937  1.0082  1.1146
15478TIP3   OH267924   5.140   3.546  10.504  0.0972 -0.1190  0.4080
15478TIP3    H167925   5.166   3.509  10.588  0.2797 -1.4475 -0.2259
15478TIP3    H267926   5.053   3.509  10.488  0.6536 -0.9841 -0.6536
15479TIP3   OH267927   5.781   2.606  16.367  0.2782 -0.1420 -0.3597
15479TIP3    H167928   5.771   2.511  16.357  0.1097 -0.6315  3.6245
15479TIP3    H267929   5.874   2.619  16.384  0.1919  0.3105 -0.2324
15480TIP3   OH267930   5.907   5.686   0.596  0.3511  0.0849 -0.3386
15480TIP3    H167931   5.954   5.603   0.599  0.3455  0.1180  0.6827
15480TIP3    H267932   5.823   5.668   0.639  1.6027  1.4252  2.7523
15481TIP3   OH267933   4.394   6.500  15.513  0.7716  0.2877 -0.6245
15481TIP3    H167934   4.350   6.568  15.564 -0.1571 -1.0564  0.3965
15481TIP3    H267935   4.446   6.452  15.577  0.6330 -0.5895 -1.1659
15482TIP3   OH267936   0.572   5.413  15.803  0.6401 -0.0147  0.1909
15482TIP3    H167937   0.542   5.430  15.713  0.8395 -3.1051 -0.5027
15482TIP3    H267938   0.510   5.461  15.857 -0.8429  0.0948 -1.5335
15483TIP3   OH267939   3.610   1.175  15.946 -0.4417 -0.2140 -0.1249
15483TIP3    H167940   3.634   1.094  15.990  1.8070  1.0987  1.1501
15483TIP3    H267941   3.516   1.185  15.963 -0.3993 -1.7309  1.0476
15484TIP3   OH267942   3.758   0.784   5.442 -0.4549  0.1215  0.3102
15484TIP3    H167943   3.677   0.734   5.453 -0.1027 -0.1627  1.7791
15484TIP3    H267944   3.790   0.759   5.356 -0.1875 -2.3653  1.0900
15485TIP3   OH267945   4.740   4.712  15.593 -0.0608 -0.2415 -0.1178
15485TIP3    H167946   4.756   4.629  15.636 -0.4657  0.4936  1.5039
15485TIP3    H267947   4.819   4.764  15.609 -0.5486  0.3334  0.5145
15486TIP3   OH267948   3.462   0.555  11.015 -0.1776 -0.2040  0.1377
15486TIP3    H167949   3.426   0.509  10.938  0.1428  0.2281 -0.2721
15486TIP3    H267950   3.463   0.647  10.990  0.4639 -0.1247  0.4472
15487TIP3   OH267951   4.546   1.230  10.869 -0.0359  0.1230  0.4999
15487TIP3    H167952   4.500   1.159  10.913 -1.1655 -0.0428 -0.9124
15487TIP3    H267953   4.491   1.251  10.793  0.8929  1.6867  0.2315
15488TIP3   OH267954   1.569   5.045   1.866 -0.0686 -0.3022 -0.3359
15488TIP3    H167955   1.500   5.096   1.909  1.2229 -0.8091  2.4211
15488TIP3    H267956   1.646   5.101   1.870  0.5402 -1.1379 -0.2939
15489TIP3   OH267957   5.903   2.792   4.284 -0.4555 -0.4031 -0.6533
15489TIP3    H167958   5.859   2.877   4.276 -0.3101 -0.3066 -0.4532
15489TIP3    H267959   5.908   2.777   4.379 -0.4955 -0.6433 -0.6884
15490TIP3   OH267960   5.473   4.341  11.737  0.0293 -0.2972 -0.2170
15490TIP3    H167961   5.381   4.363  11.750  0.3553  0.6899  0.5471
15490TIP3    H267962   5.508   4.414  11.687  0.7105  0.0361  0.7260
15491TIP3   OH267963   0.079   6.804   2.764  0.2303 -0.3770 -0.0146
15491TIP3    H167964   0.042   6.821   2.850  0.0866 -1.2723  0.1106
15491TIP3    H267965   0.162   6.851   2.763 -0.9900  1.8567 -0.3887
15492TIP3   OH267966   2.716   1.541  16.536 -0.5659 -0.4337  0.3355
15492TIP3    H167967   2.765   1.478  16.590  0.0560 -0.7164 -0.5408
15492TIP3    H267968   2.753   1.626  16.560 -2.3423 -0.2410  2.5209
15493TIP3   OH267969   4.475   2.717   4.327 -0.0665 -0.6021  0.3719
15493TIP3    H167970   4.436   2.734   4.414  0.1916 -0.4697  0.4617
15493TIP3    H267971   4.541   2.651   4.343  0.2506 -0.2943  0.3417
15494TIP3   OH267972   3.333   0.948  13.036  0.2715 -0.0519 -0.3440
15494TIP3    H167973   3.367   1.030  13.071 -0.1221  0.8823 -2.0974
15494TIP3    H267974   3.364   0.946  12.945  0.3443 -1.8848 -0.2984
15495TIP3   OH267975   0.573   4.129   2.929  0.5496  0.1470 -0.4781
15495TIP3    H167976   0.480   4.150   2.938  0.3690 -1.0096  0.6145
15495TIP3    H267977   0.575   4.047   2.879  0.9718  0.0905 -0.3756
15496TIP3   OH267978   5.762   4.736   5.867  0.9659  0.1114  0.0807
15496TIP3    H167979   5.748   4.733   5.773 -0.4859  1.8190  0.1921
15496TIP3    H267980   5.821   4.810   5.880  0.6826  0.2603  0.5476
15497TIP3   OH267981   2.115   1.748   1.346  0.0973  0.4998  0.4050
15497TIP3    H167982   2.088   1.837   1.368 -1.0789  0.5308 -1.1303
15497TIP3    H267983   2.064   1.725   1.269 -0.0659 -1.7441  1.1460
15498TIP3   OH267984   2.136   2.631   2.084 -0.3046 -0.2903  0.1350
15498TIP3    H167985   2.128   2.535   2.085 -2.6217 -0.1920 -1.7765
15498TIP3    H267986   2.075   2.661   2.151 -0.1752 -0.1261  0.1800
15499TIP3   OH267987   6.263   6.649  13.073  0.2960  0.0185 -0.0271
15499TIP3    H167988   6.266   6.643  12.977  0.1809  1.3092 -0.1177
15499TIP3    H267989   6.176   6.616  13.097 -0.1627  0.9018 -0.4638
15500TIP3   OH267990   6.469   2.397   1.099 -0.4760 -0.0917 -0.3087
15500TIP3    H167991   6.439   2.306   1.100  0.4852 -0.4158 -0.1979
15500TIP3    H267992   6.392   2.448   1.122 -0.8871 -0.9248  0.2002
15501TIP3   OH267993   1.920   5.901   2.847  0.1892  0.6158 -0.1110
15501TIP3    H167994   1.953   5.923   2.761  1.4219  0.2751  0.2760
15501TIP3    H267995   1.912   5.986   2.892  0.1004  0.7336 -0.3471
15502TIP3   OH267996   5.204   3.149   3.664  0.2713  0.5530 -0.6491
15502TIP3    H167997   5.124   3.197   3.647 -0.6769  0.2679  2.6060
15502TIP3    H267998   5.186   3.059   3.634 -1.1725  0.1497  1.3447
15503TIP3   OH267999   0.216   1.425  11.802 -0.5360 -0.0120 -1.1418
15503TIP3    H168000   0.130   1.383  11.802 -0.0998 -0.9491 -2.4047
15503TIP3    H268001   0.200   1.513  11.835 -1.8706 -0.3949 -0.7427
15504TIP3   OH268002   6.424   3.057   4.027 -0.4544  0.0292 -0.4103
15504TIP3    H168003   6.436   2.984   3.967 -0.8673 -0.7017  0.3853
15504TIP3    H268004   6.440   3.135   3.973  0.7627 -0.6570 -1.0656
15505TIP3   OH268005   6.665   4.042  12.182  0.1531  0.0204 -0.0612
15505TIP3    H168006   6.635   4.108  12.120 -1.6570 -1.0477 -0.3576
15505TIP3    H268007   6.641   4.076  12.268  0.2105  0.2513 -0.1363
15506TIP3   OH268008   4.633   2.663   0.312  0.5400  0.2619 -0.4906
15506TIP3    H168009   4.565   2.688   0.250  1.3479  1.1053 -1.0382
15506TIP3    H268010   4.685   2.598   0.265 -0.6510 -1.3808  0.3941
15507TIP3   OH268011   4.562   5.772   2.514 -0.3582 -0.4386  0.5712
15507TIP3    H168012   4.639   5.815   2.476 -0.3687 -1.3333 -0.4882
15507TIP3    H268013   4.589   5.745   2.601  0.9920 -2.0118 -0.3192
15508TIP3   OH268014   5.888   2.603  12.335 -0.7396 -0.1432  0.0305
15508TIP3    H168015   5.878   2.657  12.256 -0.4515  0.0956  0.1568
15508TIP3    H268016   5.878   2.513  12.303 -2.8978  0.0452  0.0957
15509TIP3   OH268017   2.393   4.128  16.193 -0.0858  0.0496  0.7101
15509TIP3    H168018   2.371   4.039  16.166 -1.4708  0.3643  0.7496
15509TIP3    H268019   2.308   4.169  16.208  0.5743  1.0828  1.6364
15510TIP3   OH268020   4.917   3.433   4.694 -0.5595  0.9177  0.2053
15510TIP3    H168021   4.957   3.430   4.781 -0.9216 -0.1760  0.3393
15510TIP3    H268022   4.836   3.384   4.704 -0.5836  0.7604 -0.7663
15511TIP3   OH268023   0.912   2.398  14.175 -0.7615 -0.1719  0.1239
15511TIP3    H168024   0.995   2.375  14.133 -0.7561  1.5849 -0.8512
15511TIP3    H268025   0.854   2.325  14.156  0.4188 -1.2020  0.4302
15512TIP3   OH268026   6.092   6.163   1.966  0.3285 -0.1021  0.0961
15512TIP3    H168027   6.129   6.192   2.049  1.6493 -1.0272 -0.1645
15512TIP3    H268028   6.050   6.242   1.930 -0.4294  0.2413  1.7247
15513TIP3   OH268029   4.724   1.795  14.662  0.3850 -0.6806 -0.1925
15513TIP3    H168030   4.661   1.862  14.633  0.1709 -1.1288 -0.7693
15513TIP3    H268031   4.701   1.717  14.611  1.7398 -0.7031 -0.7914
15514TIP3   OH268032   6.124   1.564  16.641  0.6274 -0.3562  0.1737
15514TIP3    H168033   6.202   1.616  16.622  0.8822 -0.5347  0.7021
15514TIP3    H268034   6.158   1.483  16.679  0.1485 -0.0692  1.2328
15515TIP3   OH268035   2.902   6.058  11.579 -0.1060 -0.2462 -0.0980
15515TIP3    H168036   2.977   6.048  11.521  0.3064  2.2929 -0.0835
15515TIP3    H268037   2.867   6.145  11.557 -3.6629 -1.7608 -0.8136
15516TIP3   OH268038   1.431   0.696   2.066 -0.2272 -0.0995  0.4215
15516TIP3    H168039   1.388   0.618   2.030 -1.0564 -0.1584  1.4882
15516TIP3    H268040   1.524   0.680   2.054 -0.3999 -1.1784  0.4394
15517TIP3   OH268041   3.196   3.850   3.869 -0.3365  0.3752 -0.2746
15517TIP3    H168042   3.105   3.855   3.842 -0.0153 -0.2845 -1.5488
15517TIP3    H268043   3.196   3.786   3.940 -0.9656  0.8954  0.1929
15518TIP3   OH268044   2.412   1.713   3.407 -0.1712  0.1581  0.5157
15518TIP3    H168045   2.386   1.673   3.490 -0.3575 -3.0373 -1.0074
15518TIP3    H268046   2.505   1.732   3.417  0.3114 -2.1315  0.7891
15519TIP3   OH268047   1.183   2.496  14.531 -0.2542 -0.0838 -0.2702
15519TIP3    H168048   1.110   2.486  14.592  1.1516 -0.3072  1.4176
15519TIP3    H268049   1.261   2.484  14.585  1.0510  0.8048 -1.9181
15520TIP3   OH268050   6.176   1.074   4.461  0.2869 -0.5050 -0.6252
15520TIP3    H168051   6.249   1.130   4.487  0.3466 -2.1928  3.0964
15520TIP3    H268052   6.216   1.001   4.415  1.2879 -2.4211  3.0614
15521TIP3   OH268053   4.800   6.543  15.034 -0.1126 -0.4498 -0.6877
15521TIP3    H168054   4.739   6.481  14.993  1.2880  0.0687 -3.6730
15521TIP3    H268055   4.804   6.616  14.973  1.1528  0.9007  0.9811
15522TIP3   OH268056   4.967   5.402   4.064 -0.1211 -0.6428 -0.0657
15522TIP3    H168057   4.893   5.373   4.116  0.1873 -0.0793  0.6966
15522TIP3    H268058   5.043   5.358   4.103  0.6529  2.6477  2.4002
15523TIP3   OH268059   4.754   4.247  14.014  0.2192  0.7262 -1.0441
15523TIP3    H168060   4.819   4.208  13.955 -1.2174 -0.3534 -1.9650
15523TIP3    H268061   4.672   4.204  13.989 -0.8979  2.3082 -0.1287
15524TIP3   OH268062   0.237   1.288  14.232  0.0461 -0.3951  0.2114
15524TIP3    H168063   0.232   1.331  14.317  0.4398 -0.9225  0.5039
15524TIP3    H268064   0.327   1.256  14.227 -0.2361 -1.1576 -0.0187
15525TIP3   OH268065   0.064   5.302   6.302  0.0283 -0.2480 -0.3707
15525TIP3    H168066   0.148   5.263   6.275  0.2371 -0.2177  0.2300
15525TIP3    H268067   0.081   5.396   6.304 -0.3947 -0.1407 -1.5370
15526TIP3   OH268068   4.562   1.492   1.268 -0.1314  0.6997  0.0399
15526TIP3    H168069   4.551   1.583   1.295  2.4855  0.6626  1.4608
15526TIP3    H268070   4.620   1.497   1.192 -1.9930  0.3578 -1.4224
15527TIP3   OH268071   1.462   2.394  17.074 -0.1417 -0.5590  0.9106
15527TIP3    H168072   1.405   2.467  17.100  0.3515 -0.3777  1.4878
15527TIP3    H268073   1.543   2.408  17.123  0.2024 -1.1207  0.5046
15528TIP3   OH268074   5.353   5.098  16.403 -0.1536 -0.3945  0.3900
15528TIP3    H168075   5.400   5.158  16.345 -0.0568 -0.7329  0.1205
15528TIP3    H268076   5.419   5.067  16.465 -0.2088 -0.2105  0.5445
15529TIP3   OH268077   6.246   6.172  15.489  0.1055 -0.2979 -0.1352
15529TIP3    H168078   6.213   6.136  15.571  0.9162 -0.7623 -0.0115
15529TIP3    H268079   6.247   6.267  15.504  0.2005 -0.3759  0.3711
15530TIP3   OH268080   0.370   5.834  15.034 -0.0875 -0.3845 -0.1899
15530TIP3    H168081   0.290   5.884  15.019 -0.3457 -0.7214  0.0726
15530TIP3    H268082   0.390   5.847  15.126 -0.4292 -1.1716 -0.0035
15531TIP3   OH268083   3.637   2.622   4.420  0.1533 -0.0175 -0.1324
15531TIP3    H168084   3.594   2.641   4.337 -0.8393 -0.5421  0.2539
15531TIP3    H268085   3.637   2.527   4.426  1.4007 -0.0220 -0.1388
15532TIP3   OH268086   4.399   5.113   1.730 -0.1254  0.2832 -0.0049
15532TIP3    H168087   4.492   5.137   1.730 -0.7068  2.7251  1.8239
15532TIP3    H268088   4.399   5.018   1.717  2.6198  0.2584 -0.1468
15533TIP3   OH268089   4.170   1.162  16.228  0.4238  0.1541  0.3262
15533TIP3    H168090   4.262   1.135  16.225  0.5241  0.5327 -0.0888
15533TIP3    H268091   4.170   1.239  16.286  0.7290  1.5190 -1.4421
15534TIP3   OH268092   1.178   6.417  16.610  0.5091 -0.0027  0.1884
15534TIP3    H168093   1.157   6.393  16.520  0.5043  0.6063  0.0263
15534TIP3    H268094   1.162   6.511  16.614 -0.5791 -0.2202  1.1324
15535TIP3   OH268095   2.528   0.594   0.239  0.5862 -0.7255 -0.1177
15535TIP3    H168096   2.437   0.568   0.232  0.5661 -0.5609 -0.4954
15535TIP3    H268097   2.549   0.584   0.332 -0.2176  0.5840  0.2182
15536TIP3   OH268098   4.611   1.394  12.986 -0.3758 -0.0938  0.5644
15536TIP3    H168099   4.704   1.413  12.985 -0.2237 -0.8697 -0.2920
15536TIP3    H268100   4.600   1.330  13.056 -0.6719  1.9611  2.4497
15537TIP3   OH268101   2.335   3.044   4.013  0.4517 -0.4004 -0.7300
15537TIP3    H168102   2.239   3.042   4.008  0.4514 -1.4291 -0.3445
15537TIP3    H268103   2.355   3.131   4.048 -0.4340 -0.8623  0.9748
15538TIP3   OH268104   3.208   2.743  14.303 -0.2546 -0.1571 -0.2396
15538TIP3    H168105   3.151   2.703  14.369 -1.7197  0.7257 -0.9650
15538TIP3    H268106   3.291   2.696  14.313 -1.4075 -2.1904  0.1090
15539TIP3   OH268107   2.170   3.046   1.874 -0.4375  0.0817 -0.1013
15539TIP3    H168108   2.097   3.092   1.914 -0.6157 -0.4096  0.1465
15539TIP3    H268109   2.217   3.113   1.825 -0.0806  0.7389  1.1290
15540TIP3   OH268110   0.438   3.915   1.317  0.0123 -0.4197  0.1525
15540TIP3    H168111   0.434   3.866   1.399  1.2316 -1.6511 -0.5022
15540TIP3    H268112   0.378   3.869   1.258 -0.7402  0.3683  0.2925
15541TIP3   OH268113   0.826   4.310  16.623 -0.0410 -0.1161 -0.0177
15541TIP3    H168114   0.868   4.387  16.583 -0.8787 -0.4045 -1.5049
15541TIP3    H268115   0.896   4.268  16.672  0.9553  0.4415 -0.9270
15542TIP3   OH268116   3.138   0.712   0.143  0.0716  0.1904  0.1812
15542TIP3    H168117   3.227   0.691   0.171  0.2940  1.4712  0.4753
15542TIP3    H268118   3.127   0.805   0.166 -1.4440 -0.0333  0.4396
15543TIP3   OH268119   6.296   4.127   0.076  0.2014 -0.9750  0.1077
15543TIP3    H168120   6.217   4.152   0.027  0.7844 -0.3903 -0.5465
15543TIP3    H268121   6.316   4.204   0.130  2.1815  0.1949 -2.1452
15544TIP3   OH268122   5.357   3.707   5.974  0.2273 -0.6715 -0.0800
15544TIP3    H168123   5.373   3.794   5.936 -2.5560 -0.5811 -1.1368
15544TIP3    H268124   5.293   3.667   5.916  0.8076 -3.1196  0.9098
15545TIP3   OH268125   5.639   0.381   3.742 -0.5609  0.1051 -0.0807
15545TIP3    H168126   5.714   0.326   3.724 -0.4037 -0.2919  1.7533
15545TIP3    H268127   5.637   0.443   3.669  0.8010 -0.6597 -0.7797
15546TIP3   OH268128   0.554   0.563  15.082  0.0298 -0.4812  0.0671
15546TIP3    H168129   0.636   0.525  15.114  0.9130 -0.5758 -2.2030
15546TIP3    H268130   0.492   0.550  15.154  1.8203 -0.9791  1.5781
15547TIP3   OH268131   3.240   1.689  15.304  0.3435 -0.4594 -0.4965
15547TIP3    H168132   3.309   1.754  15.289  0.2938 -0.0294  1.0354
15547TIP3    H268133   3.248   1.628  15.231  0.0774  1.5468 -2.2421
15548TIP3   OH268134   4.450   2.452   2.119  0.4198  0.1741  0.1159
15548TIP3    H168135   4.423   2.387   2.184  0.7603 -0.1579 -0.0695
15548TIP3    H268136   4.440   2.536   2.163  3.2279 -0.1612  1.5670
15549TIP3   OH268137   2.038   5.979  12.174 -0.4279  0.1992  0.3336
15549TIP3    H168138   1.975   6.046  12.148  0.4886  0.7391 -0.5235
15549TIP3    H268139   2.086   5.958  12.094 -1.2426 -2.0792  0.4150
15550TIP3   OH268140   5.331   4.991  12.248 -0.1873 -0.5695  0.1177
15550TIP3    H168141   5.308   4.953  12.163 -0.0094  1.1661 -0.7234
15550TIP3    H268142   5.426   4.981  12.254  0.0814  1.1271 -0.8289
15551TIP3   OH268143   6.745   4.894  12.862 -0.0871 -0.4753  0.3065
15551TIP3    H168144   6.712   4.810  12.895 -1.1550 -0.8153 -1.5623
15551TIP3    H268145   6.721   4.894  12.770 -2.5713  3.1078  0.8732
15552TIP3   OH268146   1.447   3.402  12.727 -0.0844 -0.3005  0.3333
15552TIP3    H168147   1.397   3.451  12.662 -1.3016 -0.5637  1.0748
15552TIP3    H268148   1.408   3.425  12.811  2.7088  1.5520  1.2037
15553TIP3   OH268149   2.406   1.088   0.473  0.1774 -0.4383 -0.0354
15553TIP3    H168150   2.396   1.028   0.399  1.8249  0.7700 -1.2840
15553TIP3    H268151   2.492   1.067   0.508  0.8517  1.2918 -0.6048
15554TIP3   OH268152   3.508   6.473  16.610  0.0060 -0.0384 -0.0578
15554TIP3    H168153   3.444   6.417  16.654 -0.0190 -0.6014 -0.8028
15554TIP3    H268154   3.583   6.476  16.670  0.2961 -1.4554 -0.3365
15555TIP3   OH268155   0.897   6.448  17.149 -0.4714 -0.5194  0.6031
15555TIP3    H168156   0.809   6.430  17.115 -0.3034 -2.3603  1.0786
15555TIP3    H268157   0.890   6.431  17.243 -0.2779  1.9654  1.0798
15556TIP3   OH268158   0.568   4.522   3.017  0.4847 -0.4549  0.2986
15556TIP3    H168159   0.568   4.475   2.933  0.7290 -1.3793  0.8187
15556TIP3    H268160   0.607   4.461   3.079  0.6564  0.3766  1.0157
15557TIP3   OH268161   6.394   0.672   0.983  0.1955 -0.2866 -0.5412
15557TIP3    H168162   6.408   0.641   0.893 -0.2238 -0.8451 -0.4191
15557TIP3    H268163   6.459   0.625   1.035 -0.1741 -0.6648 -0.4160
15558TIP3   OH268164   5.919   1.683  16.497  0.1197 -0.3116 -0.2099
15558TIP3    H168165   5.888   1.598  16.466 -1.6221 -0.0665  0.7459
15558TIP3    H268166   5.993   1.663  16.554  0.1063 -1.1573 -0.4863
15559TIP3   OH268167   3.700   1.636   1.819  0.1525 -0.7624  0.6638
15559TIP3    H168168   3.696   1.553   1.866 -1.3434 -1.1664 -0.1671
15559TIP3    H268169   3.658   1.619   1.735 -0.3372  0.8815  0.5599
15560TIP3   OH268170   2.029   3.447   6.849 -0.0279 -0.0242  0.2027
15560TIP3    H168171   1.945   3.454   6.804  1.2846 -0.7036 -2.4660
15560TIP3    H268172   2.081   3.520   6.814  1.5340 -1.4586 -0.5282
15561TIP3   OH268173   6.085   5.578   3.467  0.0592  0.6981  0.0155
15561TIP3    H168174   6.100   5.542   3.379 -1.1449  1.9137 -0.7009
15561TIP3    H268175   6.114   5.669   3.461 -1.4137  1.2100  0.4498
15562TIP3   OH268176   3.985   2.528   2.388 -0.6016 -0.3188 -0.3910
15562TIP3    H168177   4.079   2.549   2.388 -0.3019 -1.4452 -2.8577
15562TIP3    H268178   3.948   2.587   2.322 -1.3376 -1.0598 -0.6448
15563TIP3   OH268179   6.597   4.343   3.594 -0.2550  0.6576  0.0543
15563TIP3    H168180   6.679   4.364   3.549 -0.3874  1.9999  0.4113
15563TIP3    H268181   6.608   4.381   3.681 -1.2977  0.9372  0.0678
15564TIP3   OH268182   0.635   0.153   0.113  0.0336 -0.1918  0.0555
15564TIP3    H168183   0.706   0.180   0.055  0.3510  0.4193  0.7137
15564TIP3    H268184   0.659   0.065   0.141 -1.0254 -1.2296 -2.1349
15565TIP3   OH268185   4.553   0.393  11.993  0.2865  0.4566  0.5169
15565TIP3    H168186   4.475   0.359  11.949  1.1897 -1.2541  0.1774
15565TIP3    H268187   4.549   0.488  11.979 -1.0688  0.2562 -0.5854
15566TIP3   OH268188   5.658   4.532   1.614 -0.0809  0.0786 -0.2411
15566TIP3    H168189   5.634   4.499   1.701  0.4674 -0.9030 -0.4570
15566TIP3    H268190   5.613   4.473   1.553 -0.5108  0.8025 -0.6333
15567TIP3   OH268191   5.912   3.905   2.460 -1.0259  0.3112  0.2633
15567TIP3    H168192   5.843   3.839   2.455 -0.5673 -0.1334 -0.4017
15567TIP3    H268193   5.936   3.908   2.552 -0.3425 -1.2264  0.1695
15568TIP3   OH268194   6.595   5.534  11.298  0.0900  0.1514 -0.3955
15568TIP3    H168195   6.608   5.475  11.223  4.8305  0.0191  0.4201
15568TIP3    H268196   6.565   5.476  11.368  3.7723 -1.2869  0.1265
15569TIP3   OH268197   6.260   6.531  12.197  0.0240 -1.1795 -0.1857
15569TIP3    H168198   6.169   6.502  12.203 -0.4454 -0.5309 -3.2834
15569TIP3    H268199   6.258   6.622  12.226 -0.6230 -0.6822 -1.7431
15570TIP3   OH268200   4.115   1.277   5.423 -0.1003  0.1763  0.1473
15570TIP3    H168201   4.055   1.295   5.496  0.9841 -1.3664  1.4686
15570TIP3    H268202   4.097   1.346   5.360 -0.3421  2.1789  2.3367
15571TIP3   OH268203   5.692   6.341  12.156 -0.5080 -0.1629  0.1059
15571TIP3    H168204   5.718   6.306  12.071 -0.4654 -1.5002  0.6529
15571TIP3    H268205   5.770   6.387  12.188  0.0212 -1.0856  0.1593
15572TIP3   OH268206   2.797   2.112  15.252  0.1213  0.4919  0.2590
15572TIP3    H168207   2.822   2.086  15.164 -0.6260 -1.1558  0.5188
15572TIP3    H268208   2.702   2.104  15.254  0.0566  1.2845  0.9798
15573TIP3   OH268209   4.204   3.425  11.191 -0.6719  0.2530 -0.1596
15573TIP3    H168210   4.191   3.365  11.117 -2.7313 -0.9929  1.1509
15573TIP3    H268211   4.181   3.511  11.157  3.1016  0.5313 -2.3080
15574TIP3   OH268212   5.264   6.474   5.574  0.0190  0.8699 -0.1818
15574TIP3    H168213   5.245   6.501   5.664 -2.2083 -0.2109 -0.2892
15574TIP3    H268214   5.216   6.392   5.563  2.8319 -0.6633 -1.3736
15575TIP3   OH268215   3.599   5.905  13.953  0.3326 -0.4160  0.2098
15575TIP3    H168216   3.572   5.838  13.890  1.4920 -1.2814  0.6238
15575TIP3    H268217   3.662   5.958  13.906  0.4401 -0.4477  0.3190
15576TIP3   OH268218   3.554   6.596   6.029  0.3509  0.2148 -0.0257
15576TIP3    H168219   3.558   6.684   6.066  0.8892  0.2868 -0.2551
15576TIP3    H268220   3.580   6.539   6.101 -1.1290  0.1360  0.4770
15577TIP3   OH268221   0.904   6.676  12.710 -0.1026  1.1824  0.4848
15577TIP3    H168222   0.845   6.717  12.648  0.0934  0.9860  0.1697
15577TIP3    H268223   0.881   6.715  12.795 -1.8574 -0.1761  0.6502
15578TIP3   OH268224   2.199   6.061   0.104  0.2153 -0.1575 -0.1743
15578TIP3    H168225   2.122   6.070   0.160  1.9795  1.9388  2.0506
15578TIP3    H268226   2.194   6.137   0.045  1.3769  0.9149  1.0656
15579TIP3   OH268227   1.414   0.096   5.996  0.2889 -0.6716 -0.3135
15579TIP3    H168228   1.402   0.175   5.942  0.4435 -1.9348 -2.2213
15579TIP3    H268229   1.379   0.025   5.943 -0.2266 -1.8572  1.5794
15580TIP3   OH268230   4.108   0.167  16.369  0.0666 -0.4816 -0.1475
15580TIP3    H168231   4.170   0.194  16.436  1.1602 -1.4359 -0.7656
15580TIP3    H268232   4.085   0.077  16.392 -1.0749 -0.1523  0.0592
15581TIP3   OH268233   1.164   5.285   5.348 -0.8221  0.6492  0.2588
15581TIP3    H168234   1.156   5.318   5.258 -2.5323  1.3479  0.6470
15581TIP3    H268235   1.145   5.191   5.339 -1.4252  0.7947 -0.0581
15582TIP3   OH268236   4.174   6.353   2.198  0.0706  0.0481  0.3599
15582TIP3    H168237   4.163   6.258   2.207 -0.4307 -0.1837 -2.2741
15582TIP3    H268238   4.166   6.369   2.104 -0.8949  2.8449  0.8703
15583TIP3   OH268239   4.516   3.507   5.431  0.3723  0.7900 -0.9308
15583TIP3    H168240   4.536   3.524   5.524  0.1288 -1.0464 -0.5206
15583TIP3    H268241   4.421   3.508   5.426  0.2611 -2.5886 -0.4296
15584TIP3   OH268242   1.469   1.020  13.011  0.0826  1.0983  0.4113
15584TIP3    H168243   1.394   0.978  12.969  1.5058  0.0510 -1.1578
15584TIP3    H268244   1.493   1.092  12.953 -1.0188  2.8051  2.0109
15585TIP3   OH268245   4.741   2.579   3.110 -0.4697 -0.0439 -0.0780
15585TIP3    H168246   4.694   2.561   3.029 -1.9248 -1.3150  1.0243
15585TIP3    H268247   4.829   2.544   3.096 -0.7211 -0.2758 -1.0806
15586TIP3   OH268248   6.544   1.714  11.557  0.2341  0.1136 -0.4312
15586TIP3    H168249   6.549   1.734  11.651  0.1310  0.0216 -0.4056
15586TIP3    H268250   6.618   1.657  11.541  0.9883  1.1417 -0.6602
15587TIP3   OH268251   3.025   4.799  12.099  0.5824  0.3754 -0.4317
15587TIP3    H168252   2.945   4.747  12.098  0.7684  0.0436  0.8314
15587TIP3    H268253   2.998   4.887  12.075  0.1723 -0.1703 -2.0389
15588TIP3   OH268254   2.107   5.030   3.120  0.3666 -0.5096 -0.1864
15588TIP3    H168255   2.092   5.020   3.214  1.7654 -0.8969 -0.0006
15588TIP3    H268256   2.044   4.970   3.080 -0.7334  0.1910  0.4721
15589TIP3   OH268257   1.038   3.980   1.207 -0.3584  0.5010 -0.0342
15589TIP3    H168258   1.099   4.037   1.161  1.6810 -1.0966  0.6269
15589TIP3    H268259   1.020   3.909   1.144  1.1075 -0.7841  0.9485
15590TIP3   OH268260   2.783   1.360  12.709 -0.7022  0.0432 -0.2696
15590TIP3    H168261   2.873   1.328  12.713 -1.2321 -1.6421 -1.2541
15590TIP3    H268262   2.790   1.454  12.725  1.1739 -0.1405  0.1234
15591TIP3   OH268263   4.567   1.314  14.254  0.0015 -0.3079 -0.1849
15591TIP3    H168264   4.605   1.305  14.341 -1.2890  1.5956  0.5882
15591TIP3    H268265   4.475   1.335  14.269 -0.0371  0.9185 -1.9765
15592TIP3   OH268266   1.781   1.801  12.486  0.8173 -0.4770  0.1822
15592TIP3    H168267   1.809   1.723  12.533  0.0274 -0.5098  0.6100
15592TIP3    H268268   1.699   1.826  12.528  0.8305  0.3160 -0.2534
15593TIP3   OH268269   0.482   1.454  15.009  0.3524  0.5557  0.6200
15593TIP3    H168270   0.537   1.515  15.058  3.5428 -1.3314 -0.5015
15593TIP3    H268271   0.501   1.473  14.917 -0.6941 -0.3334  0.2021
15594TIP3   OH268272   0.122   6.467   5.538 -0.1352  0.1881 -0.3170
15594TIP3    H168273   0.128   6.393   5.597 -0.7362  0.6976  0.3892
15594TIP3    H268274   0.028   6.478   5.521  0.0271  0.0392 -1.3816
15595TIP3   OH268275   5.516   0.526  14.914 -0.0350 -0.1060  0.4032
15595TIP3    H168276   5.540   0.461  14.980  0.1917  0.1763  0.5957
15595TIP3    H268277   5.543   0.610  14.951 -0.5181  0.1228  0.2428
15596TIP3   OH268278   0.725   6.581   1.901 -0.4651  0.2639  0.1447
15596TIP3    H168279   0.671   6.610   1.975 -0.8416 -1.0983  0.4102
15596TIP3    H268280   0.674   6.603   1.823 -1.3435 -0.8828  0.3878
15597TIP3   OH268281   2.368   4.159   2.347 -0.3942 -0.5173 -0.6012
15597TIP3    H168282   2.420   4.099   2.293  0.1815 -0.4542 -0.1267
15597TIP3    H268283   2.387   4.246   2.312 -2.1788 -0.7048 -2.0749
15598TIP3   OH268284   0.464   1.476   2.411 -0.3502  0.1843  0.7747
15598TIP3    H168285   0.556   1.473   2.384 -0.8706 -1.1615 -0.9414
15598TIP3    H268286   0.433   1.561   2.377  0.2846  0.6997  1.4708
15599TIP3   OH268287   0.215   3.705  12.215  0.2089  0.2030  0.0338
15599TIP3    H168288   0.180   3.726  12.128 -1.8906  1.0885  1.0649
15599TIP3    H268289   0.302   3.668  12.197 -0.6421 -0.6774 -2.4951
15600TIP3   OH268290   2.763   2.059  15.860  0.3007  0.1212  0.7605
15600TIP3    H168291   2.723   2.000  15.796 -0.4526 -0.8118  2.0775
15600TIP3    H268292   2.851   2.023  15.873  0.0230 -0.4267  1.1690
15601TIP3   OH268293   6.591   3.430   0.877  0.2233 -0.1687 -0.3165
15601TIP3    H168294   6.566   3.513   0.838  3.0912  0.7204 -0.3429
15601TIP3    H268295   6.614   3.374   0.802  1.4006  0.0817 -0.1538
15602TIP3   OH268296   1.986   2.061  12.782 -0.1796 -0.6902  0.3305
15602TIP3    H168297   1.962   1.990  12.722 -2.9263  0.1305  0.3900
15602TIP3    H268298   2.047   2.021  12.844 -0.4951 -2.5961 -0.5616
15603TIP3   OH268299   1.453   3.021   5.845  0.2474 -0.5491  0.1200
15603TIP3    H168300   1.361   3.021   5.869  0.8663 -0.2760  2.6828
15603TIP3    H268301   1.475   3.114   5.836  0.2166 -0.6226 -0.7140
15604TIP3   OH268302   1.735   2.510  15.203 -0.1639 -0.6249 -0.2171
15604TIP3    H168303   1.712   2.600  15.226  1.7551  0.1324 -1.1698
15604TIP3    H268304   1.667   2.457  15.243 -1.4199  1.2691  0.2083
15605TIP3   OH268305   3.480   0.277   3.854  0.2257 -0.4745  0.0817
15605TIP3    H168306   3.567   0.287   3.894  0.3236 -0.5204 -0.1189
15605TIP3    H268307   3.498   0.271   3.760  0.0743 -1.3158  0.1046
15606TIP3   OH268308   5.936   5.982  12.077 -0.0895  0.4426 -0.1530
15606TIP3    H168309   6.022   5.940  12.067 -0.1912 -0.3626  2.1237
15606TIP3    H268310   5.956   6.076  12.082  0.4698  0.4088 -1.4132
15607TIP3   OH268311   2.170   4.297  11.114 -0.2632  0.4737  0.1163
15607TIP3    H168312   2.227   4.314  11.039 -3.1377  0.4862 -2.1634
15607TIP3    H268313   2.184   4.205  11.136  1.5159  0.8028  0.4080
15608TIP3   OH268314   2.428   3.139   1.060 -0.0805 -0.6608  0.1816
15608TIP3    H168315   2.513   3.182   1.068 -0.5215  0.0953  0.9281
15608TIP3    H268316   2.419   3.090   1.142  0.0928 -1.5846 -0.3470
15609TIP3   OH268317   3.863   5.510  15.777 -0.5554  0.0589 -0.2410
15609TIP3    H168318   3.768   5.498  15.774 -0.5852  0.3468 -0.4429
15609TIP3    H268319   3.897   5.459  15.704 -0.2274 -3.1277  2.0094
15610TIP3   OH268320   1.785   5.326   3.957 -0.3343 -0.0281 -0.2221
15610TIP3    H168321   1.692   5.338   3.943 -0.2803 -1.3304 -1.9336
15610TIP3    H268322   1.809   5.253   3.898  1.3473 -1.0381  1.6454
15611TIP3   OH268323   6.297   3.809   1.845 -0.3275  0.9207  0.4107
15611TIP3    H168324   6.260   3.887   1.885  0.5152  0.9392  1.1759
15611TIP3    H268325   6.256   3.736   1.893 -0.6633  0.9045  0.0997
15612TIP3   OH268326   2.481   6.570   1.560 -0.0747  0.3937  0.3489
15612TIP3    H168327   2.491   6.664   1.580  0.8045  0.4938 -0.5040
15612TIP3    H268328   2.571   6.537   1.561 -0.3139 -0.2645 -0.1988
15613TIP3   OH268329   1.978   4.566  15.215  0.3385  0.2409  0.3406
15613TIP3    H168330   2.072   4.569  15.196  0.7095 -1.3519  1.8061
15613TIP3    H268331   1.973   4.545  15.308 -1.4894  0.1597  0.2408
15614TIP3   OH268332   6.564   2.539   3.679 -0.1580  0.0047  0.1671
15614TIP3    H168333   6.647   2.584   3.660 -1.0211  1.3851 -0.4865
15614TIP3    H268334   6.497   2.595   3.639 -1.3074 -1.7412 -0.4329
15615TIP3   OH268335   5.701   4.965  13.597 -0.2354 -0.2886 -0.0148
15615TIP3    H168336   5.670   4.973  13.687 -0.2441  0.6162 -0.0916
15615TIP3    H268337   5.684   4.874  13.573 -0.6323 -0.4137  0.7480
15616TIP3   OH268338   3.092   4.180  12.352  0.4571  0.4142 -0.0566
15616TIP3    H168339   3.117   4.208  12.440 -2.0422  2.0399  0.2126
15616TIP3    H268340   3.084   4.262  12.302 -1.7183 -0.1831 -0.7544
15617TIP3   OH268341   1.064   6.639  14.081  0.6556  0.4270  0.2967
15617TIP3    H168342   1.132   6.704  14.060  1.8475 -1.3401 -1.5211
15617TIP3    H268343   0.983   6.690  14.085  1.9630  2.4643  1.7504
15618TIP3   OH268344   1.303   1.697   4.703  0.1293  0.0078  0.1777
15618TIP3    H168345   1.282   1.629   4.639 -3.1436  1.2359 -0.1218
15618TIP3    H268346   1.375   1.746   4.663 -0.1234 -0.8488 -1.3595
15619TIP3   OH268347   1.542   5.543  17.121  0.7951 -0.0286 -0.0301
15619TIP3    H168348   1.581   5.625  17.092  0.0566 -0.1097 -1.3101
15619TIP3    H268349   1.599   5.475  17.086 -0.2438 -0.1348 -1.5775
15620TIP3   OH268350   4.489   1.313  15.288 -0.5221  0.0720 -0.0247
15620TIP3    H168351   4.501   1.387  15.348  1.0649  0.6047 -0.9649
15620TIP3    H268352   4.426   1.345  15.223 -0.1434  0.4694 -0.2012
15621TIP3   OH268353   5.482   4.114  11.169  0.0030  0.4756 -0.2996
15621TIP3    H168354   5.488   4.175  11.243 -2.9196 -0.5808  0.8884
15621TIP3    H268355   5.550   4.049  11.185  0.6863  1.3480  0.3871
15622TIP3   OH268356   4.809   2.167  12.608  0.3061  0.1986  0.0728
15622TIP3    H168357   4.834   2.203  12.523  1.0769  0.4858  0.4249
15622TIP3    H268358   4.819   2.240  12.669 -1.5964  0.3963  0.1920
15623TIP3   OH268359   4.975   4.934  10.895 -0.3298  0.3024 -0.4298
15623TIP3    H168360   5.062   4.940  10.933  0.2640 -0.7807 -1.5791
15623TIP3    H268361   4.981   4.862  10.832 -1.6005  1.2547 -1.6875
15624TIP3   OH268362   3.947   6.618   3.745  0.0555 -0.1572 -0.5475
15624TIP3    H168363   3.873   6.569   3.780  0.6790 -0.6157  0.1562
15624TIP3    H268364   4.022   6.560   3.758  0.5188  0.2567 -1.3520
15625TIP3   OH268365   3.893   5.349   4.251  0.1664  0.1104  0.0429
15625TIP3    H168366   3.973   5.322   4.297 -0.3966 -0.8328  0.4880
15625TIP3    H268367   3.859   5.422   4.303  0.3377  0.0275  0.2734
15626TIP3   OH268368   2.310   5.503   0.098  0.1145  0.2086  0.1351
15626TIP3    H168369   2.241   5.465   0.154  1.1814 -0.8001  0.8065
15626TIP3    H268370   2.347   5.573   0.151 -0.1642  0.5231 -0.0863
15627TIP3   OH268371   4.857   6.723  12.759  0.7725  0.5976  0.2137
15627TIP3    H168372   4.945   6.687  12.762  0.0549 -1.2499 -0.0953
15627TIP3    H268373   4.816   6.694  12.841 -0.2317 -0.4385 -0.6298
15628TIP3   OH268374   1.018   1.125  16.607 -0.3878  0.1860 -0.4665
15628TIP3    H168375   1.084   1.168  16.552  0.2350  0.8727  0.7972
15628TIP3    H268376   0.972   1.197  16.650  0.8652 -0.3807  1.9218
15629TIP3   OH268377   2.574   1.635  11.018  0.1310  0.7423  0.8428
15629TIP3    H168378   2.533   1.676  10.942  0.9319  0.3710  0.2024
15629TIP3    H268379   2.579   1.543  10.996  0.5233  0.6565  1.2800
15630TIP3   OH268380   1.768   6.660  15.713  0.0318  0.2726 -0.8200
15630TIP3    H168381   1.841   6.721  15.714 -0.1578  0.4918 -0.4073
15630TIP3    H268382   1.690   6.715  15.715 -0.1324 -0.0110  0.7319
15631TIP3   OH268383   4.733   6.596   0.204  0.0997 -0.0619 -0.5926
15631TIP3    H168384   4.656   6.649   0.184  0.7567  0.8768 -0.7028
15631TIP3    H268385   4.787   6.602   0.125  0.7324  0.1057 -0.1574
15632TIP3   OH268386   5.191   0.674  12.348 -0.2010 -0.0150 -0.6958
15632TIP3    H168387   5.106   0.679  12.392 -0.3375  0.7963 -1.0255
15632TIP3    H268388   5.174   0.708  12.260  0.5679  0.6267 -0.6014
15633TIP3   OH268389   6.710   5.598  12.036 -0.5976  0.1353  0.3150
15633TIP3    H168390   6.748   5.670  11.984 -0.7322 -0.0472 -0.0372
15633TIP3    H268391   6.749   5.519  12.000  1.4852  0.1812  2.3680
15634TIP3   OH268392   6.807   0.256  14.216  0.1565  0.2369  0.0647
15634TIP3    H168393   6.868   0.182  14.220  0.7566  0.8128  3.5487
15634TIP3    H268394   6.721   0.217  14.229  0.3858  0.0373  1.0199
15635TIP3   OH268395   4.889   1.483  12.777 -0.6612  0.7252 -0.0282
15635TIP3    H168396   4.931   1.558  12.820 -0.3754  0.6827 -0.2315
15635TIP3    H268397   4.799   1.511  12.764 -0.8188  0.6297  0.8559
15636TIP3   OH268398   0.716   4.115  16.399  0.3278  0.1054  0.7491
15636TIP3    H168399   0.805   4.148  16.406 -0.0847  1.5149 -0.4987
15636TIP3    H268400   0.660   4.191  16.416 -0.6473  0.5319 -3.7672
15637TIP3   OH268401   2.876   1.035  16.603 -0.4504  0.0215  0.1911
15637TIP3    H168402   2.914   0.985  16.675  0.1715 -0.0846 -0.2067
15637TIP3    H268403   2.883   0.976  16.528 -0.3294  0.4533 -0.1344
15638TIP3   OH268404   1.024   3.955  12.289  0.2695 -0.1794  0.1412
15638TIP3    H168405   1.045   3.922  12.376 -0.6503  1.2799  0.9376
15638TIP3    H268406   1.002   4.047  12.303 -1.5237 -0.3537 -1.4080
15639TIP3   OH268407   6.529   3.245   5.891 -0.2576  0.0307  0.5155
15639TIP3    H168408   6.570   3.275   5.972  1.0466 -3.1278  1.1047
15639TIP3    H268409   6.530   3.150   5.898  2.7955 -0.5014 -4.5491
15640TIP3   OH268410   2.169   0.546  12.205  0.4069  0.2802  0.4775
15640TIP3    H168411   2.211   0.604  12.269 -0.0309  2.1627 -0.8832
15640TIP3    H268412   2.239   0.525  12.142  0.3602  0.0005  0.5212
15641TIP3   OH268413   3.230   4.860  11.330  0.3531 -0.2833  0.2286
15641TIP3    H168414   3.236   4.783  11.387  0.4788  0.4967  1.2867
15641TIP3    H268415   3.150   4.905  11.357  0.1508 -0.1590 -0.5479
15642TIP3   OH268416   1.967   1.566   6.437  0.1613 -0.2808 -0.0478
15642TIP3    H168417   1.993   1.656   6.458 -0.3282  0.1068 -1.0281
15642TIP3    H268418   1.886   1.576   6.386 -0.6471 -1.3505  0.9811
15643TIP3   OH268419   5.945   6.301  16.599  0.0273  0.0139 -0.1302
15643TIP3    H168420   5.922   6.381  16.647  0.7399  1.3434 -1.9482
15643TIP3    H268421   5.861   6.261  16.576 -0.3248 -0.3024  1.6350
15644TIP3   OH268422   6.002   0.258   2.293 -0.2669  1.2831 -0.4872
15644TIP3    H168423   5.946   0.200   2.241 -2.6045  3.1385 -0.1055
15644TIP3    H268424   6.023   0.331   2.234  1.1017  1.0086 -0.3624
15645TIP3   OH268425   2.298   6.561  14.911  0.3825 -0.1513 -0.2563
15645TIP3    H168426   2.393   6.556  14.915  0.2855 -1.8508  0.7293
15645TIP3    H268427   2.272   6.589  14.999 -0.0545 -0.4131 -0.3018
15646TIP3   OH268428   1.763   5.458   5.596  0.0341 -0.5509 -0.4964
15646TIP3    H168429   1.771   5.472   5.502 -0.7716  0.3882 -0.4303
15646TIP3    H268430   1.711   5.379   5.604 -1.5774  0.4543 -0.8391
15647TIP3   OH268431   5.364   2.537  11.497  0.3099  0.2604 -0.2969
15647TIP3    H168432   5.369   2.627  11.464  3.5297  0.2051 -0.1396
15647TIP3    H268433   5.275   2.528  11.531 -0.1654  3.2700 -0.6547
15648TIP3   OH268434   2.834   6.323  16.632  0.3511  0.3548 -0.6268
15648TIP3    H168435   2.820   6.306  16.725  0.5060  0.1999 -0.6298
15648TIP3    H268436   2.921   6.363  16.628  0.4650  0.1000 -0.7327
15649TIP3   OH268437   5.553   2.716  10.704 -0.3497  0.1017 -0.4692
15649TIP3    H168438   5.508   2.672  10.632  0.7838  1.2494 -1.8912
15649TIP3    H268439   5.600   2.646  10.749 -0.7708 -0.5570 -1.0411
15650TIP3   OH268440   1.922   0.209  12.891  0.1041 -0.1502  0.2050
15650TIP3    H168441   1.886   0.233  12.976 -1.6513  2.2421 -1.1307
15650TIP3    H268442   1.856   0.238  12.828  2.6225  0.7431 -2.1299
15651TIP3   OH268443   6.015   1.089  12.796 -0.2095  0.1680  0.3472
15651TIP3    H168444   6.093   1.039  12.772 -0.4175 -0.2148  0.4673
15651TIP3    H268445   5.947   1.056  12.737  0.2583  2.0890 -1.3162
15652TIP3   OH268446   0.884   6.068   2.553 -0.4851  0.3985  0.1245
15652TIP3    H168447   0.830   6.019   2.491 -2.0830  0.8471  1.1401
15652TIP3    H268448   0.970   6.026   2.549 -1.2880 -1.2030 -0.5022
15653TIP3   OH268449   6.707   2.145   1.884  0.1703  0.9121 -0.0907
15653TIP3    H168450   6.796   2.114   1.898 -0.3391 -0.3600  0.4010
15653TIP3    H268451   6.691   2.208   1.953 -0.1029 -0.5872  1.2459
15654TIP3   OH268452   6.028   2.692  15.922 -0.0468  1.0701  0.5491
15654TIP3    H168453   5.936   2.705  15.944 -0.6700 -1.1162 -0.5532
15654TIP3    H268454   6.058   2.623  15.982  0.8923  1.7862  0.9203
15655TIP3   OH268455   2.870   6.516   5.929 -0.1739  0.1172 -0.2807
15655TIP3    H168456   2.792   6.531   5.982 -0.7668 -0.5048 -0.9810
15655TIP3    H268457   2.940   6.504   5.993 -1.3594 -3.3554  0.4461
15656TIP3   OH268458   0.899   4.644   4.449  0.1187 -0.0830  0.2496
15656TIP3    H168459   0.939   4.672   4.367 -1.0044 -0.4686 -0.4313
15656TIP3    H268460   0.966   4.590   4.491  1.0717  0.9338  0.0670
15657TIP3   OH268461   4.639   3.350  12.680  0.0995  0.1990 -0.1239
15657TIP3    H168462   4.594   3.381  12.601 -0.6933  0.9263  0.6024
15657TIP3    H268463   4.629   3.255  12.677 -0.5027  0.2741 -0.5699
15658TIP3   OH268464   1.326   0.752  11.600 -0.3857 -0.2620 -0.1826
15658TIP3    H168465   1.247   0.800  11.577 -0.7293 -0.5571  0.3617
15658TIP3    H268466   1.299   0.660  11.597 -0.0684 -0.3612  0.0258
15659TIP3   OH268467   6.612   4.525  14.534  0.1243  0.1680 -0.4483
15659TIP3    H168468   6.605   4.621  14.533 -1.6700  0.1282  2.3524
15659TIP3    H268469   6.522   4.495  14.522  0.8042 -1.2343 -2.3146
15660TIP3   OH268470   6.727   5.246   3.853  0.3028  0.2302 -0.2450
15660TIP3    H168471   6.809   5.269   3.895 -0.1918 -0.2221  1.0084
15660TIP3    H268472   6.682   5.329   3.838  0.1467  0.3443  0.8411
15661TIP3   OH268473   5.886   6.237  12.514  0.0012 -0.4036 -1.1398
15661TIP3    H168474   5.802   6.266  12.477  0.5910  1.6464 -0.9676
15661TIP3    H268475   5.880   6.260  12.607  0.3039 -1.3205 -0.8970
15662TIP3   OH268476   3.649   5.622  12.642 -0.3767  0.4492 -0.2823
15662TIP3    H168477   3.557   5.606  12.625  0.0959 -2.2024 -0.5116
15662TIP3    H268478   3.695   5.563  12.582  1.4502  0.8749  0.6625
15663TIP3   OH268479   6.400   2.571  11.757  0.0458  0.5440  0.1636
15663TIP3    H168480   6.324   2.524  11.790  0.5068 -0.6586 -0.4382
15663TIP3    H268481   6.468   2.557  11.824  0.3045  0.0140 -0.2096
15664TIP3   OH268482   3.536   4.243   1.963 -0.3236  0.7473  0.7319
15664TIP3    H168483   3.622   4.284   1.975 -1.1092  2.4196  0.9211
15664TIP3    H268484   3.547   4.154   1.995  1.0161  1.3137  1.9296
15665TIP3   OH268485   1.676   4.030  13.459  0.0831 -0.1780  0.8044
15665TIP3    H168486   1.620   4.001  13.386  1.4901  0.5014 -0.5703
15665TIP3    H268487   1.720   3.950  13.488  0.7517 -0.1795 -0.1840
15666TIP3   OH268488   0.050   0.229   1.186  0.0363  0.3618  0.0354
15666TIP3    H168489   0.129   0.283   1.186  0.2495  0.1456 -2.7946
15666TIP3    H268490   0.082   0.140   1.201  0.0773  0.5398  1.0458
15667TIP3   OH268491   3.661   5.213   1.588  0.0500 -0.1696  0.6622
15667TIP3    H168492   3.651   5.160   1.667  3.8588  1.9333  2.7017
15667TIP3    H268493   3.714   5.158   1.529  0.1554 -0.3984  0.9666
15668TIP3   OH268494   4.598   1.780   1.666 -0.1522  0.0925 -0.3380
15668TIP3    H168495   4.542   1.705   1.689 -0.2565  0.2375 -0.1116
15668TIP3    H268496   4.547   1.856   1.694  0.6125  0.1814  0.8321
15669TIP3   OH268497   3.798   1.661   1.369 -0.2300 -0.0169 -0.1695
15669TIP3    H168498   3.882   1.643   1.411 -1.1603  1.1230  2.2496
15669TIP3    H268499   3.813   1.743   1.320 -0.4243  1.1979  1.7701
15670TIP3   OH268500   0.326   3.473   3.633 -0.0606  0.6478 -0.6636
15670TIP3    H168501   0.318   3.417   3.556 -0.5751  3.8539 -3.0704
15670TIP3    H268502   0.254   3.535   3.626 -0.5187  0.6315  2.8094
15671TIP3   OH268503   6.578   6.799  11.640 -0.0575  0.1888 -0.6822
15671TIP3    H168504   6.487   6.772  11.630  0.3120 -1.0351 -0.8247
15671TIP3    H268505   6.609   6.753  11.717  1.3881 -2.0372 -2.5354
15672TIP3   OH268506   4.409   0.793  14.370 -0.4215 -0.2069 -0.4902
15672TIP3    H168507   4.438   0.868  14.318  1.3656 -0.3949  0.2014
15672TIP3    H268508   4.336   0.827  14.422  0.4778  1.1335 -0.0684
15673TIP3   OH268509   6.363   3.523   4.661  0.2422  0.2737 -0.1884
15673TIP3    H168510   6.365   3.540   4.567 -3.0467 -4.7320 -1.3720
15673TIP3    H268511   6.428   3.453   4.674 -0.0323  0.2364  1.0486
15674TIP3   OH268512   6.282   3.894   6.264  0.2649 -0.1766 -0.0085
15674TIP3    H168513   6.282   3.990   6.264 -0.2641 -0.1700 -0.8938
15674TIP3    H268514   6.217   3.870   6.330  0.0990  0.0822 -0.0757
15675TIP3   OH268515   4.192   5.588  14.793 -0.1401 -0.4885  0.2733
15675TIP3    H168516   4.285   5.581  14.816  0.3659 -0.9095 -1.8141
15675TIP3    H268517   4.183   5.537  14.713 -2.2542 -0.7130  0.6313
15676TIP3   OH268518   3.350   5.709  17.189  0.3633 -0.1432  0.5679
15676TIP3    H168519   3.370   5.661  17.269  1.1832 -1.6604 -0.5116
15676TIP3    H268520   3.417   5.778  17.184  0.5470 -0.2951  0.9874
15677TIP3   OH268521   4.254   4.136  14.542  0.1816  0.0662  0.6274
15677TIP3    H168522   4.318   4.207  14.549 -0.8928  1.0265  0.6785
15677TIP3    H268523   4.169   4.178  14.556 -0.7238 -0.6887 -2.2927
15678TIP3   OH268524   6.406   0.373  12.058 -1.0073 -0.4299  0.6379
15678TIP3    H168525   6.421   0.318  11.981  1.1839  2.2376 -0.9503
15678TIP3    H268526   6.322   0.415  12.040  0.4934  1.8331 -1.4372
15679TIP3   OH268527   3.009   5.675  11.056 -0.3692  0.8936 -0.0466
15679TIP3    H168528   3.065   5.697  10.982  0.0240 -0.1339 -0.0653
15679TIP3    H268529   2.936   5.625  11.017  0.7744 -1.2343  0.4563
15680TIP3   OH268530   3.676   5.937  10.930  0.0122  0.8495  0.1906
15680TIP3    H168531   3.733   5.862  10.941 -0.5640 -0.1205 -2.7935
15680TIP3    H268532   3.591   5.908  10.963  0.1627  0.7118  0.4525
15681TIP3   OH268533   2.508   4.455  11.779  0.1387  0.6643  0.0471
15681TIP3    H168534   2.589   4.503  11.796  0.4638 -0.1666  0.8782
15681TIP3    H268535   2.536   4.377  11.730  0.3413 -1.3978  3.2588
15682TIP3   OH268536   1.426   5.422   4.437  0.0232 -0.0475  0.1011
15682TIP3    H168537   1.361   5.470   4.490  0.8126  0.7226  0.3892
15682TIP3    H268538   1.391   5.333   4.431 -1.5267  0.5851 -0.5269
15683TIP3   OH268539   1.869   4.862  11.269  0.2534 -0.2139  0.4038
15683TIP3    H168540   1.890   4.924  11.200  2.8244 -0.4318  0.9284
15683TIP3    H268541   1.773   4.862  11.273  0.1496  3.9609  0.6321
15684TIP3   OH268542   2.288   5.700   3.998  0.0158 -0.0264 -0.1993
15684TIP3    H168543   2.194   5.685   3.994 -0.1056  0.4437  0.8540
15684TIP3    H268544   2.327   5.618   3.967 -0.7193 -0.6785  0.5879
15685TIP3   OH268545   2.138   1.140   0.895 -0.2554 -0.2218  0.1315
15685TIP3    H168546   2.217   1.157   0.845 -0.6382 -1.2145 -0.8439
15685TIP3    H268547   2.094   1.069   0.847 -2.2583  1.0207  0.0652
15686TIP3   OH268548   4.327   5.512   1.433  0.1783  0.3869 -0.1098
15686TIP3    H168549   4.395   5.507   1.500  1.4964  1.9011 -1.2883
15686TIP3    H268550   4.345   5.437   1.376 -0.7000 -0.6693  0.9700
15687TIP3   OH268551   1.131   4.968  16.235  0.0649 -0.2835  0.1757
15687TIP3    H168552   1.093   4.914  16.165  1.9443 -1.7000  0.2212
15687TIP3    H268553   1.204   4.916  16.268 -0.2424  0.7689  2.5984
15688TIP3   OH268554   6.710   6.512   1.375 -0.2811 -0.3398 -0.1659
15688TIP3    H168555   6.713   6.518   1.470 -3.4366 -0.1771 -0.0346
15688TIP3    H268556   6.679   6.424   1.357  3.4383 -1.5633 -1.2078
15689TIP3   OH268557   4.773   3.766  14.511  0.7028  0.6170  0.5377
15689TIP3    H168558   4.774   3.797  14.420 -0.9366 -0.8126 -0.0111
15689TIP3    H268559   4.745   3.674  14.504  1.7911  0.1164  2.3946
15690TIP3   OH268560   5.862   2.406   5.918 -0.3232  0.1270 -0.2066
15690TIP3    H168561   5.817   2.442   5.995 -2.4224 -1.9399 -0.4183
15690TIP3    H268562   5.842   2.312   5.920  0.5045 -0.1377 -2.6683
15691TIP3   OH268563   1.723   0.882  17.170 -0.1550  0.3432  0.3793
15691TIP3    H168564   1.691   0.816  17.232  0.6597  1.3130  1.8679
15691TIP3    H268565   1.715   0.840  17.085  0.3403 -1.6903  1.2862
15692TIP3   OH268566   0.332   3.907  10.456  0.0481 -0.2706  0.2473
15692TIP3    H168567   0.338   3.825  10.406 -0.9573 -0.1879 -0.0156
15692TIP3    H268568   0.245   3.941  10.436  0.4773  0.8943  0.3269
15693TIP3   OH268569   2.156   0.106   3.531  0.4966  0.4104 -0.5322
15693TIP3    H168570   2.075   0.157   3.528  0.2760  0.0547 -0.7899
15693TIP3    H268571   2.159   0.070   3.620 -1.4722 -2.4802 -1.5548
15694TIP3   OH268572   5.103   5.774  15.848 -0.2964  0.4535 -0.8492
15694TIP3    H168573   5.182   5.822  15.875  1.7692 -2.6027 -1.2275
15694TIP3    H268574   5.096   5.790  15.754  1.8462 -1.9237 -1.4634
15695TIP3   OH268575   6.721   5.228   0.606 -0.5231  0.0189  0.1634
15695TIP3    H168576   6.799   5.202   0.653 -0.7074  0.2715  0.6110
15695TIP3    H268577   6.729   5.323   0.597  0.1396 -0.1646 -1.4444
15696TIP3   OH268578   1.347   2.520   3.541  0.3003  0.1891  0.0942
15696TIP3    H168579   1.351   2.613   3.520  1.6725  0.1916  0.3370
15696TIP3    H268580   1.396   2.476   3.472  0.6652 -0.2410  0.6164
15697TIP3   OH268581   2.937   4.003   0.555 -0.3804 -0.2443  0.5089
15697TIP3    H168582   3.028   4.023   0.576 -0.5691 -0.5833  1.6984
15697TIP3    H268583   2.922   3.916   0.592 -1.8763  0.8350  2.5253
15698TIP3   OH268584   0.271   5.147   3.700  0.0533 -0.3269 -0.0840
15698TIP3    H168585   0.329   5.192   3.639 -0.5281 -0.1192 -0.4835
15698TIP3    H268586   0.318   5.066   3.723  0.3272 -0.3418 -0.7007
15699TIP3   OH268587   5.833   5.638  13.978  0.5156  0.2034  0.6293
15699TIP3    H168588   5.827   5.625  14.072 -1.6618 -0.0816  0.4977
15699TIP3    H268589   5.761   5.585  13.942 -0.9021  3.0370 -0.9050
15700TIP3   OH268590   5.906   1.200  12.332 -0.5655  0.2909  0.4618
15700TIP3    H168591   5.975   1.135  12.318 -1.5240 -0.8631  0.9644
15700TIP3    H268592   5.884   1.231  12.244  0.9731  1.0771  0.3450
15701TIP3   OH268593   2.122   3.393  12.750  0.8357  0.0274  0.5720
15701TIP3    H168594   2.150   3.305  12.776  0.2566 -0.4655 -0.4504
15701TIP3    H268595   2.085   3.431  12.831 -0.5470 -1.3317  0.6105
15702TIP3   OH268596   2.414   1.814   2.349 -0.2889 -0.4352  0.0983
15702TIP3    H168597   2.372   1.889   2.307 -0.5063  0.0844  1.2156
15702TIP3    H268598   2.489   1.794   2.293 -1.3467 -0.6265 -1.2693
15703TIP3   OH268599   1.900   3.601  12.219 -0.2644  0.2122 -0.5304
15703TIP3    H168600   1.881   3.507  12.229 -2.2075  0.6438  0.0158
15703TIP3    H268601   1.968   3.605  12.151 -2.1485 -1.4101 -2.5759
15704TIP3   OH268602   5.252   6.029  13.020 -0.2951 -0.3224  1.1662
15704TIP3    H168603   5.311   5.984  13.081  1.5835 -0.8145 -0.9560
15704TIP3    H268604   5.222   6.105  13.069  1.1864 -0.6965  2.7312
15705TIP3   OH268605   6.178   0.481  14.316  0.1950 -0.3692  0.1081
15705TIP3    H168606   6.187   0.535  14.394 -0.1335  0.4000 -0.3779
15705TIP3    H268607   6.088   0.448  14.321 -0.4077  1.0713 -0.8117
15706TIP3   OH268608   4.901   0.938  12.497 -0.0412  0.0033 -0.5518
15706TIP3    H168609   4.925   0.944  12.590  1.6531  0.2602 -0.9792
15706TIP3    H268610   4.875   1.027  12.473 -0.6877 -0.1084 -0.2796
15707TIP3   OH268611   4.462   6.714  14.872  0.3693  0.9554  0.4094
15707TIP3    H168612   4.512   6.733  14.951 -0.2086  0.7444  0.8331
15707TIP3    H268613   4.417   6.631  14.891  0.6628  0.6176 -0.3510
15708TIP3   OH268614   3.702   1.511  16.574 -0.2219 -0.1701  0.9004
15708TIP3    H168615   3.751   1.588  16.542  0.2758 -0.8060  0.0978
15708TIP3    H268616   3.738   1.438  16.524 -3.2660 -0.4110 -1.0499
15709TIP3   OH268617   3.526   6.476   1.831 -0.0695 -0.1789 -0.5803
15709TIP3    H168618   3.522   6.381   1.842  2.3920 -0.2929 -0.4836
15709TIP3    H268619   3.583   6.506   1.901  1.1852  1.1016 -2.1222
15710TIP3   OH268620   3.226   2.642   2.207  0.2334 -0.3555 -0.7335
15710TIP3    H168621   3.303   2.685   2.243  1.3283 -0.6599 -2.6374
15710TIP3    H268622   3.155   2.664   2.268  1.4035  1.5831 -0.0160
15711TIP3   OH268623   4.511   3.921   1.773 -0.1719  0.3657 -0.2005
15711TIP3    H168624   4.422   3.906   1.742  0.9666 -1.1518 -2.9240
15711TIP3    H268625   4.530   4.011   1.746 -0.6733  0.4862 -0.1582
15712TIP3   OH268626   3.023   5.208   5.607 -0.1407  0.5379 -0.6325
15712TIP3    H168627   3.042   5.156   5.685  0.3863  1.7949  0.0946
15712TIP3    H268628   3.037   5.299   5.635 -0.1937  1.0131 -2.1163
15713TIP3   OH268629   0.278   0.746   3.611  0.0189  0.1122  0.2214
15713TIP3    H168630   0.241   0.810   3.550 -1.1122 -0.0227  0.7378
15713TIP3    H268631   0.367   0.775   3.626 -0.2609  1.1680 -0.0980
15714TIP3   OH268632   4.692   5.347  15.286  0.2662  0.3493 -0.1601
15714TIP3    H168633   4.626   5.310  15.227  0.0363  0.6786 -0.1139
15714TIP3    H268634   4.766   5.286  15.281 -0.1125 -0.1158 -0.0706
15715TIP3   OH268635   1.720   6.310  17.217 -0.6151 -0.5847  0.1122
15715TIP3    H168636   1.755   6.273  17.136  0.3605  0.6172 -0.0283
15715TIP3    H268637   1.683   6.234  17.263  1.4722 -1.8060 -0.1091
15716TIP3   OH268638   6.186   3.203   3.399 -0.2635  0.0891  0.4120
15716TIP3    H168639   6.205   3.174   3.488 -1.1611  0.1662  0.6349
15716TIP3    H268640   6.207   3.296   3.399  0.2752 -0.0315  0.3833
15717TIP3   OH268641   0.307   4.319  10.694  0.4419 -0.5444  0.2688
15717TIP3    H168642   0.392   4.346  10.728  1.0331 -1.2025 -0.6513
15717TIP3    H268643   0.314   4.224  10.685 -0.5382 -0.6477  0.5869
15718TIP3   OH268644   2.223   6.158   2.539 -0.0879 -0.6603 -1.0502
15718TIP3    H168645   2.253   6.245   2.513  0.3880 -0.7067 -0.6681
15718TIP3    H268646   2.296   6.100   2.515  0.5817 -0.6320  0.8420
15719TIP3   OH268647   5.763   2.659  15.118  0.0407  0.7335 -0.0378
15719TIP3    H168648   5.673   2.679  15.145  0.1702  0.7952  0.3508
15719TIP3    H268649   5.758   2.570  15.082  0.4072 -0.5837  2.9614
15720TIP3   OH268650   1.085   5.452  12.842  0.1531 -0.1712  0.2045
15720TIP3    H168651   1.115   5.528  12.792  3.2160 -2.0676 -0.9791
15720TIP3    H268652   1.119   5.467  12.931 -1.3965  0.9997  0.6256
15721TIP3   OH268653   0.124   4.544   2.919 -0.1151 -0.2161 -0.1088
15721TIP3    H168654   0.136   4.617   2.980  1.2355  0.1213 -0.7487
15721TIP3    H268655   0.033   4.519   2.929  0.2281 -0.5641  2.4899
15722TIP3   OH268656   0.803   0.035   3.153  0.1638  0.0516 -0.5641
15722TIP3    H168657   0.792  -0.056   3.180 -2.4125  0.3841 -0.3914
15722TIP3    H268658   0.871   0.070   3.211  0.5138 -1.4977 -0.0305
15723TIP3   OH268659   6.744   4.277  11.190 -0.0734  0.5503 -0.2524
15723TIP3    H168660   6.821   4.281  11.247  0.2635 -0.5681 -0.6167
15723TIP3    H268661   6.670   4.272  11.250  0.1755  0.9417  0.0935
15724TIP3   OH268662   4.210   2.840   2.765 -0.1846 -0.1376  0.3525
15724TIP3    H168663   4.258   2.758   2.760  0.8407  0.3433  1.8454
15724TIP3    H268664   4.153   2.840   2.688  0.8865 -1.5547 -0.4538
15725TIP3   OH268665   2.185   3.326   0.555  0.0685 -0.4405 -0.3278
15725TIP3    H168666   2.258   3.269   0.580 -0.7689 -2.0361 -1.3955
15725TIP3    H268667   2.132   3.272   0.496 -1.7502  0.8347  0.1010
15726TIP3   OH268668   4.443   4.335   6.497  0.0919 -0.1640  0.7087
15726TIP3    H168669   4.406   4.251   6.471  1.7220 -0.7712  0.3157
15726TIP3    H268670   4.437   4.336   6.592 -0.8159 -0.2944  0.6592
15727TIP3   OH268671   5.977   6.405   0.960  0.3414 -0.4429  0.2444
15727TIP3    H168672   5.894   6.453   0.957  0.5304 -0.0029  1.4901
15727TIP3    H268673   5.971   6.342   0.889 -1.3975 -0.9609  0.8043
15728TIP3   OH268674   1.515   3.338   4.867 -0.5479  0.1052 -0.0893
15728TIP3    H168675   1.465   3.309   4.791 -0.9411  0.3628  0.0727
15728TIP3    H268676   1.457   3.322   4.942  0.4600 -1.7018  0.3423
15729TIP3   OH268677   1.161   4.087   1.990 -0.0961 -0.0068  0.4157
15729TIP3    H168678   1.242   4.127   1.961  0.0859  0.0992  1.0541
15729TIP3    H268679   1.102   4.092   1.915  0.9223 -1.2938 -0.5004
15730TIP3   OH268680   4.456   6.272   0.835 -0.2963  0.2524 -0.1358
15730TIP3    H168681   4.511   6.219   0.777  1.3900  2.4863 -0.6490
15730TIP3    H268682   4.401   6.322   0.775  0.2041  1.2523  0.2369
15731TIP3   OH268683   6.743   1.092   1.026 -0.1927 -0.0478  0.6210
15731TIP3    H168684   6.686   1.167   1.011  1.8538  1.3697 -0.3682
15731TIP3    H268685   6.734   1.039   0.946  0.6547  0.7245 -0.0020
15732TIP3   OH268686   0.550   4.231  12.709  0.0574  0.9213 -0.4692
15732TIP3    H168687   0.554   4.316  12.666 -0.3594  0.5443 -1.2621
15732TIP3    H268688   0.641   4.201  12.712 -0.0169  0.5323 -1.9446
15733TIP3   OH268689   1.381   6.408   2.737 -0.5215  0.1480  0.3000
15733TIP3    H168690   1.331   6.439   2.812 -0.5935 -1.9741  1.1582
15733TIP3    H268691   1.320   6.415   2.663 -1.3977 -0.4845  0.9610
15734TIP3   OH268692   0.114   3.056  13.352  0.5109  0.2716 -0.5765
15734TIP3    H168693   0.046   3.030  13.415  1.9004 -0.3965  0.6691
15734TIP3    H268694   0.096   3.003  13.274  0.2505 -0.7074  0.1347
15735TIP3   OH268695   1.587   5.674  13.449  0.5686  0.1724 -0.2121
15735TIP3    H168696   1.549   5.762  13.452 -0.4328 -0.3053  1.7885
15735TIP3    H268697   1.556   5.638  13.366 -0.5882  1.0280 -0.1697
15736TIP3   OH268698   2.144   1.284   2.646 -0.2069 -0.1426  0.4682
15736TIP3    H168699   2.087   1.209   2.630  0.0685  0.0473 -1.5057
15736TIP3    H268700   2.226   1.262   2.600  0.5105  0.5834  1.3768
15737TIP3   OH268701   3.150   3.467  11.892  0.0163 -0.3571 -0.2432
15737TIP3    H168702   3.225   3.525  11.881  1.3873 -1.7937  1.2694
15737TIP3    H268703   3.182   3.381  11.865 -1.1748 -0.9377  0.1747
15738TIP3   OH268704   2.269   6.009  14.822  0.1216  0.3320  0.0989
15738TIP3    H168705   2.334   5.939  14.816  1.1143  1.3874 -1.7335
15738TIP3    H268706   2.319   6.087  14.843 -0.8033  0.7775  0.6652
15739TIP3   OH268707   2.982   6.589  10.731 -0.6573 -0.0999  0.4585
15739TIP3    H168708   3.062   6.597  10.783 -0.3095 -3.3498  0.4985
15739TIP3    H268709   3.010   6.602  10.641 -0.1460 -0.8326  0.5093
15740TIP3   OH268710   4.986   4.164  11.456 -0.0011 -0.0268  0.1218
15740TIP3    H168711   4.900   4.174  11.498  0.5723  0.7247  1.1393
15740TIP3    H268712   4.978   4.211  11.373  0.1219  1.9604  1.2157
15741TIP3   OH268713   2.614   5.094   1.255 -0.4031 -0.1376  0.4138
15741TIP3    H168714   2.671   5.165   1.285 -1.1540  0.5834  0.1477
15741TIP3    H268715   2.592   5.046   1.335  0.2755 -0.1944  0.5684
15742TIP3   OH268716   2.676   6.661   6.108 -0.3664  0.2975  0.3062
15742TIP3    H168717   2.698   6.710   6.187  0.5609  0.4917 -0.0612
15742TIP3    H268718   2.687   6.724   6.037  0.2334 -0.2582 -0.1106
15743TIP3   OH268719   4.245   3.874   0.047  0.6559 -0.8606  0.3520
15743TIP3    H168720   4.299   3.925  -0.013 -1.3478 -1.1749 -1.7990
15743TIP3    H268721   4.244   3.925   0.128  1.7361  0.6060 -0.5448
15744TIP3   OH268722   5.419   3.587   0.883  0.1816 -0.2816  0.2015
15744TIP3    H168723   5.349   3.529   0.854 -0.0051  0.4632 -0.8261
15744TIP3    H268724   5.433   3.647   0.811  1.1834  0.2280  0.8025
15745TIP3   OH268725   1.865   4.502  14.534  0.2641 -0.7317 -0.7158
15745TIP3    H168726   1.886   4.595  14.538 -1.0131 -0.5290  5.5304
15745TIP3    H268727   1.944   4.458  14.563  1.1094 -1.7457 -4.3505
15746TIP3   OH268728   6.790   0.802  11.575 -0.1348  0.1576  0.1679
15746TIP3    H168729   6.706   0.846  11.558 -0.8007 -1.4907 -1.0493
15746TIP3    H268730   6.856   0.868  11.557 -1.1588  1.2618  0.3926
15747TIP3   OH268731   6.097   0.247   5.309 -0.1123 -0.3736  0.1311
15747TIP3    H168732   6.097   0.341   5.295 -0.0644 -0.2655  0.8367
15747TIP3    H268733   6.006   0.226   5.333  0.5363  0.0025  3.1977
15748TIP3   OH268734   3.099   5.065   4.865  0.2318  0.3213 -0.3388
15748TIP3    H168735   3.086   5.037   4.956 -0.0128  1.6738  0.0526
15748TIP3    H268736   3.013   5.093   4.836  0.5533  1.0711 -0.5798
15749TIP3   OH268737   2.407   6.195   4.375 -0.0605  0.3158 -0.5071
15749TIP3    H168738   2.465   6.263   4.411 -0.9131  1.1494 -0.6958
15749TIP3    H268739   2.458   6.155   4.305  1.0516 -0.3175  0.6293
15750TIP3   OH268740   4.113   0.600   2.091  0.7099  0.8233  0.2108
15750TIP3    H168741   4.061   0.554   2.157  1.1901 -0.4950 -0.3226
15750TIP3    H268742   4.202   0.568   2.103  0.9479  1.1891 -0.5405
15751TIP3   OH268743   3.577   5.542   2.108  0.2438  0.0108  0.2092
15751TIP3    H168744   3.600   5.450   2.095  0.0630  0.1049 -0.7791
15751TIP3    H268745   3.662   5.586   2.118  0.4292  0.0933 -1.6989
15752TIP3   OH268746   6.702   1.465  14.160  0.5839  0.2174  0.2842
15752TIP3    H168747   6.666   1.552  14.174 -0.6491 -0.1283 -0.6123
15752TIP3    H268748   6.667   1.412  14.232 -1.7653 -0.4023 -1.2329
15753TIP3   OH268749   2.698   1.713  12.886 -0.7117  0.2586  0.6104
15753TIP3    H168750   2.784   1.750  12.867 -1.4770  2.2001  0.8838
15753TIP3    H268751   2.706   1.683  12.977 -0.4816  0.8763  0.7965
15754TIP3   OH268752   5.280   3.236   5.617  0.2603  0.4469  0.0509
15754TIP3    H168753   5.277   3.242   5.713 -0.3540 -1.1727  0.1513
15754TIP3    H268754   5.212   3.295   5.587  0.9765  1.5537  0.5851
15755TIP3   OH268755   4.257   5.097   3.873 -0.7248 -0.2854 -0.2253
15755TIP3    H168756   4.262   5.174   3.929  0.0937 -0.6900  0.2618
15755TIP3    H268757   4.222   5.028   3.930 -1.8205 -0.1855 -0.7587
15756TIP3   OH268758   0.234   4.032   1.563  0.1690  0.3644 -0.2218
15756TIP3    H168759   0.321   3.996   1.578 -0.5201 -0.1898  2.8432
15756TIP3    H268760   0.175   3.957   1.574 -0.8488  1.1943  0.0057
15757TIP3   OH268761   1.341   4.434   0.776 -0.0177 -0.0839 -0.0063
15757TIP3    H168762   1.428   4.475   0.778 -1.0883  2.3715 -1.1430
15757TIP3    H268763   1.334   4.387   0.859  2.8222 -1.2619 -0.3862
15758TIP3   OH268764   0.076   3.274   5.456 -0.5615 -0.3894  0.0940
15758TIP3    H168765   0.163   3.266   5.495 -1.0902 -1.3772  1.1237
15758TIP3    H268766   0.078   3.356   5.408  0.9026 -0.3475  0.2024
15759TIP3   OH268767   3.701   0.953   2.064 -0.4955 -0.1456 -0.4924
15759TIP3    H168768   3.767   0.902   2.111  1.2071  2.5716  0.1684
15759TIP3    H268769   3.644   0.888   2.025  1.3453 -2.5470  0.7002
15760TIP3   OH268770   0.109   5.280   4.392  0.0712 -0.3903  0.5153
15760TIP3    H168771   0.025   5.258   4.431 -0.6786  0.5934 -0.5066
15760TIP3    H268772   0.103   5.373   4.373  0.6097 -0.7093 -1.3969
15761TIP3   OH268773   2.510   6.644  12.414 -0.4856 -0.3837 -0.6859
15761TIP3    H168774   2.538   6.580  12.348  0.8873 -2.7993  2.1118
15761TIP3    H268775   2.572   6.716  12.405 -0.4954 -0.5450 -2.2122
15762TIP3   OH268776   4.131   3.811   1.735 -0.2185 -0.5888  0.6012
15762TIP3    H168777   4.123   3.845   1.823 -1.0100 -0.7788  0.6087
15762TIP3    H268778   4.095   3.722   1.740 -1.8061 -0.0237 -0.2535
15763TIP3   OH268779   5.151   2.577   3.999  0.3380  0.4713  0.2324
15763TIP3    H168780   5.122   2.668   4.003 -0.0267  0.3414  0.5578
15763TIP3    H268781   5.077   2.530   3.959  1.1411  0.5796 -1.3927
15764TIP3   OH268782   6.394   0.424  11.761 -0.4054 -0.5801  0.1487
15764TIP3    H168783   6.335   0.463  11.697  1.8982 -1.5079 -2.6420
15764TIP3    H268784   6.454   0.495  11.785  0.1491 -0.8151 -0.5030
15765TIP3   OH268785   5.615   4.260   6.277  0.2926  0.1589 -0.0503
15765TIP3    H168786   5.648   4.258   6.188 -2.2314  0.4964 -1.0522
15765TIP3    H268787   5.607   4.353   6.297 -0.8291  0.0905 -0.1491
15766TIP3   OH268788   1.595   4.862  13.138  0.1014 -0.6740  0.3018
15766TIP3    H168789   1.590   4.937  13.197  0.5114 -0.5592  0.1929
15766TIP3    H268790   1.509   4.858  13.096 -0.3715 -1.0512  1.2645
15767TIP3   OH268791   1.947   2.808   2.839 -0.3525  0.1597  0.0951
15767TIP3    H168792   1.881   2.838   2.900  0.7017  1.0072  0.8369
15767TIP3    H268793   2.023   2.865   2.855  0.1284  0.0460 -1.6079
15768TIP3   OH268794   0.084   6.298   4.765  0.8317 -0.2833  0.1496
15768TIP3    H168795   0.171   6.284   4.802  1.2401  0.8959 -0.3318
15768TIP3    H268796   0.094   6.278   4.672  0.3747 -0.9811  0.2476
15769TIP3   OH268797   0.527   1.470   5.900  0.1868 -0.5602  0.3300
15769TIP3    H168798   0.601   1.445   5.845  1.0827 -0.1740  1.3462
15769TIP3    H268799   0.515   1.396   5.959  0.6395 -0.0587  1.0591
15770TIP3   OH268800   3.206   0.361  13.348  0.2008 -0.3913  0.4764
15770TIP3    H168801   3.266   0.309  13.294  1.8273  0.3514  1.5446
15770TIP3    H268802   3.224   0.452  13.324 -1.2127 -0.1987  0.0884
15771TIP3   OH268803   5.800   5.063  14.916 -0.4276  0.1315 -0.3069
15771TIP3    H168804   5.807   4.981  14.868 -0.8439 -0.1831  0.1590
15771TIP3    H268805   5.790   5.036  15.008  1.4708  0.7383  0.0884
15772TIP3   OH268806   4.185   5.983  13.409 -0.0497  0.4655  0.0664
15772TIP3    H168807   4.188   6.000  13.314  1.6220  0.9543  0.1982
15772TIP3    H268808   4.174   6.070  13.448  0.9053  0.4441  0.3908
15773TIP3   OH268809   0.409   2.192   4.936  0.5750 -0.1918 -0.0406
15773TIP3    H168810   0.442   2.269   4.891 -0.2611 -0.0156 -0.3476
15773TIP3    H268811   0.433   2.119   4.880  1.1088 -0.1334  0.1088
15774TIP3   OH268812   6.568   0.129   3.176  0.0227  0.5676  0.3393
15774TIP3    H168813   6.540   0.060   3.236 -0.0273 -0.1377 -0.4825
15774TIP3    H268814   6.489   0.181   3.162 -0.9587 -1.4844 -2.0628
15775TIP3   OH268815   5.213   3.517  12.415  0.0152  0.4804 -0.1855
15775TIP3    H168816   5.258   3.457  12.475 -0.7847 -1.4265 -1.4686
15775TIP3    H268817   5.139   3.549  12.467  1.4486  1.7819  1.1157
15776TIP3   OH268818   3.799   6.334  10.666 -0.1132  0.4133  0.4472
15776TIP3    H168819   3.889   6.353  10.641 -0.3767  0.6898 -0.2941
15776TIP3    H268820   3.773   6.411  10.718 -0.7850  1.5822 -1.5582
15777TIP3   OH268821   5.194   3.884   1.423  0.6279  0.1942 -0.0797
15777TIP3    H168822   5.131   3.929   1.480  0.8063  1.6656 -1.0271
15777TIP3    H268823   5.279   3.918   1.450  0.8104 -0.0016 -0.4088
15778TIP3   OH268824   2.130   1.189   5.152  0.0542 -1.0030 -0.0078
15778TIP3    H168825   2.042   1.151   5.154 -0.6826  0.5161 -1.8936
15778TIP3    H268826   2.185   1.123   5.192 -2.0997 -1.5679  2.1534
15779TIP3   OH268827   5.268   4.861  12.502  0.7390 -0.0123 -0.3819
15779TIP3    H168828   5.272   4.915  12.423  2.2197  0.9804  0.3465
15779TIP3    H268829   5.351   4.812  12.501 -0.1264 -1.4906 -0.4875
15780TIP3   OH268830   6.359   5.287  12.994  0.4219  0.7966 -0.1701
15780TIP3    H168831   6.282   5.297  13.050  0.9224 -1.3196  0.9542
15780TIP3    H268832   6.326   5.298  12.905 -0.9222  1.2073  0.3651
15781TIP3   OH268833   6.101   0.785   4.517 -0.0844  0.0426 -0.1927
15781TIP3    H168834   6.151   0.729   4.458 -0.3269  0.5289 -0.8680
15781TIP3    H268835   6.163   0.808   4.587 -0.5554 -2.6774  1.1874
15782TIP3   OH268836   1.308   3.172   0.220  0.1717  0.4385  0.0323
15782TIP3    H168837   1.251   3.206   0.151 -0.4624  0.9266  0.7931
15782TIP3    H268838   1.265   3.091   0.248 -0.9165  1.5280  1.5804
15783TIP3   OH268839   0.258   5.973  17.024  0.0239  0.2898  0.1181
15783TIP3    H168840   0.339   6.013  17.054  0.0571  0.2739  0.0517
15783TIP3    H268841   0.218   6.040  16.968  2.4503 -1.5067 -4.0173
15784TIP3   OH268842   4.044   6.215  13.477  0.0349  0.5332 -0.1245
15784TIP3    H168843   4.110   6.277  13.447 -0.0268  0.6069 -0.1104
15784TIP3    H268844   3.978   6.269  13.520 -0.9051  0.6320 -1.6771
15785TIP3   OH268845   3.934   2.529   0.526  0.0297 -0.3169 -0.4019
15785TIP3    H168846   3.926   2.552   0.434 -1.6879  0.0298 -0.1895
15785TIP3    H268847   3.982   2.601   0.565 -1.1270  0.5871 -0.6321
15786TIP3   OH268848   4.815   2.914  16.272 -0.2306  0.0989 -0.2026
15786TIP3    H168849   4.752   2.901  16.201 -0.7429 -0.4234  0.3445
15786TIP3    H268850   4.891   2.954  16.229 -1.0004  0.9268 -0.8366
15787TIP3   OH268851   2.379   2.993  12.010 -0.5476 -0.0989  0.7754
15787TIP3    H168852   2.459   3.029  11.973 -1.8616  1.5095 -0.5738
15787TIP3    H268853   2.316   2.995  11.938 -1.8504 -1.2061  1.8512
15788TIP3   OH268854   5.373   0.703   1.494 -0.5147  0.0181 -0.0024
15788TIP3    H168855   5.358   0.768   1.562 -0.7700 -0.8559  0.7973
15788TIP3    H268856   5.440   0.742   1.438  1.3119 -0.1137  1.9862
15789TIP3   OH268857   5.148   2.518  15.591  0.1479 -1.0101  0.0523
15789TIP3    H168858   5.148   2.561  15.676  0.0655 -1.2216  0.1582
15789TIP3    H268859   5.187   2.583  15.531 -3.7549  0.9003 -0.5894
15790TIP3   OH268860   0.114   5.423  14.891 -0.2008  0.8599 -0.0894
15790TIP3    H168861   0.136   5.481  14.964 -1.5471  0.9995  0.2227
15790TIP3    H268862   0.085   5.481  14.822  0.5708  0.6923 -0.5612
15791TIP3   OH268863   3.040   0.590   0.396 -0.3410 -0.1815  0.3429
15791TIP3    H168864   2.993   0.656   0.344 -0.0164  0.2369  0.5781
15791TIP3    H268865   3.022   0.507   0.351  1.6896  0.4468 -1.6872
15792TIP3   OH268866   2.929   3.816   3.480  0.0430 -0.2803  0.5097
15792TIP3    H168867   2.848   3.829   3.431 -0.2638 -1.7007  0.6229
15792TIP3    H268868   2.907   3.748   3.544  1.4114 -0.8849  0.3386
15793TIP3   OH268869   5.422   3.984  16.735  0.2101  0.2775  0.6028
15793TIP3    H168870   5.479   3.989  16.658 -2.1548  0.1156 -1.2117
15793TIP3    H268871   5.469   3.927  16.796  0.9367 -1.7960 -1.7889
15794TIP3   OH268872   3.866   3.892  14.944  0.2632 -0.0080  0.2218
15794TIP3    H168873   3.803   3.827  14.976  1.5461 -0.0473  2.7972
15794TIP3    H268874   3.820   3.975  14.950  0.4190 -0.0293  2.1547
15795TIP3   OH268875   2.314   0.851   2.833 -0.3551 -0.3413 -0.1122
15795TIP3    H168876   2.353   0.855   2.745 -1.8350 -0.4180 -0.7820
15795TIP3    H268877   2.297   0.943   2.855  0.0072 -0.3229  0.0994
15796TIP3   OH268878   2.260   6.475  14.652  0.7422  0.0667  0.3597
15796TIP3    H168879   2.276   6.483  14.746  2.3370 -0.3264  0.1477
15796TIP3    H268880   2.244   6.565  14.623  1.1195  0.3068  0.8708
15797TIP3   OH268881   1.747   4.219   6.416 -0.7935 -0.5199 -0.3825
15797TIP3    H168882   1.823   4.186   6.463 -0.7543 -0.5348 -0.4571
15797TIP3    H268883   1.748   4.314   6.431 -1.7542 -0.7336  1.0964
15798TIP3   OH268884   6.141   6.360  11.579  0.4401 -0.1143 -0.3171
15798TIP3    H168885   6.208   6.390  11.641 -0.4482  1.2107  0.0307
15798TIP3    H268886   6.060   6.364  11.629 -0.1764  0.2326 -1.3421
15799TIP3   OH268887   4.313   5.682  16.014  0.0539  0.2244 -0.1426
15799TIP3    H168888   4.345   5.592  16.002 -0.8407 -0.1414  0.1165
15799TIP3    H268889   4.328   5.724  15.929  1.1908  0.0572 -0.0230
15800TIP3   OH268890   2.121   2.668  15.062 -0.2894  0.1165 -1.2894
15800TIP3    H168891   2.077   2.733  15.117 -0.3558 -1.6601  0.8507
15800TIP3    H268892   2.088   2.684  14.974 -4.0942 -0.1753 -0.0135
15801TIP3   OH268893   5.465   0.800  13.877  0.4932 -0.4786  0.4242
15801TIP3    H168894   5.474   0.715  13.834 -0.6035 -1.4792  2.1153
15801TIP3    H268895   5.552   0.840  13.869  0.2615 -0.5105 -2.8959
15802TIP3   OH268896   5.395   0.869   4.904 -0.1785 -0.0774  0.3185
15802TIP3    H168897   5.309   0.857   4.945  0.6219 -0.9128  1.8107
15802TIP3    H268898   5.412   0.785   4.861 -0.3576  0.2864 -0.4639
15803TIP3   OH268899   4.680   1.735  13.726 -0.0452  0.0106  0.2829
15803TIP3    H168900   4.678   1.684  13.645  0.9013 -0.3808  0.5000
15803TIP3    H268901   4.757   1.792  13.716  0.1195 -0.0961  0.9422
15804TIP3   OH268902   0.596   3.787   0.653  0.0244 -0.2535  0.2058
15804TIP3    H168903   0.628   3.737   0.728 -0.6657 -1.5651 -0.3682
15804TIP3    H268904   0.501   3.783   0.660 -0.0581 -0.9855 -1.1269
15805TIP3   OH268905   0.404   2.124  11.089 -0.2587  0.2902 -0.3567
15805TIP3    H168906   0.361   2.208  11.080  0.8476  0.9257  0.1740
15805TIP3    H268907   0.342   2.070  11.138 -1.1088  0.6803 -0.9936
15806TIP3   OH268908   1.047   6.525   2.264 -0.5439  0.4870 -0.2788
15806TIP3    H168909   1.114   6.544   2.198 -0.8916 -0.8766 -1.0578
15806TIP3    H268910   1.013   6.610   2.290  0.3963  1.1009 -1.0303
15807TIP3   OH268911   6.204   2.879   5.168 -0.2715 -0.7248 -0.0119
15807TIP3    H168912   6.237   2.790   5.170  1.4491 -0.0995  0.4247
15807TIP3    H268913   6.129   2.878   5.227 -0.2885 -1.8771 -0.0403
15808TIP3   OH268914   6.406   1.800  11.933 -0.5758  0.2461  0.2200
15808TIP3    H168915   6.390   1.788  11.840  0.4502  0.5937 -0.0140
15808TIP3    H268916   6.341   1.864  11.961 -1.8981 -1.0123  0.0872
15809TIP3   OH268917   2.676   4.249  16.740  0.3874  0.0179 -0.9501
15809TIP3    H168918   2.733   4.289  16.675  0.4745  0.7758 -0.4061
15809TIP3    H268919   2.616   4.195  16.689 -0.0420  1.2173 -1.7236
15810TIP3   OH268920   3.088   6.137   1.195  0.2179 -0.2082 -0.1893
15810TIP3    H168921   3.129   6.062   1.151  0.5920  1.1831 -2.2969
15810TIP3    H268922   3.002   6.144   1.154  0.1818  0.5306  0.0170
15811TIP3   OH268923   2.495   0.186   0.354  0.0889 -0.0267 -0.0637
15811TIP3    H168924   2.442   0.106   0.349  1.2013 -0.6599 -2.4780
15811TIP3    H268925   2.499   0.217   0.264 -0.0222  2.5886  0.7861
15812TIP3   OH268926   5.223   5.349  10.830  0.3799 -0.5428 -0.4897
15812TIP3    H168927   5.303   5.300  10.811 -0.1699 -2.8090  2.5802
15812TIP3    H268928   5.153   5.297  10.790  0.1312 -0.4004 -0.2421
15813TIP3   OH268929   2.475   3.094  10.816 -0.1243 -0.1219  0.4644
15813TIP3    H168930   2.442   3.171  10.863  2.0719  0.3186  1.3485
15813TIP3    H268931   2.456   3.021  10.874 -2.4078 -0.3002 -0.4701
15814TIP3   OH268932   3.993   1.236  10.966 -0.2662  0.2990  0.0939
15814TIP3    H168933   4.044   1.220  11.046  0.6645 -0.4818 -0.6356
15814TIP3    H268934   4.058   1.263  10.901 -1.3087  3.1295  0.1859
15815TIP3   OH268935   1.736   0.802  15.201  0.0186 -0.2714 -0.0528
15815TIP3    H168936   1.642   0.814  15.203  0.0979  0.5802 -0.9073
15815TIP3    H268937   1.755   0.744  15.274 -0.7151  2.5014  2.4262
15816TIP3   OH268938   4.338   1.435  12.948  0.6548 -0.2125 -0.1025
15816TIP3    H168939   4.429   1.408  12.961 -0.0660 -2.4455  0.5510
15816TIP3    H268940   4.302   1.439  13.036  0.1836  0.9123 -0.3498
15817TIP3   OH268941   4.561   2.113   5.656 -0.3022  0.2517 -0.5256
15817TIP3    H168942   4.496   2.133   5.724 -0.7337  1.7964 -1.3914
15817TIP3    H268943   4.637   2.167   5.679  0.6205 -1.3593  0.3383
15818TIP3   OH268944   1.896   3.909  13.625  0.1182 -0.5017  0.0485
15818TIP3    H168945   1.899   4.005  13.627 -3.9190 -0.2886  0.5873
15818TIP3    H268946   1.831   3.886  13.691 -1.5732 -3.4316 -2.5022
15819TIP3   OH268947   2.334   3.979  15.509 -0.0802  0.0449 -0.4868
15819TIP3    H168948   2.373   3.893  15.527 -2.0595 -0.3834  1.9474
15819TIP3    H268949   2.408   4.040  15.515  0.4064 -0.8170  3.4929
15820TIP3   OH268950   5.034   0.545   5.183  0.0812  0.0921 -1.2086
15820TIP3    H168951   5.023   0.452   5.161 -0.9727  0.3210 -1.6834
15820TIP3    H268952   4.989   0.554   5.267  1.9222 -0.2427 -0.1537
15821TIP3   OH268953   0.108   1.526  16.012  0.2533  0.4393 -0.2031
15821TIP3    H168954   0.171   1.455  16.029 -0.0329  0.2511  0.0723
15821TIP3    H268955   0.080   1.511  15.922 -0.1818 -0.0937  0.0185
15822TIP3   OH268956   4.729   2.232  15.520  0.0104 -0.1678  0.2569
15822TIP3    H168957   4.820   2.217  15.544  0.3006  1.2794  0.0508
15822TIP3    H268958   4.680   2.212  15.600  0.5217 -0.6380  0.4578
15823TIP3   OH268959   3.670   6.625  11.410 -0.0707 -0.4356 -0.3916
15823TIP3    H168960   3.653   6.716  11.435 -0.5674  0.1735 -2.8567
15823TIP3    H268961   3.608   6.607  11.339  0.2852 -2.5808 -0.1991
15824TIP3   OH268962   4.764   3.236  17.179  0.5165  0.0364 -0.2436
15824TIP3    H168963   4.729   3.307  17.233  2.2555  0.6953  0.0285
15824TIP3    H268964   4.779   3.277  17.094  2.7206  0.3381  0.2706
15825TIP3   OH268965   2.390   0.395   0.499  0.2395 -0.4063 -0.5515
15825TIP3    H168966   2.433   0.347   0.428 -1.6894 -0.4740 -1.7123
15825TIP3    H268967   2.297   0.384   0.482 -0.2436  1.9577  0.3983
15826TIP3   OH268968   5.851   1.191   2.404  0.2815 -0.0855 -0.5423
15826TIP3    H168969   5.797   1.122   2.445  0.5128 -0.3508 -0.6824
15826TIP3    H268970   5.787   1.253   2.368  0.0776  0.4923  0.7856
15827TIP3   OH268971   2.202   6.173  11.346  0.4821  0.0030  0.1894
15827TIP3    H168972   2.120   6.189  11.300  1.3153  2.6069 -0.4861
15827TIP3    H268973   2.211   6.247  11.406  1.3143 -1.3535  1.8080
15828TIP3   OH268974   4.966   1.205   1.019 -0.2268  0.1163  0.4142
15828TIP3    H168975   4.951   1.111   1.005  3.7235 -0.3792 -1.1045
15828TIP3    H268976   5.006   1.210   1.105 -0.8161  0.4699  0.6692
15829TIP3   OH268977   4.435   2.827   1.123 -0.0892 -0.4023 -1.2037
15829TIP3    H168978   4.342   2.826   1.148  0.5407  1.5888  1.4158
15829TIP3    H268979   4.446   2.910   1.076  0.8513  0.4936  0.5725
15830TIP3   OH268980   0.425   0.117   4.872  0.1554 -0.6862  0.3996
15830TIP3    H168981   0.507   0.111   4.922  1.3742  1.7763 -1.2493
15830TIP3    H268982   0.380   0.193   4.908 -1.5076 -2.0721  1.3494
15831TIP3   OH268983   5.686   5.679  10.745  0.4070 -0.0811 -0.4550
15831TIP3    H168984   5.718   5.675  10.656  1.3020 -0.1165 -0.1306
15831TIP3    H268985   5.651   5.767  10.754 -0.9517 -0.5204 -1.2677
15832TIP3   OH268986   1.373   5.662   3.706  0.4720 -0.1152 -0.1234
15832TIP3    H168987   1.364   5.708   3.622 -1.6199 -0.7311 -0.2705
15832TIP3    H268988   1.373   5.569   3.681 -1.5320 -0.3534  0.6146
15833TIP3   OH268989   0.843   0.011   0.835  0.1002  0.4779 -0.1283
15833TIP3    H168990   0.771  -0.018   0.780  0.6520  0.4673 -0.8593
15833TIP3    H268991   0.853   0.104   0.815  1.2911  0.1392 -1.2095
15834TIP3   OH268992   4.111   1.021   3.510  0.1230  0.4799  0.3062
15834TIP3    H168993   4.024   1.049   3.540  0.1387  2.0124 -1.0396
15834TIP3    H268994   4.155   0.991   3.590 -1.6055 -0.2338  1.0126
15835TIP3   OH268995   1.722   4.486  16.840  0.2276  0.4444 -0.4842
15835TIP3    H168996   1.716   4.391  16.832 -2.6053  0.6056 -0.7899
15835TIP3    H268997   1.759   4.515  16.757 -2.9103 -0.0932 -2.1237
15836TIP3   OH268998   5.139   5.578  13.410 -0.0282  0.1517  0.0517
15836TIP3    H168999   5.082   5.652  13.426 -1.2499 -0.8472  0.3462
15836TIP3    H269000   5.223   5.617  13.384  0.0536  1.6609  2.4985
15837TIP3   OH269001   4.690   3.654   5.684  0.9194  0.0470  0.3258
15837TIP3    H169002   4.701   3.748   5.669  2.9833 -0.0518  1.0758
15837TIP3    H269003   4.648   3.647   5.769  0.6842  0.3071  0.2288
15838TIP3   OH269004   2.713   6.181  11.136  0.6097 -0.3657  0.3285
15838TIP3    H169005   2.700   6.232  11.056  0.5291 -0.2375  0.4236
15838TIP3    H269006   2.695   6.243  11.207 -0.1626 -0.7032  0.4335
15839TIP3   OH269007   4.085   6.484   3.268  0.1717 -0.9477 -0.0472
15839TIP3    H169008   4.081   6.561   3.212 -0.2386 -1.1517 -0.3030
15839TIP3    H269009   4.175   6.483   3.301  0.0450 -0.1026  0.3283
15840TIP3   OH269010   5.414   4.694   1.771 -0.2841 -0.2990  0.4439
15840TIP3    H169011   5.482   4.665   1.833 -0.9488  1.7376  2.1820
15840TIP3    H269012   5.333   4.661   1.808 -0.6287  0.5105  0.4198
15841TIP3   OH269013   4.720   3.184   4.355 -0.5481 -0.1241 -0.8009
15841TIP3    H169014   4.688   3.096   4.337  1.5791 -0.9547 -0.5373
15841TIP3    H269015   4.797   3.172   4.410  0.3157  1.8519 -1.5135
15842TIP3   OH269016   4.541   6.572  14.649 -0.3991  0.1479  0.0643
15842TIP3    H169017   4.505   6.640  14.707 -3.1742 -0.5241 -0.8242
15842TIP3    H269018   4.473   6.558  14.583  1.0893 -1.9096 -1.0792
15843TIP3   OH269019   4.677   1.581  14.223  0.2133  0.4690  0.0403
15843TIP3    H169020   4.719   1.524  14.287 -1.6756  0.4051  1.2540
15843TIP3    H269021   4.589   1.544  14.212 -0.2962  1.8761 -0.7873
15844TIP3   OH269022   3.361   1.810  13.014  0.7072 -0.5282 -0.5856
15844TIP3    H169023   3.403   1.741  13.065  1.4843 -0.5604 -1.2576
15844TIP3    H269024   3.268   1.792  13.020  0.8328 -0.8472  0.3721
15845TIP3   OH269025   4.513   3.163  14.941 -0.1539  0.2727 -0.4329
15845TIP3    H169026   4.572   3.237  14.921  1.2485 -0.2622  1.5457
15845TIP3    H269027   4.559   3.087  14.905  0.4862 -0.1734  1.3026
15846TIP3   OH269028   1.234   3.581   1.127  0.0617 -1.0096  0.2426
15846TIP3    H169029   1.275   3.656   1.170 -2.8162  1.0613 -0.4315
15846TIP3    H269030   1.238   3.601   1.034 -1.5639 -1.1684  0.1104
15847TIP3   OH269031   5.706   6.346  14.563 -0.6010  0.4740  0.0280
15847TIP3    H169032   5.621   6.390  14.566 -0.8832  0.0630 -1.4423
15847TIP3    H269033   5.715   6.318  14.472  0.7851 -0.1325  0.3400
15848TIP3   OH269034   0.674   5.090  14.012  0.4136 -0.1816  0.2180
15848TIP3    H169035   0.607   5.093  14.080 -0.1483 -1.5918 -0.2657
15848TIP3    H269036   0.731   5.164  14.032 -2.8208  2.8076 -0.9523
15849TIP3   OH269037   3.120   1.826  13.372 -0.8030 -0.1565 -0.0201
15849TIP3    H169038   3.136   1.758  13.436  1.0126 -0.2776 -0.5774
15849TIP3    H269039   3.078   1.781  13.299  2.0943 -1.0984 -1.1870
15850TIP3   OH269040   2.939   3.682   5.799  0.0417 -0.5209 -0.3066
15850TIP3    H169041   2.988   3.610   5.838  1.2269  0.6187  0.3268
15850TIP3    H269042   2.866   3.697   5.860  0.8848  0.0821  0.5591
15851TIP3   OH269043   6.086   0.984   5.056 -0.0878  0.1953 -0.3928
15851TIP3    H169044   6.036   0.920   5.005  2.1729 -2.1021  0.2147
15851TIP3    H269045   6.175   0.949   5.060  0.3413  1.4107  3.2135
15852TIP3   OH269046   3.501   3.536  14.038  0.0656  0.1183 -0.1102
15852TIP3    H169047   3.492   3.621  13.996  0.8304 -0.6181 -1.7963
15852TIP3    H269048   3.448   3.477  13.985  0.0002 -0.5840  0.7207
15853TIP3   OH269049   4.411   1.909   1.444 -0.3039  0.3607  0.2383
15853TIP3    H169050   4.392   1.916   1.538 -2.7912 -2.5818  0.0303
15853TIP3    H269051   4.384   1.993   1.408  2.4405  2.2548  2.3688
15854TIP3   OH269052   5.410   4.913   1.017 -0.5354 -0.2409  0.5131
15854TIP3    H169053   5.449   4.880   1.097  0.9933  1.3668  0.4673
15854TIP3    H269054   5.316   4.905   1.031 -0.2488 -1.6576  1.7256
15855TIP3   OH269055   2.239   3.186   5.468  0.2012  0.4395  0.1760
15855TIP3    H169056   2.252   3.186   5.373  1.6697 -1.2230  0.3380
15855TIP3    H269057   2.318   3.143   5.503 -1.2180 -0.7787  1.9904
15856TIP3   OH269058   2.386   2.859  13.853 -0.5728  0.0799 -0.3852
15856TIP3    H169059   2.331   2.864  13.932  0.0340 -1.5740  0.1789
15856TIP3    H269060   2.376   2.768  13.824  2.9366 -0.6570  0.5248
15857TIP3   OH269061   0.130   6.640  16.607 -0.2322 -0.3864 -0.4898
15857TIP3    H169062   0.035   6.643  16.601 -0.1794  1.3863 -0.6149
15857TIP3    H269063   0.161   6.700  16.539  0.9018  1.0694  1.2653
15858TIP3   OH269064   3.897   3.651   1.881 -0.2883 -0.1563 -0.5346
15858TIP3    H169065   3.844   3.571   1.884 -0.4347  0.0007  2.0394
15858TIP3    H269066   3.867   3.697   1.803 -0.4701 -2.4134 -1.8601
15859TIP3   OH269067   2.692   3.629  13.389 -0.4791  0.7762 -0.8312
15859TIP3    H169068   2.660   3.602  13.303  0.8385 -0.3807 -0.9728
15859TIP3    H269069   2.780   3.661  13.373 -0.0570  0.1395  0.1543
15860TIP3   OH269070   3.957   5.929   5.654 -0.8438 -0.8811  0.1261
15860TIP3    H169071   3.960   6.010   5.705 -0.5559 -0.4443 -0.5793
15860TIP3    H269072   4.048   5.900   5.648 -1.0561 -1.8148  1.2500
15861TIP3   OH269073   5.023   3.048  16.814 -0.1151 -0.1116  0.2136
15861TIP3    H169074   5.053   3.130  16.775  0.5081 -0.4170  0.0470
15861TIP3    H269075   4.945   3.073  16.864 -0.0959  0.5292 -0.0649
15862TIP3   OH269076   4.720   4.762  13.242 -0.3363  0.6689  0.5766
15862TIP3    H169077   4.772   4.724  13.312 -0.9039  2.0636  1.7897
15862TIP3    H269078   4.629   4.749  13.270 -0.6569 -0.8644 -1.0445
15863TIP3   OH269079   6.432   1.375   3.827  1.0424 -0.1344  0.1421
15863TIP3    H169080   6.461   1.459   3.792  1.1065 -0.3768 -0.3893
15863TIP3    H269081   6.365   1.346   3.766 -0.5401  0.5561  1.5090
15864TIP3   OH269082   2.769   0.324   5.937  0.0242  0.3162 -0.6573
15864TIP3    H169083   2.851   0.370   5.920 -0.4866  1.4430 -0.1047
15864TIP3    H269084   2.701   0.387   5.914 -0.6866  0.0010  0.5431
15865TIP3   OH269085   3.569   5.648   1.223 -0.1491 -0.4237 -0.2682
15865TIP3    H169086   3.528   5.571   1.184  0.0235 -0.5421 -0.2176
15865TIP3    H269087   3.517   5.721   1.192  0.0804 -0.5044 -0.8539
15866TIP3   OH269088   3.182   0.162   2.372 -0.3875 -0.0118 -0.2414
15866TIP3    H169089   3.100   0.201   2.340  0.3137  0.1285 -1.8947
15866TIP3    H269090   3.163   0.069   2.378 -1.0287  0.1576  0.5128
15867TIP3   OH269091   5.636   0.168  13.558 -0.6751  0.1395  0.0994
15867TIP3    H169092   5.710   0.190  13.502 -1.4727  0.3710 -0.8690
15867TIP3    H269093   5.628   0.073  13.550  1.4218 -0.3088  2.6076
15868TIP3   OH269094   3.038   1.504   5.918 -0.0669 -1.2001  0.2133
15868TIP3    H169095   3.069   1.556   5.992  1.5977 -0.1900 -1.1542
15868TIP3    H269096   3.040   1.564   5.843  1.8295 -3.1367 -1.3890
15869TIP3   OH269097   3.970   3.113   1.253  0.2657 -0.1547 -0.1881
15869TIP3    H169098   3.992   3.166   1.330  0.6830 -0.2993 -0.2086
15869TIP3    H269099   3.926   3.036   1.289  3.2071 -1.7374  0.1711
15870TIP3   OH269100   5.989   2.414  11.344 -0.4455  0.0503  0.0122
15870TIP3    H169101   5.926   2.353  11.382  0.5920  0.2218  2.0777
15870TIP3    H269102   6.045   2.359  11.289  0.0342 -0.7832  1.2916
15871TIP3   OH269103   4.272   4.055  16.920 -0.1172 -0.1588  0.1557
15871TIP3    H169104   4.331   3.981  16.929  0.2300 -0.1227 -1.7360
15871TIP3    H269105   4.286   4.107  17.000  0.6894 -1.3483  0.7947
15872TIP3   OH269106   5.806   4.050   6.041 -0.4094 -0.5415 -0.2945
15872TIP3    H169107   5.834   4.058   5.950 -1.5278  2.0606 -0.4351
15872TIP3    H269108   5.882   4.079   6.092 -0.4803 -0.0739 -0.4572
15873TIP3   OH269109   0.638   0.643  15.633  0.2958  1.0052  0.4374
15873TIP3    H169110   0.581   0.685  15.697 -0.6600  0.0208  0.2493
15873TIP3    H269111   0.637   0.701  15.558 -1.4603  0.3986 -0.0323
15874TIP3   OH269112   1.798   1.399  11.805  0.1824 -0.1122  0.6729
15874TIP3    H169113   1.763   1.411  11.893 -2.1169 -0.5617 -0.1415
15874TIP3    H269114   1.779   1.481  11.760  0.7945 -0.1146  0.3994
15875TIP3   OH269115   5.867   1.843  12.214  0.0559 -0.0854 -0.0330
15875TIP3    H169116   5.846   1.913  12.152 -0.5935  1.2453  1.6364
15875TIP3    H269117   5.789   1.787  12.215 -0.2598  0.3481  0.1616
15876TIP3   OH269118   2.489   2.853   3.880 -0.3518 -0.4549  0.3353
15876TIP3    H169119   2.424   2.895   3.936  0.0072 -0.4716  0.7659
15876TIP3    H269120   2.567   2.908   3.888 -0.5167 -0.0630 -0.6991
15877TIP3   OH269121   2.932   6.118   5.323 -0.0890 -0.3808  0.2826
15877TIP3    H169122   2.967   6.201   5.291  0.0435 -0.8765 -0.8814
15877TIP3    H269123   2.840   6.119   5.297  0.1086 -0.9450 -0.4505
15878TIP3   OH269124   1.340   2.599  17.212 -0.5124 -0.0846 -0.4058
15878TIP3    H169125   1.379   2.673  17.260  0.9547 -0.1420 -1.4717
15878TIP3    H269126   1.289   2.640  17.143 -1.3784 -0.0328  0.2579
15879TIP3   OH269127   6.538   0.893  15.774 -0.1095  0.0858  0.4029
15879TIP3    H169128   6.612   0.840  15.746 -1.1322 -0.6773 -0.9139
15879TIP3    H269129   6.477   0.890  15.701 -1.0640  1.4319  1.1157
15880TIP3   OH269130   0.602   0.993   0.005 -0.0678 -0.0822  0.7075
15880TIP3    H169131   0.685   0.990   0.053  1.1463  4.5995 -0.8508
15880TIP3    H269132   0.622   0.950  -0.079  0.8207  0.9378  0.3768
15881TIP3   OH269133   3.478   5.228  14.313  0.3300  0.6960 -0.4215
15881TIP3    H169134   3.390   5.234  14.276  1.2505  3.5604 -2.3365
15881TIP3    H269135   3.536   5.233  14.237  2.1721  0.3978  0.9309
15882TIP3   OH269136   6.327   5.011  13.908  0.1607 -0.3832  0.1479
15882TIP3    H169137   6.321   4.919  13.881 -1.1719  0.0085 -0.9303
15882TIP3    H269138   6.413   5.039  13.878  0.3288 -1.1045 -0.0596
15883TIP3   OH269139   6.127   6.230   0.158 -0.4455  0.0279 -0.0723
15883TIP3    H169140   6.157   6.275   0.079 -1.1164  0.5713 -0.0198
15883TIP3    H269141   6.196   6.166   0.176  0.7580  1.3480  0.1292
15884TIP3   OH269142   1.512   4.208  14.475 -0.5713  0.6048 -0.2437
15884TIP3    H169143   1.458   4.132  14.450  0.0987 -0.2386  0.8149
15884TIP3    H269144   1.560   4.178  14.552  0.8496  1.6073 -0.7250
15885TIP3   OH269145   2.741   6.441  13.090  0.0673 -0.1762  0.2741
15885TIP3    H169146   2.800   6.371  13.121 -0.7809 -0.8466  0.4121
15885TIP3    H269147   2.693   6.401  13.018 -2.3446 -0.6656  2.0601
15886TIP3   OH269148   1.699   5.353  13.749 -0.6824 -0.1345  0.2328
15886TIP3    H169149   1.711   5.295  13.824 -0.9677  0.3958  0.6911
15886TIP3    H269150   1.781   5.401  13.742 -0.0035 -1.4235 -0.8725
15887TIP3   OH269151   5.929   0.173  15.557  0.1321 -0.2576 -0.3690
15887TIP3    H169152   5.895   0.252  15.599  0.9638  0.0246 -0.2124
15887TIP3    H269153   5.979   0.129  15.626 -0.8478 -1.2380 -0.2811
15888TIP3   OH269154   6.808   5.242   1.442  0.8766 -0.0007  0.9444
15888TIP3    H169155   6.848   5.302   1.379  1.1914  1.0015  2.0702
15888TIP3    H269156   6.874   5.174   1.457  0.1904 -1.1057 -0.9763
15889TIP3   OH269157   1.378   5.443  15.292  0.1434 -0.1007 -0.1372
15889TIP3    H169158   1.435   5.372  15.261  0.1662 -0.3498  0.4681
15889TIP3    H269159   1.290   5.411  15.276  0.1448 -0.4527  0.5317
15890TIP3   OH269160   3.803   6.227  16.244  0.0147 -0.3512  0.1604
15890TIP3    H169161   3.880   6.203  16.192 -0.4416 -1.6089  0.0424
15890TIP3    H269162   3.794   6.321  16.232 -0.3144 -0.6697 -2.3746
15891TIP3   OH269163   3.218   4.639   2.235  0.2744 -0.0881  0.0136
15891TIP3    H169164   3.310   4.639   2.261 -0.1545 -2.3343  1.6755
15891TIP3    H269165   3.170   4.636   2.317 -1.3046  1.1992 -0.8480
15892TIP3   OH269166   2.651   1.412  14.101  0.5947 -0.3388 -0.0731
15892TIP3    H169167   2.609   1.423  14.016  2.2072  1.3871 -0.6831
15892TIP3    H269168   2.731   1.465  14.096 -0.5367  1.9340  3.3806
15893TIP3   OH269169   3.573   0.646   2.853 -0.5193 -0.2552 -0.7311
15893TIP3    H169170   3.652   0.605   2.888 -0.2511  0.1926 -0.8053
15893TIP3    H269171   3.599   0.736   2.833 -1.2649  0.1306  0.0092
15894TIP3   OH269172   3.239   1.081   2.168 -0.0427 -0.7113 -0.6037
15894TIP3    H169173   3.246   1.020   2.095  0.2129  0.0434 -1.2217
15894TIP3    H269174   3.220   1.166   2.127  2.0833  0.1197  0.0434
15895TIP3   OH269175   5.472   0.968  12.667 -0.4953 -0.2870  0.1763
15895TIP3    H169176   5.408   0.966  12.596  0.6217  1.0828 -0.9158
15895TIP3    H269177   5.444   1.039  12.723  0.1077  0.3839 -0.3614
15896TIP3   OH269178   5.771   6.514  11.725 -0.2736  0.0559 -0.0283
15896TIP3    H169179   5.858   6.478  11.744 -0.4636 -0.4456 -0.0892
15896TIP3    H269180   5.776   6.605  11.752  0.4332  0.1657 -0.5104
15897TIP3   OH269181   0.110   5.808  11.638 -0.6255 -0.1324 -0.6203
15897TIP3    H169182   0.069   5.895  11.632  0.8720  0.5668 -0.8012
15897TIP3    H269183   0.115   5.779  11.547  0.9316  0.5724 -0.7771
15898TIP3   OH269184   5.128   5.018  15.923  0.2547  0.3950  0.7291
15898TIP3    H169185   5.093   5.002  16.010  0.0783  1.8708  0.9338
15898TIP3    H269186   5.195   5.085  15.935  2.1993 -1.3972  0.1252
15899TIP3   OH269187   5.409   5.523  15.815 -0.4526  0.3870 -0.1004
15899TIP3    H169188   5.499   5.503  15.787 -0.1935  1.1863  0.1497
15899TIP3    H269189   5.359   5.528  15.734  0.0459  1.4837 -0.3460
15900TIP3   OH269190   6.358   0.071  14.516  0.1221  0.4033  0.6150
15900TIP3    H169191   6.313   0.085  14.432 -0.3554  1.0898  0.9795
15900TIP3    H269192   6.451   0.078  14.494  0.0104  0.3606  0.1044
15901TIP3   OH269193   5.119   1.833   3.110  0.0037  0.2197 -0.0121
15901TIP3    H169194   5.175   1.776   3.058  0.4594 -0.0456  0.7745
15901TIP3    H269195   5.030   1.807   3.086  0.2065  0.0983 -0.6541
15902TIP3   OH269196   5.475   2.924  17.001  0.1379  0.7832  0.3465
15902TIP3    H169197   5.488   2.968  16.917  0.7269 -0.0610 -0.0066
15902TIP3    H269198   5.408   2.858  16.982  1.0606 -0.1406  0.2701
15903TIP3   OH269199   4.993   4.301  12.109  0.0784 -0.4272  0.6463
15903TIP3    H169200   5.012   4.343  12.193 -2.4300 -0.0146  1.0446
15903TIP3    H269201   4.937   4.364  12.063 -0.1631 -1.4770 -0.5186
15904TIP3   OH269202   6.710   2.430   3.191 -0.1308 -0.6389  0.2500
15904TIP3    H169203   6.793   2.416   3.146 -0.1234  0.1570 -0.0005
15904TIP3    H269204   6.722   2.390   3.277 -0.0933 -2.0291 -0.3904
15905TIP3   OH269205   4.716   4.796  13.912  0.0697 -0.3002 -0.2600
15905TIP3    H169206   4.703   4.751  13.995  0.5466  0.1376  0.0541
15905TIP3    H269207   4.627   4.815  13.880 -0.1646 -2.5210 -0.9819
15906TIP3   OH269208   3.387   3.856   0.644  0.1702  0.1933 -0.1336
15906TIP3    H169209   3.340   3.916   0.702 -1.4657 -1.1897  0.0059
15906TIP3    H269210   3.335   3.776   0.645  1.2532 -0.5583 -1.8899
15907TIP3   OH269211   0.995   6.200  13.526 -0.0783 -0.0639  0.5346
15907TIP3    H169212   1.062   6.162  13.582  0.7961 -0.2965 -0.6451
15907TIP3    H269213   0.979   6.287  13.563 -0.7820 -0.8685  2.1586
15908TIP3   OH269214   1.479   6.001   3.330 -0.4043  0.4885  0.9252
15908TIP3    H169215   1.539   6.066   3.368 -0.8246  1.0634  0.6223
15908TIP3    H269216   1.405   6.053   3.298 -1.2987 -0.2611  1.7335
15909TIP3   OH269217   2.766   1.154  10.974 -0.2289 -0.1885  0.2291
15909TIP3    H169218   2.821   1.151  10.896 -0.8931 -0.8610 -0.2123
15909TIP3    H269219   2.793   1.235  11.019  0.2670  0.1098 -0.6021
15910TIP3   OH269220   6.623   0.547  13.011  0.1742 -0.5380  0.6777
15910TIP3    H169221   6.649   0.458  12.985 -1.2502 -0.8582  0.3237
15910TIP3    H269222   6.706   0.594  13.019  0.8957 -1.6352 -0.1100
15911TIP3   OH269223   3.816   5.432  13.922 -0.5034  0.3477 -0.7032
15911TIP3    H169224   3.825   5.337  13.925  2.4139  0.5803  0.2028
15911TIP3    H269225   3.811   5.458  14.014  1.2997  1.2216 -0.8230
15912TIP3   OH269226   5.091   4.459   4.756 -0.5292 -0.1893  0.1575
15912TIP3    H169227   5.175   4.480   4.796 -0.9290  0.3887  0.6881
15912TIP3    H269228   5.045   4.543   4.750 -0.8187 -0.3986 -0.7152
15913TIP3   OH269229   3.542   2.427   1.110  0.4180 -0.1322  0.1042
15913TIP3    H169230   3.514   2.341   1.076  0.0505  0.3170 -0.7510
15913TIP3    H269231   3.498   2.434   1.195  1.0634 -1.1197  0.5330
15914TIP3   OH269232   3.731   3.481   1.312 -0.1324  0.2467 -0.0348
15914TIP3    H169233   3.805   3.534   1.343 -0.0584 -0.5188  1.1038
15914TIP3    H269234   3.716   3.417   1.382 -1.4008 -0.0721 -0.5934
15915TIP3   OH269235   4.252   2.194   0.382  0.4063  0.1166  0.8868
15915TIP3    H169236   4.174   2.144   0.357 -0.1037  1.0767  0.5217
15915TIP3    H269237   4.318   2.168   0.319  0.6111 -1.2550  1.6394
15916TIP3   OH269238   0.143   2.416   5.982  0.2714  0.2656  0.0762
15916TIP3    H169239   0.207   2.383   5.918  1.1733  0.9463  0.6149
15916TIP3    H269240   0.140   2.349   6.049  0.0576  0.0034 -0.1959
15917TIP3   OH269241   4.700   3.698  15.646 -0.6310 -0.2472 -0.2865
15917TIP3    H169242   4.733   3.776  15.691  1.2543  0.3734 -2.6366
15917TIP3    H269243   4.607   3.715  15.633 -0.6387  0.7241  0.9643
15918TIP3   OH269244   2.351   5.805  12.808  0.6825 -0.5479  0.2442
15918TIP3    H169245   2.406   5.790  12.885  0.3032 -0.9405  0.4410
15918TIP3    H269246   2.272   5.753  12.824  0.8439 -1.0862 -0.6791
15919TIP3   OH269247   5.062   6.601   4.942 -0.0902 -0.2078 -0.2206
15919TIP3    H169248   5.091   6.565   5.025  1.5473  1.2660 -0.1357
15919TIP3    H269249   5.005   6.533   4.905  0.3969 -1.5076  1.3840
15920TIP3   OH269250   5.246   0.870  14.773  0.6099  0.0658  0.0226
15920TIP3    H169251   5.303   0.822  14.712  0.9299  1.5018 -0.8426
15920TIP3    H269252   5.307   0.913  14.833  0.3532  0.1047  0.2549
15921TIP3   OH269253   5.470   1.177  14.340  0.1382  0.2340 -0.2981
15921TIP3    H169254   5.385   1.149  14.374  1.5939 -1.3941  2.1771
15921TIP3    H269255   5.520   1.095  14.332  1.7578  1.2614 -0.9013
15922TIP3   OH269256   0.820   2.123   1.931  0.5922  0.1325  0.8709
15922TIP3    H169257   0.896   2.170   1.966  1.1034 -0.3617  0.4258
15922TIP3    H269258   0.848   2.093   1.844  0.0943 -0.5612  0.9467
15923TIP3   OH269259   3.640   4.880   6.074 -0.2484  0.0580 -0.2747
15923TIP3    H169260   3.658   4.791   6.043 -0.8403 -0.0610 -0.2938
15923TIP3    H269261   3.642   4.872   6.170  0.6736  0.2320 -0.2801
15924TIP3   OH269262   3.101   6.598   2.568  0.0660 -0.4966 -0.1630
15924TIP3    H169263   3.019   6.575   2.613  0.6755 -2.4815 -0.0196
15924TIP3    H269264   3.166   6.603   2.637  0.1360  0.8225 -0.3107
15925TIP3   OH269265   4.432   1.882  15.879  0.1166 -0.0019 -0.5344
15925TIP3    H169266   4.483   1.954  15.916 -0.4299 -1.0378  2.3636
15925TIP3    H269267   4.348   1.921  15.856  0.1748  0.5118  0.1031
15926TIP3   OH269268   1.452   4.723  16.796 -0.4831  0.2303 -0.3118
15926TIP3    H169269   1.526   4.694  16.742 -1.0427 -1.7396 -0.0598
15926TIP3    H269270   1.389   4.758  16.733 -0.1804  0.0311 -0.7291
15927TIP3   OH269271   3.303   6.632   4.156  0.4022  0.5916  0.2705
15927TIP3    H169272   3.367   6.621   4.086  0.2526 -1.6709  0.4408
15927TIP3    H269273   3.223   6.658   4.111  0.3104 -0.8492 -0.4056
15928TIP3   OH269274   3.301   4.022   0.839 -0.0850 -0.2587 -0.5920
15928TIP3    H169275   3.362   4.049   0.908 -1.5644 -0.1860  0.7129
15928TIP3    H269276   3.269   4.103   0.801 -1.4407 -0.2162  0.5903
15929TIP3   OH269277   5.257   0.762  16.267 -0.0664 -0.4283 -0.2867
15929TIP3    H169278   5.332   0.708  16.290 -1.8567 -2.6560  0.5523
15929TIP3    H269279   5.224   0.794  16.351 -0.5806 -0.1820 -0.5812
15930TIP3   OH269280   3.252   0.682   1.680  0.3069  0.1571  0.2076
15930TIP3    H169281   3.341   0.648   1.667  0.3727  0.5438 -0.4183
15930TIP3    H269282   3.251   0.764   1.630  0.2801  1.2875  2.0531
15931TIP3   OH269283   4.848   6.051   4.849 -0.1530  0.4576  0.1549
15931TIP3    H169284   4.819   6.040   4.758  0.5853  0.0120 -0.0292
15931TIP3    H269285   4.823   5.970   4.892  3.8053 -1.3529 -0.8097
15932TIP3   OH269286   6.596   1.164  15.004  0.8233  0.0400  0.2743
15932TIP3    H169287   6.523   1.157  14.942  0.5915  3.7097  0.0576
15932TIP3    H269288   6.667   1.114  14.962 -0.4530 -0.6205 -1.1638
15933TIP3   OH269289   0.779   6.247   3.473 -0.7049  0.0297  0.0404
15933TIP3    H169290   0.775   6.327   3.527 -0.7124  0.3182 -0.3806
15933TIP3    H269291   0.688   6.235   3.443 -0.6971 -0.1188  0.0775
15934TIP3   OH269292   3.142   0.941  16.001 -0.1202  0.8366 -0.5813
15934TIP3    H169293   3.222   0.993  15.999  1.0618 -0.8494  0.9613
15934TIP3    H269294   3.147   0.885  15.924  1.2995 -0.8573  0.7339
15935TIP3   OH269295   3.733   2.103   0.847 -0.1654 -0.2066  0.1382
15935TIP3    H169296   3.697   2.188   0.824  0.0703  0.1500  1.0676
15935TIP3    H269297   3.804   2.088   0.784 -0.8224 -0.1549 -0.6266
15936TIP3   OH269298   0.225   4.424   5.777 -0.0148 -0.0390 -0.4981
15936TIP3    H169299   0.148   4.411   5.721 -0.5850 -1.0828  0.5082
15936TIP3    H269300   0.228   4.518   5.793 -0.0447  0.2238 -1.9987
15937TIP3   OH269301   0.683   2.894   0.305  0.2009  0.1117  0.6104
15937TIP3    H169302   0.718   2.970   0.352 -0.0257 -0.4432  1.6939
15937TIP3    H269303   0.592   2.887   0.333  0.3160 -0.7651  0.7826
15938TIP3   OH269304   0.848   0.206  11.055 -0.6098 -0.0520 -0.0123
15938TIP3    H169305   0.900   0.139  11.010  0.1049 -0.4777  1.4329
15938TIP3    H269306   0.791   0.158  11.114  0.1205  0.6171  1.2613
15939TIP3   OH269307   4.569   5.167   2.028  0.2898 -0.2076  0.3661
15939TIP3    H169308   4.571   5.262   2.028 -2.7215 -0.0869  1.5210
15939TIP3    H269309   4.554   5.144   1.936 -0.0357  0.4700  0.2463
15940TIP3   OH269310   6.356   3.418   2.165 -0.8015 -0.0928 -0.2682
15940TIP3    H169311   6.395   3.381   2.085  1.4450 -1.2402  1.3081
15940TIP3    H269312   6.378   3.511   2.161  0.7206 -0.4405 -0.1960
15941TIP3   OH269313   3.316   1.665  15.725  0.5493 -0.2627 -0.0825
15941TIP3    H169314   3.275   1.751  15.716  0.7963 -0.0631  0.6315
15941TIP3    H269315   3.278   1.612  15.656  0.4565  0.4505 -0.5773
15942TIP3   OH269316   1.160   4.899   1.650 -0.2698  0.5721 -0.4405
15942TIP3    H169317   1.137   4.924   1.740 -0.2832  1.5698 -0.7152
15942TIP3    H269318   1.255   4.899   1.648 -0.1674 -3.0215  0.5460
15943TIP3   OH269319   5.760   4.023   3.127  0.2355  0.7317 -0.2662
15943TIP3    H169320   5.752   3.931   3.153 -0.6305  0.2807 -2.0560
15943TIP3    H269321   5.682   4.040   3.075  0.8227  2.2294 -0.6740
15944TIP3   OH269322   5.232   0.258   1.396  0.0908  0.3539  0.3854
15944TIP3    H169323   5.307   0.284   1.450  0.2920  0.9298 -0.1513
15944TIP3    H269324   5.224   0.329   1.332 -0.1149 -0.3294 -0.3608
15945TIP3   OH269325   1.260   0.168  12.329  0.4396 -0.2730  0.2682
15945TIP3    H169326   1.278   0.075  12.338 -0.8983 -0.5712 -0.1385
15945TIP3    H269327   1.192   0.186  12.393 -0.0894  0.1982 -0.4204
15946TIP3   OH269328   5.911   5.738  10.971  0.5722  0.1511 -0.5694
15946TIP3    H169329   5.968   5.783  11.033  0.2503 -0.2238  0.0067
15946TIP3    H269330   5.823   5.767  10.995  0.2765 -1.5022  0.4147
15947TIP3   OH269331   0.141   3.633  17.192  0.0781 -0.0021 -0.2236
15947TIP3    H169332   0.177   3.611  17.278  1.1643 -1.4868 -1.0333
15947TIP3    H269333   0.210   3.683  17.149  1.3583 -3.1083 -1.8964
15948TIP3   OH269334   4.575   6.674  16.475 -0.1356 -0.3685  0.2794
15948TIP3    H169335   4.519   6.737  16.430  0.2818 -0.4552 -0.3685
15948TIP3    H269336   4.547   6.678  16.566 -1.0392 -0.2474 -0.0008
15949TIP3   OH269337   4.002   6.232  16.498 -0.0036 -0.0590  0.2734
15949TIP3    H169338   4.020   6.143  16.466 -0.9166 -0.6598  1.3770
15949TIP3    H269339   3.935   6.265  16.438  0.5206 -0.0161 -0.2941
15950TIP3   OH269340   4.750   0.648  13.388 -0.1948  0.8947 -0.1453
15950TIP3    H169341   4.711   0.727  13.350 -0.6719 -0.1135 -1.8040
15950TIP3    H269342   4.707   0.638  13.473 -0.3738  2.2144 -0.0696
15951TIP3   OH269343   5.554   3.064  16.748 -0.1133 -0.2259  0.1146
15951TIP3    H169344   5.515   3.148  16.774  0.6193  0.5692 -1.2952
15951TIP3    H269345   5.647   3.074  16.770  0.1350 -0.3322 -0.8672
15952TIP3   OH269346   5.716   2.569  15.807 -0.2137  0.0929  0.2003
15952TIP3    H169347   5.637   2.615  15.779 -0.5183  0.3608  1.4733
15952TIP3    H269348   5.744   2.615  15.886  1.6961  0.5385 -0.6936
15953TIP3   OH269349   5.705   1.198  12.777 -0.6313 -0.4369  0.3796
15953TIP3    H169350   5.767   1.205  12.704 -0.7240  1.4871  0.4616
15953TIP3    H269351   5.755   1.154  12.846 -0.1944 -1.2809 -0.4599
15954TIP3   OH269352   0.275   3.548   4.485 -0.3301  0.1382  0.1329
15954TIP3    H169353   0.332   3.483   4.445 -1.5640 -0.8241 -0.0842
15954TIP3    H269354   0.232   3.591   4.410 -2.8545 -1.8572  0.3809
15955TIP3   OH269355   4.900   6.524  11.520 -0.5748  0.1288 -0.0889
15955TIP3    H169356   4.955   6.601  11.531  0.3420 -0.7343  1.7766
15955TIP3    H269357   4.812   6.552  11.544 -0.0237  0.3113  1.7585
15956TIP3   OH269358   3.215   5.609  11.319  0.1843  0.4187  0.1059
15956TIP3    H169359   3.271   5.680  11.286 -1.0328  0.8220 -1.1214
15956TIP3    H269360   3.251   5.530  11.279  1.7896  0.2385  1.7834
15957TIP3   OH269361   6.584   2.280  14.933  0.4690  1.0885 -0.3472
15957TIP3    H169362   6.589   2.335  14.855 -0.6751  1.8863  0.1180
15957TIP3    H269363   6.569   2.192  14.899 -1.2761  1.6149 -1.0160
15958TIP3   OH269364   1.729   0.553  16.245 -0.6373 -0.3488 -0.1992
15958TIP3    H169365   1.757   0.637  16.280  0.8238 -0.7096 -0.4670
15958TIP3    H269366   1.677   0.575  16.167  0.4938  0.2878 -0.7846
15959TIP3   OH269367   6.011   6.466   1.388 -0.2374  0.1362 -0.0916
15959TIP3    H169368   6.069   6.448   1.313 -0.8551 -1.6183 -0.1651
15959TIP3    H269369   5.964   6.545   1.362  1.5830  1.1856 -0.3402
15960TIP3   OH269370   6.252   2.012   5.138  0.4195 -0.5970 -0.0155
15960TIP3    H169371   6.244   1.916   5.132  2.0374 -0.8435  1.6067
15960TIP3    H269372   6.203   2.035   5.216  1.6347 -0.3206  0.6750
15961TIP3   OH269373   1.838   3.256  14.020 -0.7966 -0.2403  0.5071
15961TIP3    H169374   1.868   3.334  13.974  0.5972 -0.1206  1.5771
15961TIP3    H269375   1.745   3.271  14.034 -0.1527  2.2667  2.6334
15962TIP3   OH269376   2.435   4.050  14.486 -0.3068 -0.7207  0.6610
15962TIP3    H169377   2.397   4.135  14.508  0.2174  0.0821 -1.4232
15962TIP3    H269378   2.486   4.066  14.407  1.4423 -2.5475  1.3541
15963TIP3   OH269379   2.536   0.891  11.783 -0.6619  0.3196 -0.2557
15963TIP3    H169380   2.479   0.844  11.844  0.5635 -1.3128 -0.3362
15963TIP3    H269381   2.476   0.937  11.724 -1.8784 -0.7321  0.1468
15964TIP3   OH269382   2.225   4.730   1.332  0.4600 -0.2500 -1.0279
15964TIP3    H169383   2.244   4.637   1.319 -2.5795 -0.6962 -2.5560
15964TIP3    H269384   2.305   4.775   1.303  2.0810 -2.3346  0.0222
15965TIP3   OH269385   6.287   6.046   1.158  0.1625  0.0869 -0.2059
15965TIP3    H169386   6.324   6.134   1.147 -1.4341  0.7724 -0.3210
15965TIP3    H269387   6.357   5.987   1.133  0.9665  1.3561 -1.0150
15966TIP3   OH269388   6.275   0.098  12.835 -0.6449 -0.4134  0.1148
15966TIP3    H169389   6.286   0.005  12.811  3.0601  0.0769 -0.5142
15966TIP3    H269390   6.247   0.096  12.926 -0.4108 -2.1763  0.1804
15967TIP3   OH269391   6.512   3.718   4.121  0.3752 -0.3853 -0.3496
15967TIP3    H169392   6.518   3.681   4.209  3.0773  0.2661 -0.2152
15967TIP3    H269393   6.472   3.804   4.134 -2.5865 -1.6966 -0.2477
15968TIP3   OH269394   0.146   1.581   6.920 -0.1245 -0.1289  0.0680
15968TIP3    H169395   0.129   1.638   6.846  0.3134  0.4308  0.3904
15968TIP3    H269396   0.189   1.504   6.882  0.9994  0.5950 -0.1381
15969TIP3   OH269397   5.197   3.935  15.197  0.3898 -0.0500  0.1699
15969TIP3    H169398   5.227   4.016  15.240  1.1262  1.2278 -2.6142
15969TIP3    H269399   5.158   3.965  15.115 -1.3654 -2.3832  0.1292
15970TIP3   OH269400   4.857   6.718   6.030  0.1065  0.1291 -0.6635
15970TIP3    H169401   4.777   6.674   6.060 -0.8548  1.1693 -1.6759
15970TIP3    H269402   4.908   6.732   6.110 -1.9675  1.9516  0.3855
15971TIP3   OH269403   2.232   3.707   4.870  0.8320 -0.2029  0.4456
15971TIP3    H169404   2.167   3.654   4.824  0.7592 -1.1567  1.5980
15971TIP3    H269405   2.204   3.797   4.858  0.8488 -0.4278 -1.4052
15972TIP3   OH269406   2.894   0.262  15.570 -0.2866  0.4441 -0.7912
15972TIP3    H169407   2.840   0.187  15.596 -0.9689  1.9677  2.3826
15972TIP3    H269408   2.971   0.223  15.528  0.8648 -2.2520  3.5066
15973TIP3   OH269409   5.817   1.707   4.413  0.6874 -0.2394  0.0348
15973TIP3    H169410   5.883   1.679   4.476 -0.0898 -1.6184  0.2706
15973TIP3    H269411   5.808   1.632   4.354  0.9824  0.8097 -1.3710
15974TIP3   OH269412   5.644   5.539  14.886 -0.6213  0.1267  0.1582
15974TIP3    H169413   5.710   5.606  14.902 -0.2724 -0.3887  0.8986
15974TIP3    H269414   5.692   5.468  14.845 -0.9723  0.2829 -0.5276
15975TIP3   OH269415   1.112   1.053   0.809  0.2456  1.2951 -0.5804
15975TIP3    H169416   1.206   1.074   0.811  1.1435 -2.5246  0.1577
15975TIP3    H269417   1.092   1.043   0.716  1.4956 -1.5277 -0.5936
15976TIP3   OH269418   2.371   5.097   3.343  0.8134 -0.0101 -0.0264
15976TIP3    H169419   2.326   5.138   3.417 -1.3910  0.8417 -1.7460
15976TIP3    H269420   2.369   5.165   3.275  1.0480 -1.4477 -1.4822
15977TIP3   OH269421   2.464   0.748   3.526  0.8203 -0.1756 -0.3564
15977TIP3    H169422   2.497   0.677   3.581  0.2603 -0.4140 -0.3195
15977TIP3    H269423   2.535   0.767   3.466  1.7730  0.6816  1.0245
15978TIP3   OH269424   6.744   5.614   5.138  0.2444 -1.1589  0.4055
15978TIP3    H169425   6.715   5.639   5.226 -1.6482 -0.9052 -0.2574
15978TIP3    H269426   6.692   5.537   5.116 -0.4840 -0.2787 -1.0980
15979TIP3   OH269427   1.398   5.459   5.747  0.1420  0.0082  0.5882
15979TIP3    H169428   1.420   5.527   5.683  0.0055 -0.0585  0.4691
15979TIP3    H269429   1.304   5.446   5.736 -0.0498  0.6391  1.4293
15980TIP3   OH269430   6.672   5.218  17.150  0.2056 -0.3487 -0.0178
15980TIP3    H169431   6.734   5.153  17.184  0.4687 -0.6781 -1.1203
15980TIP3    H269432   6.722   5.299  17.143 -0.0413 -0.0896  1.0600
15981TIP3   OH269433   2.711   2.637  15.726 -0.2884  0.0030 -0.2363
15981TIP3    H169434   2.769   2.650  15.651 -1.2541  0.2419 -0.9657
15981TIP3    H269435   2.769   2.613  15.798  0.6604 -0.2438 -1.0646
15982TIP3   OH269436   6.576   3.517   2.590 -0.4667  0.4471  0.0635
15982TIP3    H169437   6.594   3.440   2.536 -0.2663 -0.1757  1.0060
15982TIP3    H269438   6.482   3.529   2.584 -0.4567  0.3094 -0.3446
15983TIP3   OH269439   5.511   2.849   2.741  0.2928 -0.0235  0.0557
15983TIP3    H169440   5.516   2.766   2.789  0.1332 -0.8395 -1.3175
15983TIP3    H269441   5.514   2.916   2.809 -0.3167 -1.1717  1.2389
15984TIP3   OH269442   6.347   2.617  15.402 -0.2661  0.1001 -0.5826
15984TIP3    H169443   6.362   2.645  15.492  0.0463  0.5636 -0.7826
15984TIP3    H269444   6.257   2.584  15.402 -0.0034 -0.6441  0.0837
15985TIP3   OH269445   5.891   4.938   1.487  0.0278 -0.5970  0.2921
15985TIP3    H169446   5.917   4.851   1.516 -1.2049 -1.3806 -0.9603
15985TIP3    H269447   5.850   4.925   1.402 -0.1042  1.2127  0.0510
15986TIP3   OH269448   3.906   1.612   0.860 -0.0493  0.2694 -0.4493
15986TIP3    H169449   3.908   1.576   0.771  1.0144 -1.2097  0.1522
15986TIP3    H269450   3.984   1.667   0.866  0.7443 -0.8843  0.0566
15987TIP3   OH269451   6.735   1.851  13.858 -0.4229  0.3663  0.3610
15987TIP3    H169452   6.641   1.840  13.867 -0.2919 -0.1344  1.1721
15987TIP3    H269453   6.760   1.788  13.789 -0.5198 -0.3267  0.9484
15988TIP3   OH269454   2.571   3.362   5.051 -0.0775  0.5713  0.6806
15988TIP3    H169455   2.622   3.334   4.975  0.2015  1.7148  0.4398
15988TIP3    H269456   2.480   3.363   5.019  0.3472  4.0792 -0.5925
15989TIP3   OH269457   2.485   3.679  12.927  0.0474  0.4171  0.0236
15989TIP3    H169458   2.549   3.618  12.892  0.7552  1.7182 -1.0128
15989TIP3    H269459   2.487   3.753  12.866  0.2951  2.1145  2.0168
15990TIP3   OH269460   4.558   4.977   1.200 -0.5954  0.3131 -0.2152
15990TIP3    H169461   4.505   5.005   1.275 -2.2076  1.1767 -1.6219
15990TIP3    H269462   4.568   4.883   1.211  0.2431  0.5987  1.7186
15991TIP3   OH269463   5.128   1.985  13.649  0.1956 -0.1524 -0.0852
15991TIP3    H169464   5.129   2.077  13.624  0.6182 -0.0067  0.4648
15991TIP3    H269465   5.219   1.965  13.671 -0.1342 -0.3425  1.1008
15992TIP3   OH269466   1.178   3.437   2.567  0.2467  0.0945  0.1595
15992TIP3    H169467   1.116   3.436   2.639  1.9059 -0.3340  1.6247
15992TIP3    H269468   1.152   3.364   2.511 -0.3737 -0.2572  0.9079
15993TIP3   OH269469   5.356   1.406  12.754  0.0799 -0.1165  0.2260
15993TIP3    H169470   5.427   1.449  12.802  0.0384 -1.0312  1.1124
15993TIP3    H269471   5.328   1.472  12.690  0.0689  1.1632  1.5130
15994TIP3   OH269472   0.477   4.345  14.177 -0.1071 -0.1204  0.3427
15994TIP3    H169473   0.452   4.351  14.085  0.4383 -0.5439  0.1625
15994TIP3    H269474   0.569   4.321  14.175  0.0584  0.4434  0.9983
15995TIP3   OH269475   3.082   3.491   3.766  0.4420  0.3969 -0.2699
15995TIP3    H169476   3.106   3.561   3.827 -0.8978  1.0931 -0.5189
15995TIP3    H269477   2.992   3.469   3.791  0.1542  0.1693 -1.5032
15996TIP3   OH269478   3.283   2.617  17.045  0.5058 -0.8007 -0.1725
15996TIP3    H169479   3.260   2.700  17.003  0.4261 -1.3456 -1.2109
15996TIP3    H269480   3.209   2.600  17.104  0.4665 -0.1950 -0.0386
15997TIP3   OH269481   3.241   0.464   1.458  0.0210  0.7597 -0.5053
15997TIP3    H169482   3.323   0.500   1.492  0.1206  0.4657 -0.4336
15997TIP3    H269483   3.190   0.541   1.433 -1.2513  1.1593  3.0205
15998TIP3   OH269484   1.486   3.150  15.854  0.0578  0.0346  0.0698
15998TIP3    H169485   1.453   3.228  15.809 -0.0485  1.6010  2.7016
15998TIP3    H269486   1.553   3.184  15.914  0.4534 -1.9931  0.8042
15999TIP3   OH269487   6.190   1.417   5.535 -0.4097  0.5448 -0.4430
15999TIP3    H169488   6.118   1.409   5.598  1.2114  0.5738  1.4331
15999TIP3    H269489   6.251   1.347   5.559  1.5089  2.2389 -0.2585
16000TIP3   OH269490   5.602   1.908  15.585 -0.4573  0.3646 -0.2124
16000TIP3    H169491   5.640   1.981  15.537 -0.6750 -0.7827 -2.2184
16000TIP3    H269492   5.508   1.911  15.564 -0.3966 -0.7457 -0.6864
16001TIP3   OH269493   4.446   4.581   0.170 -0.2490  0.8178 -0.0111
16001TIP3    H169494   4.426   4.610   0.081 -1.5477 -1.3744 -0.4653
16001TIP3    H269495   4.533   4.618   0.188  0.6307  0.1798 -2.6826
16002TIP3   OH269496   2.973   4.868  12.646 -0.0214  0.1792  0.0995
16002TIP3    H169497   2.973   4.937  12.712 -0.1971  1.8362 -1.6035
16002TIP3    H269498   2.895   4.816  12.666 -0.7070  1.3515  0.4845
16003TIP3   OH269499   3.476   2.226   2.300  0.8719 -0.2029 -0.5707
16003TIP3    H169500   3.542   2.292   2.320  0.9941 -0.2603 -0.7811
16003TIP3    H269501   3.416   2.270   2.239  0.2818  0.0979  0.2139
16004TIP3   OH269502   3.485   4.308   4.635 -0.2826 -0.4521 -0.1814
16004TIP3    H169503   3.438   4.276   4.712  0.9566 -1.2363  0.2621
16004TIP3    H269504   3.576   4.286   4.651  0.0283 -0.4197 -1.7687
16005TIP3   OH269505   4.495   0.268   1.441 -0.6538  0.2011 -0.0694
16005TIP3    H169506   4.411   0.224   1.454 -0.9531  1.1557  1.2456
16005TIP3    H269507   4.471   0.357   1.413 -0.0585 -0.0290 -1.3671
16006TIP3   OH269508   3.712   3.002  13.961 -0.2988 -0.6656 -0.0969
16006TIP3    H169509   3.707   2.909  13.983 -0.3745 -0.4076  0.9940
16006TIP3    H269510   3.623   3.024  13.934 -0.6249 -0.5781  1.0196
16007TIP3   OH269511   1.970   1.757   5.115  0.9186  0.2254 -0.4082
16007TIP3    H169512   1.955   1.663   5.106 -0.7889  0.4047  0.3746
16007TIP3    H269513   2.034   1.765   5.186  1.2703 -0.3434 -0.6597
16008TIP3   OH269514   0.406   5.900  12.220 -0.1695 -0.2652 -0.1828
16008TIP3    H169515   0.446   5.982  12.192 -0.3236  0.0367  0.4709
16008TIP3    H269516   0.351   5.924  12.295 -0.3628 -0.9291 -0.1065
16009TIP3   OH269517   3.616   4.049   2.522  0.4962 -0.0307  0.3989
16009TIP3    H169518   3.540   4.047   2.580  0.6986  0.9434  0.7111
16009TIP3    H269519   3.600   4.125   2.465  0.0180 -1.3206 -1.2038
16010TIP3   OH269520   3.607   5.561  13.433  0.3982 -0.3524 -0.0940
16010TIP3    H169521   3.673   5.595  13.373  2.0153 -2.7352  0.2745
16010TIP3    H269522   3.633   5.470  13.448 -2.2773 -0.9754  1.0311
16011TIP3   OH269523   5.486   5.503  13.561  0.1310 -0.6503  0.1151
16011TIP3    H169524   5.431   5.471  13.632  0.0644 -0.0716  0.3287
16011TIP3    H269525   5.436   5.576  13.524  0.3039 -0.7552 -0.3292
16012TIP3   OH269526   3.560   4.643   6.002  0.4508  0.2304  0.0745
16012TIP3    H169527   3.545   4.679   5.915  0.2154 -0.0340  0.0044
16012TIP3    H269528   3.506   4.564   6.005  0.6361  0.1148  0.3777
16013TIP3   OH269529   5.517   4.878   2.093 -0.0393  0.2160 -0.3075
16013TIP3    H169530   5.552   4.967   2.081 -0.6288  0.5541  0.5087
16013TIP3    H269531   5.594   4.825   2.112  0.3813  0.4535 -1.2865
16014TIP3   OH269532   2.376   2.619   0.940 -0.6667 -0.0303  0.5551
16014TIP3    H169533   2.411   2.640   0.853 -2.3707 -1.1350 -0.4164
16014TIP3    H269534   2.445   2.647   1.000  2.0301 -2.3342 -1.3252
16015TIP3   OH269535   2.487   2.253   1.805 -0.1015  0.0253  0.1008
16015TIP3    H169536   2.482   2.159   1.826 -0.4441 -0.1259 -0.6502
16015TIP3    H269537   2.433   2.263   1.728  1.0245  0.6170 -0.6254
16016TIP3   OH269538   2.657   2.550  12.986  0.3979 -0.4330 -0.7763
16016TIP3    H169539   2.601   2.561  13.063  1.8339 -1.5221  0.4576
16016TIP3    H269540   2.618   2.477  12.938  0.0640 -0.3927 -0.5719
16017TIP3   OH269541   3.978   4.496  13.374  0.4510 -0.0081 -0.2153
16017TIP3    H169542   3.905   4.472  13.317 -0.0603  1.5668 -0.2632
16017TIP3    H269543   4.019   4.413  13.397 -2.6688 -1.1324  1.5846
16018TIP3   OH269544   5.205   1.992   0.899 -0.4365  0.1998  0.3784
16018TIP3    H169545   5.219   2.022   0.809 -1.6798 -2.9130 -0.9075
16018TIP3    H269546   5.176   2.070   0.946  1.6746  2.2238 -1.5305
16019TIP3   OH269547   3.921   6.732   0.205 -0.6237  0.2143 -0.5682
16019TIP3    H169548   3.885   6.658   0.255 -0.4136  0.1777 -0.4702
16019TIP3    H269549   3.847   6.763   0.152 -0.5271 -0.5005 -1.1220
16020TIP3   OH269550   3.054   1.007   2.371  0.4439 -0.4584  0.2121
16020TIP3    H169551   3.137   1.036   2.333  1.6126 -2.0153  1.5093
16020TIP3    H269552   2.987   1.057   2.323  2.1274  1.0685 -0.6187
16021TIP3   OH269553   1.782   4.945  14.138 -0.3139  0.1069  0.2448
16021TIP3    H169554   1.735   4.987  14.209 -0.9883  1.2107 -0.8392
16021TIP3    H269555   1.739   4.860  14.127 -1.1082  0.5060  0.2350
16022TIP3   OH269556   5.190   4.182   1.299 -0.1577  0.1176  0.8549
16022TIP3    H169557   5.114   4.130   1.273  0.5628  0.1143 -1.3013
16022TIP3    H269558   5.265   4.129   1.272  0.5967  1.7169 -0.2126
16023TIP3   OH269559   1.184   5.694   2.304  0.2391 -0.5372  0.4104
16023TIP3    H169560   1.218   5.762   2.247 -0.1710 -0.9435 -0.3251
16023TIP3    H269561   1.262   5.650   2.339  0.5366  1.1161  1.9000
16024TIP3   OH269562   6.379   1.622  11.361  0.1885 -0.0585  0.3121
16024TIP3    H169563   6.342   1.543  11.401  0.9521  0.3142  1.7575
16024TIP3    H269564   6.420   1.669  11.433  0.4491  1.2672 -0.6866
16025TIP3   OH269565   2.745   5.494   5.868  0.5828 -0.0496 -0.1823
16025TIP3    H169566   2.656   5.458   5.872  0.7603 -0.5718 -0.8360
16025TIP3    H269567   2.735   5.576   5.820  0.3929  0.0855  0.0879
16026TIP3   OH269568   1.334   1.243   3.701 -0.0864  0.1677 -0.0621
16026TIP3    H169569   1.301   1.278   3.619 -1.0608  0.9589  0.6517
16026TIP3    H269570   1.261   1.194   3.738 -0.2239  1.2094  1.1130
16027TIP3   OH269571   4.449   4.812   5.408 -0.2616  0.1801 -0.0579
16027TIP3    H169572   4.545   4.805   5.411 -0.4250 -1.7106  2.0637
16027TIP3    H269573   4.425   4.772   5.325  0.8145  0.9868 -0.7726
16028TIP3   OH269574   4.914   0.036  14.129 -0.1085  0.1187  0.2786
16028TIP3    H169575   4.946   0.119  14.164 -1.1324  0.8538 -0.5056
16028TIP3    H269576   4.839   0.060  14.075 -0.5993 -1.3542  0.2891
16029TIP3   OH269577   5.665   1.569   3.930  0.1370  0.3080  0.4858
16029TIP3    H169578   5.707   1.495   3.973  0.0561  0.5219  0.9338
16029TIP3    H269579   5.615   1.612   3.999 -2.1729 -0.9113 -0.3866
16030TIP3   OH269580   1.302   5.969  16.504  0.5003 -0.6052 -0.8735
16030TIP3    H169581   1.381   5.986  16.555  1.1480 -2.1609 -1.3299
16030TIP3    H269582   1.329   5.978  16.413 -0.2728  0.5994 -0.9889
16031TIP3   OH269583   3.080   3.865  16.460 -0.0012 -0.0074  0.7371
16031TIP3    H169584   3.001   3.812  16.452  0.0840  0.1131 -1.1795
16031TIP3    H269585   3.048   3.953  16.482 -0.5575  0.3974 -1.5040
16032TIP3   OH269586   2.458   1.935   0.802  0.2085 -0.2717 -0.3277
16032TIP3    H169587   2.531   1.958   0.860 -0.2135  0.0712  0.0807
16032TIP3    H269588   2.394   2.006   0.816 -0.9564 -1.4885  0.6547
16033TIP3   OH269589   0.224   5.561   2.803  0.5181  0.6471 -0.1107
16033TIP3    H169590   0.263   5.604   2.726  0.4362  0.8700 -0.0290
16033TIP3    H269591   0.293   5.566   2.870  0.6773  0.2391 -0.2411
16034TIP3   OH269592   0.550   4.782   0.347  0.1238 -0.0704 -0.0223
16034TIP3    H169593   0.644   4.797   0.345 -0.0019  0.7401 -0.1104
16034TIP3    H269594   0.539   4.691   0.318  1.0030 -0.8094  1.8886
16035TIP3   OH269595   0.404   4.186   0.401  0.1090  0.0931  0.5877
16035TIP3    H169596   0.314   4.215   0.419 -0.1441 -0.7575  0.6932
16035TIP3    H269597   0.428   4.135   0.478 -0.7770 -3.1181 -1.2030
16036TIP3   OH269598   0.408   3.081   0.559 -0.3994  0.3496 -0.0963
16036TIP3    H169599   0.374   3.170   0.565 -0.9056  0.0641  1.5961
16036TIP3    H269600   0.434   3.071   0.468  0.1363  2.4017 -0.1846
16037TIP3   OH269601   5.395   2.774   4.084 -0.0631 -0.6023 -0.1929
16037TIP3    H169602   5.418   2.803   4.173  0.7235 -0.0135 -0.5742
16037TIP3    H269603   5.302   2.752   4.089 -1.0848  3.3625 -0.2270
16038TIP3   OH269604   6.381   4.566   4.447  0.2284  0.1590  0.6998
16038TIP3    H169605   6.472   4.594   4.457  0.4468 -0.0748 -0.5078
16038TIP3    H269606   6.388   4.473   4.426 -0.2228  0.4122 -0.6022
16039TIP3   OH269607   1.527   0.965  15.067 -0.1196 -0.7979 -0.2279
16039TIP3    H169608   1.431   0.960  15.064 -0.2496  1.3888 -0.3696
16039TIP3    H269609   1.554   0.949  14.977 -0.3833 -0.7274 -0.3205
16040TIP3   OH269610   0.048   6.084  14.020  0.2450 -0.0650 -0.3401
16040TIP3    H169611   0.011   6.170  14.002 -3.3256 -1.8519 -2.0121
16040TIP3    H269612   0.003   6.054  14.099 -0.8570 -1.6238 -1.5168
16041TIP3   OH269613   5.447   4.294  12.440  0.2246 -0.1668 -0.4093
16041TIP3    H169614   5.448   4.246  12.523  0.2761  1.2239  0.4180
16041TIP3    H269615   5.396   4.373  12.459 -1.7779 -0.9485 -2.3628
16042TIP3   OH269616   1.402   2.059   0.936 -0.5220 -0.1245 -0.4924
16042TIP3    H169617   1.363   2.140   0.903  2.1534  2.0701  1.4578
16042TIP3    H269618   1.404   2.070   1.031 -0.5757 -2.7126 -0.1497
16043TIP3   OH269619   1.518   4.837   5.218 -0.3190  0.7713 -0.5697
16043TIP3    H169620   1.429   4.815   5.246  0.5410  0.5411  2.1446
16043TIP3    H269621   1.538   4.918   5.264  2.4497 -1.4838  2.4017
16044TIP3   OH269622   2.819   3.223  10.970  0.4104  0.0843  0.1553
16044TIP3    H169623   2.740   3.246  11.020  0.2187  1.5223 -0.7808
16044TIP3    H269624   2.790   3.221  10.879  1.4152  0.3953 -0.1710
16045TIP3   OH269625   3.247   1.623  12.787 -0.0472  0.2119 -0.1336
16045TIP3    H169626   3.301   1.690  12.829  0.3897  0.7771 -1.5664
16045TIP3    H269627   3.157   1.646  12.812 -0.0332  2.2328 -1.8160
16046TIP3   OH269628   1.161   2.369  14.874  0.0812  0.1585 -0.0434
16046TIP3    H169629   1.161   2.326  14.788 -2.0053  1.3931 -0.6736
16046TIP3    H269630   1.111   2.310  14.930  2.3235 -1.1685  0.6316
16047TIP3   OH269631   2.152   5.498   4.225 -0.2218 -0.1847  0.1740
16047TIP3    H169632   2.211   5.512   4.151  0.2230 -1.7795  0.2083
16047TIP3    H269633   2.071   5.544   4.201  0.8294  1.5580 -0.1079
16048TIP3   OH269634   0.996   2.632  15.997  0.2442 -0.0074  1.1076
16048TIP3    H169635   0.951   2.700  15.948 -2.5606 -2.0995  0.6817
16048TIP3    H269636   0.963   2.640  16.087  1.1072  0.2119  1.4092
16049TIP3   OH269637   3.051   1.395  14.300  0.5316 -0.1252  0.5272
16049TIP3    H169638   2.980   1.379  14.362 -0.3670  0.6064 -0.3093
16049TIP3    H269639   3.130   1.365  14.346 -0.2260 -0.3288  1.7110
16050TIP3   OH269640   4.163   1.084  13.382 -0.8918  0.2134  0.4502
16050TIP3    H169641   4.224   1.031  13.330 -1.1812 -0.5559  0.8995
16050TIP3    H269642   4.147   1.161  13.327 -3.1676 -1.7406 -1.7817
16051TIP3   OH269643   5.722   1.282  15.803 -0.3793  0.1645 -0.3982
16051TIP3    H169644   5.734   1.375  15.818 -1.3047  0.1275  0.6837
16051TIP3    H269645   5.810   1.246  15.803 -0.0907  0.8466  0.5536
16052TIP3   OH269646   5.008   2.250  15.642  0.2475 -0.5980  0.4985
16052TIP3    H169647   5.075   2.315  15.620  0.1437 -0.5406  0.3524
16052TIP3    H269648   4.947   2.297  15.699 -0.4165 -0.2579 -0.4845
16053TIP3   OH269649   1.446   0.769  13.402 -0.5562  0.1677  0.2936
16053TIP3    H169650   1.427   0.856  13.368 -1.0838  0.1405  0.5102
16053TIP3    H269651   1.474   0.719  13.325  1.2585  0.9415  0.4344
16054TIP3   OH269652   3.365   3.555   3.410 -0.1875 -0.7584 -0.4391
16054TIP3    H169653   3.420   3.572   3.486  0.1470 -0.3497 -0.7696
16054TIP3    H269654   3.277   3.578   3.438  0.2429  1.5119 -0.8602
16055TIP3   OH269655   0.183   3.415   1.268 -0.1891  0.5240 -0.0946
16055TIP3    H169656   0.108   3.356   1.277  0.7670 -1.0903 -2.2868
16055TIP3    H269657   0.220   3.420   1.356 -2.2062  0.4713  0.7923
16056TIP3   OH269658   1.566   1.795   4.607 -0.0700  0.2503  0.6694
16056TIP3    H169659   1.609   1.787   4.521 -1.2361  1.0386 -0.0047
16056TIP3    H269660   1.624   1.749   4.667 -1.4251 -4.2846 -1.2680
16057TIP3   OH269661   5.298   5.642   0.179 -0.3337 -0.0014  0.1170
16057TIP3    H169662   5.225   5.599   0.224 -0.3962  0.4754  0.4710
16057TIP3    H269663   5.322   5.714   0.236  0.0860  0.1471 -0.2481
16058TIP3   OH269664   2.244   2.919  14.084 -0.2755  0.0508  0.1325
16058TIP3    H169665   2.192   2.840  14.101 -1.6246  0.0616 -3.4551
16058TIP3    H269666   2.186   2.991  14.109 -0.0610 -0.0090  0.8313
16059TIP3   OH269667   5.050   0.664  12.089  0.7548 -0.1529 -0.5111
16059TIP3    H169668   5.065   0.716  12.011 -0.5829 -0.5023 -1.0292
16059TIP3    H269669   4.999   0.721  12.147  0.7502 -0.2885 -0.3788
16060TIP3   OH269670   3.777   6.663  16.661 -0.0493 -0.0922  0.4795
16060TIP3    H169671   3.810   6.684  16.574  0.3157  1.4372  0.9780
16060TIP3    H269672   3.852   6.623  16.706  0.2030  0.4769  0.5730
16061TIP3   OH269673   6.447   5.114  11.843 -0.4406  0.3891  0.2366
16061TIP3    H169674   6.519   5.053  11.858 -0.6642  0.0979  0.1357
16061TIP3    H269675   6.371   5.073  11.884 -0.1510  1.5975  2.0295
16062TIP3   OH269676   0.027   4.447  15.958 -0.2558  0.0492  0.3413
16062TIP3    H169677  -0.026   4.519  15.925 -0.9214 -0.8519 -0.5946
16062TIP3    H269678   0.110   4.488  15.984  0.1280  0.8694 -2.0439
16063TIP3   OH269679   0.796   3.806  17.096 -0.0738  0.5261 -0.1129
16063TIP3    H169680   0.734   3.829  17.027  0.8980  0.5441 -0.9860
16063TIP3    H269681   0.799   3.711  17.097  1.0472  0.5391 -1.1318
16064TIP3   OH269682   4.742   0.730   1.743 -0.4695 -0.4979  0.5537
16064TIP3    H169683   4.715   0.647   1.705 -2.4939  1.2239 -1.8842
16064TIP3    H269684   4.827   0.749   1.702 -1.1452 -0.1962 -0.7045
16065TIP3   OH269685   0.815   2.174   0.027  0.3086  0.1918 -0.1394
16065TIP3    H169686   0.867   2.094   0.035 -0.3704 -0.0843  1.7936
16065TIP3    H269687   0.800   2.183  -0.067 -1.6433 -3.2815 -0.2394
16066TIP3   OH269688   1.326   1.724   2.183 -0.0267 -0.9098 -0.1781
16066TIP3    H169689   1.376   1.774   2.247 -1.6739  1.4290 -0.6274
16066TIP3    H269690   1.238   1.719   2.220 -0.6408 -0.7563 -1.5764
16067TIP3   OH269691   2.599   0.683  16.974 -0.1266  0.1249  0.0758
16067TIP3    H169692   2.690   0.702  16.996  0.2253 -0.7273 -0.6510
16067TIP3    H269693   2.559   0.656  17.057  0.3267  0.3042  0.3536
16068TIP3   OH269694   4.940   2.512  16.298  0.3683  0.2310 -0.1229
16068TIP3    H169695   4.983   2.564  16.230 -1.0060  0.0899 -1.1325
16068TIP3    H269696   4.911   2.576  16.363  1.0047  0.4415 -0.0425
16069TIP3   OH269697   0.290   2.009  14.986  0.0481  0.1257 -0.3758
16069TIP3    H169698   0.337   2.091  14.976 -1.2699  0.6441 -2.7957
16069TIP3    H269699   0.197   2.033  14.983 -0.4144 -1.0870  2.3943
16070TIP3   OH269700   4.140   2.270   3.731  0.0054 -0.0410 -0.9445
16070TIP3    H169701   4.148   2.253   3.637 -3.7506  0.8223 -1.4913
16070TIP3    H269702   4.062   2.222   3.758  0.5446  0.4364  1.5739
16071TIP3   OH269703   3.573   6.366   2.526 -0.4740 -0.0029 -0.3231
16071TIP3    H169704   3.618   6.425   2.465 -1.6650  0.1744 -1.0490
16071TIP3    H269705   3.605   6.279   2.502 -0.2390  0.1533 -0.5898
16072TIP3   OH269706   5.467   2.923  15.713 -0.0476 -0.2352 -0.1212
16072TIP3    H169707   5.447   2.835  15.681 -0.5448  0.1309 -0.8449
16072TIP3    H269708   5.555   2.917  15.748  0.9421 -0.4105 -2.5357
16073TIP3   OH269709   3.494   0.791   3.070  0.2155 -0.1126 -0.5712
16073TIP3    H169710   3.411   0.838   3.077  0.3889  0.3370 -1.3673
16073TIP3    H269711   3.483   0.735   2.992 -0.4411 -2.3473  1.0778
16074TIP3   OH269712   3.080   3.233  17.282 -0.5153 -0.4687 -0.2452
16074TIP3    H169713   3.106   3.313  17.235 -2.6533  1.2584  1.3773
16074TIP3    H269714   3.149   3.220  17.347 -1.6114  1.8465  1.4667
16075TIP3   OH269715   5.073   3.492  11.791 -0.0673 -0.1935 -0.4093
16075TIP3    H169716   5.150   3.439  11.773 -0.9495 -1.7551  0.3615
16075TIP3    H269717   5.012   3.433  11.834 -1.8665  0.9177 -1.3593
16076TIP3   OH269718   6.058   5.519  15.696 -0.1395 -0.1716  0.4086
16076TIP3    H169719   6.059   5.591  15.759  2.7018 -0.5205  0.8086
16076TIP3    H269720   5.974   5.475  15.713 -0.6401  1.3429  2.0719
16077TIP3   OH269721   3.964   6.577   5.728  0.3616  0.7509 -0.0031
16077TIP3    H169722   3.869   6.572   5.714  0.5964 -1.5540 -0.9266
16077TIP3    H269723   3.976   6.544   5.818  0.2859  1.1065  0.1389
16078TIP3   OH269724   2.238   2.035   2.028  0.4065 -0.1171  0.1860
16078TIP3    H169725   2.149   2.057   2.003  0.9617  1.5891 -0.3619
16078TIP3    H269726   2.238   2.038   2.123 -0.4573 -1.5160  0.2370
16079TIP3   OH269727   1.507   2.305  16.593  0.2881  0.0742 -0.0552
16079TIP3    H169728   1.432   2.262  16.633 -0.1609  1.4959  0.6320
16079TIP3    H269729   1.545   2.358  16.663  1.5669 -0.1408 -0.5710
16080TIP3   OH269730   6.100   0.126   0.702 -0.1730 -0.2601 -0.6137
16080TIP3    H169731   6.061   0.039   0.696  0.4824 -0.6383  0.6224
16080TIP3    H269732   6.194   0.111   0.701 -0.0409  0.2955  1.2571
16081TIP3   OH269733   4.584   3.598  11.762 -0.2544 -0.5535  0.2514
16081TIP3    H169734   4.628   3.525  11.719  0.1865  0.0264 -0.2876
16081TIP3    H269735   4.496   3.598  11.725  0.0424 -0.2252 -0.4604
16082TIP3   OH269736   4.205   3.353  13.066 -0.1160 -0.0570 -0.0482
16082TIP3    H169737   4.282   3.383  13.017 -0.0949  1.4936  0.8925
16082TIP3    H269738   4.131   3.397  13.024 -0.2514  0.1070  0.3557
16083TIP3   OH269739   3.972   4.141  14.515  0.0872  0.1607  0.7512
16083TIP3    H169740   4.014   4.067  14.561  1.3368  1.0041  0.9957
16083TIP3    H269741   3.898   4.165  14.572  0.4926 -0.0253  1.3687
16084TIP3   OH269742   5.300   3.798   2.449  0.3230 -0.2327 -0.0650
16084TIP3    H169743   5.319   3.785   2.542 -0.2020 -3.0444 -0.3247
16084TIP3    H269744   5.223   3.854   2.448  1.4175  1.3636  1.1348
16085TIP3   OH269745   5.515   1.657  13.382  0.0074 -0.9938  0.1395
16085TIP3    H169746   5.528   1.644  13.288  0.9763  1.1311 -0.0386
16085TIP3    H269747   5.593   1.621  13.423  0.6582  0.2003 -0.0417
16086TIP3   OH269748   5.170   1.434   2.529  0.4059  0.2864  0.1066
16086TIP3    H169749   5.120   1.516   2.523 -1.2508 -0.7590 -0.8399
16086TIP3    H269750   5.151   1.389   2.446  2.6218 -0.3211 -0.0936
16087TIP3   OH269751   5.319   6.389  14.948  0.0757 -0.0584  0.1478
16087TIP3    H169752   5.246   6.376  14.888  0.3177 -0.4932 -0.0546
16087TIP3    H269753   5.396   6.394  14.892  0.2650 -0.1402  0.4010
16088TIP3   OH269754   1.810   2.566  13.592 -0.1724 -0.2363  0.1164
16088TIP3    H169755   1.872   2.638  13.604 -0.2642  0.0162 -0.8636
16088TIP3    H269756   1.864   2.493  13.563 -0.3465  0.0336 -0.9094
16089TIP3   OH269757   2.723   5.497   2.534 -0.0976  0.2195 -0.1817
16089TIP3    H169758   2.690   5.547   2.609 -1.0771 -1.6438  0.6500
16089TIP3    H269759   2.649   5.494   2.473 -0.0346 -0.2107 -0.2361
16090TIP3   OH269760   3.953   6.016   1.594 -0.3967  0.2193  0.0614
16090TIP3    H169761   3.918   6.010   1.505 -1.2066  2.2880  0.2093
16090TIP3    H269762   3.979   6.108   1.603  2.3927 -0.6271  0.9613
16091TIP3   OH269763   3.115   6.102  11.396 -0.1584  0.4829  0.2763
16091TIP3    H169764   3.163   6.169  11.347  0.6032  0.5899  1.1694
16091TIP3    H269765   3.105   6.030  11.334  0.8464  0.6010 -0.0326
16092TIP3   OH269766   5.877   3.654  13.874 -0.4719  0.3400  0.3036
16092TIP3    H169767   5.850   3.570  13.836  3.4262 -0.6730 -0.3572
16092TIP3    H269768   5.820   3.718  13.831 -0.8776 -1.5397 -2.0717
16093TIP3   OH269769   3.762   4.495   4.258  0.9814  0.0974 -0.0004
16093TIP3    H169770   3.762   4.419   4.199  0.2413 -0.0599  0.2017
16093TIP3    H269771   3.732   4.568   4.203  0.4457 -0.0176  0.1352
16094TIP3   OH269772   4.137   3.993  13.010 -0.3546  0.2716  0.2606
16094TIP3    H169773   4.063   4.053  13.001 -1.3717 -0.9299  0.4999
16094TIP3    H269774   4.179   4.018  13.092  0.3404  1.8381 -0.5367
16095TIP3   OH269775   0.853   2.370  15.874  0.8441 -0.6414  0.1025
16095TIP3    H169776   0.922   2.376  15.940 -0.2304 -0.3390  1.2105
16095TIP3    H269777   0.796   2.299  15.905 -0.6072  0.6346  0.4035
16096TIP3   OH269778   4.438   1.094   6.111 -0.1604 -0.4793 -0.2466
16096TIP3    H169779   4.504   1.076   6.177 -0.3426 -1.5683 -0.3534
16096TIP3    H269780   4.357   1.061   6.148 -0.5200  0.2020 -0.4188
16097TIP3   OH269781   4.077   2.598   3.341 -0.6099  0.2879 -0.1345
16097TIP3    H169782   4.128   2.678   3.351  1.8452 -1.1253 -0.8240
16097TIP3    H269783   3.987   2.628   3.327  0.1113  2.8766  0.4813
16098TIP3   OH269784   2.584   0.481   4.112  0.0727 -0.0553 -0.6794
16098TIP3    H169785   2.600   0.558   4.167 -0.0250 -0.4024 -0.1617
16098TIP3    H269786   2.578   0.516   4.023 -1.5490  0.7461 -0.2760
16099TIP3   OH269787   2.887   4.223  10.803  0.0298 -0.0567 -0.1570
16099TIP3    H169788   2.940   4.146  10.826  0.6346 -0.4184 -2.6949
16099TIP3    H269789   2.809   4.187  10.761 -0.0261  0.7046 -0.7069
16100TIP3   OH269790   1.680   1.498  17.222 -0.7395  0.0429 -0.2818
16100TIP3    H169791   1.764   1.522  17.259 -0.8840  0.2699 -0.1001
16100TIP3    H269792   1.686   1.404  17.207  0.2826  0.3799 -2.1511
16101TIP3   OH269793   1.644   6.570   4.445 -0.3108  0.4226  0.1127
16101TIP3    H169794   1.656   6.600   4.355 -0.4458 -0.6487 -0.2752
16101TIP3    H269795   1.619   6.478   4.436  2.8313 -0.6236  1.3411
16102TIP3   OH269796   5.215   5.730  14.732  0.0391  0.0660 -0.0946
16102TIP3    H169797   5.185   5.801  14.675 -0.7500  0.7337  1.1224
16102TIP3    H269798   5.289   5.767  14.779 -0.3160  0.0497  0.4760
16103TIP3   OH269799   0.473   0.789   5.496  0.0251 -0.8627  0.2412
16103TIP3    H169800   0.447   0.865   5.443 -2.8317 -2.0836 -0.1917
16103TIP3    H269801   0.561   0.768   5.465  0.2637  1.3221 -0.7039
16104TIP3   OH269802   0.841   2.041  16.664 -0.2297  0.7073 -0.2104
16104TIP3    H169803   0.868   2.131  16.683  0.3711  0.2537  1.1877
16104TIP3    H269804   0.860   2.029  16.571  1.3717  1.4569 -0.0007
16105TIP3   OH269805   3.330   1.223   3.272 -0.5356 -0.0189  0.1379
16105TIP3    H169806   3.349   1.248   3.362 -1.6949  0.9404  0.1319
16105TIP3    H269807   3.403   1.258   3.221  0.2220 -0.7344  0.7209
16106TIP3   OH269808   5.728   6.120  14.178  0.1502  0.5979 -0.0377
16106TIP3    H169809   5.786   6.161  14.114 -0.3813  2.2277  0.4974
16106TIP3    H269810   5.786   6.096  14.250  0.0004  3.5896  1.1523
16107TIP3   OH269811   2.419   0.312   3.835 -0.5105  0.2886  0.6868
16107TIP3    H169812   2.442   0.240   3.894 -0.7660 -1.1068 -0.8715
16107TIP3    H269813   2.328   0.296   3.812  0.2815 -0.5971 -1.9947
16108TIP3   OH269814   2.836   6.655  11.509 -0.3338  0.5317 -1.0411
16108TIP3    H169815   2.790   6.624  11.588 -1.5338 -0.4492 -2.1079
16108TIP3    H269816   2.883   6.578  11.477 -0.3293  0.7827 -1.6371
16109TIP3   OH269817   1.650   1.030   6.121 -0.5534 -0.4901  0.2779
16109TIP3    H169818   1.594   1.020   6.044  0.2839 -0.8852 -0.2781
16109TIP3    H269819   1.635   0.951   6.172 -0.8180 -0.4062  0.3286
16110TIP3   OH269820   5.690   5.098   2.436  0.3408 -0.2266 -0.2811
16110TIP3    H169821   5.730   5.093   2.523  0.2819  0.0573 -0.2374
16110TIP3    H269822   5.763   5.108   2.376  0.3386  0.2122 -0.2087
16111TIP3   OH269823   5.857   4.271   4.118 -0.1969  0.4385  0.0117
16111TIP3    H169824   5.776   4.262   4.167 -0.2293  0.5212 -0.0259
16111TIP3    H269825   5.902   4.344   4.160 -1.1411  1.8310 -1.3428
16112TIP3   OH269826   2.198   3.208   0.960  0.9279  0.1307  0.0851
16112TIP3    H169827   2.184   3.153   0.883 -2.2166 -0.7803  1.2267
16112TIP3    H269828   2.283   3.182   0.994  0.8166 -1.8708 -1.1266
16113TIP3   OH269829   3.307   2.301  11.777 -0.0280 -0.0089 -0.5948
16113TIP3    H169830   3.301   2.395  11.797 -1.9527 -0.4001  0.7957
16113TIP3    H269831   3.357   2.265  11.850  0.0860 -0.1746 -0.7555
16114TIP3   OH269832   5.810   1.003   2.819 -0.1714 -0.0573  0.3479
16114TIP3    H169833   5.804   1.044   2.733 -0.0341  0.2758  0.4968
16114TIP3    H269834   5.815   0.909   2.801 -0.0903  0.0165 -0.0080
16115TIP3   OH269835   2.327   0.359  16.186  0.5224 -0.0802 -0.7125
16115TIP3    H169836   2.340   0.343  16.092  0.6898 -0.6322 -0.6009
16115TIP3    H269837   2.233   0.374  16.195 -0.1032 -3.6214 -0.4738
16116TIP3   OH269838   5.969   4.193  12.152 -0.1806 -0.1322  0.6930
16116TIP3    H169839   6.033   4.128  12.181 -0.5180 -1.3881 -1.2968
16116TIP3    H269840   5.884   4.151  12.165 -0.5129  0.6924  1.2604
16117TIP3   OH269841   6.014   1.174  15.710 -0.0550 -0.2712 -0.8653
16117TIP3    H169842   6.032   1.118  15.634 -1.1899 -0.9186 -0.6627
16117TIP3    H269843   6.101   1.204  15.738  0.5870 -2.0158 -0.9097
16118TIP3   OH269844   2.224   3.191  16.528 -0.1121  0.3305 -0.6065
16118TIP3    H169845   2.201   3.244  16.452 -1.5111  0.9708  0.2531
16118TIP3    H269846   2.156   3.210  16.593  0.2245 -1.3315  0.2750
16119TIP3   OH269847   3.823   6.067   5.451  0.0604 -0.1259 -0.5601
16119TIP3    H169848   3.868   6.043   5.532  0.1477 -0.6035 -0.7466
16119TIP3    H269849   3.810   6.161   5.458 -1.1523 -0.3637  0.6370
16120TIP3   OH269850   1.487   5.622   2.939 -0.0380 -0.1145  0.1270
16120TIP3    H169851   1.533   5.588   2.863  0.5163 -1.8212  1.1999
16120TIP3    H269852   1.537   5.700   2.964  0.2401 -0.0002 -0.7808
16121TIP3   OH269853   3.125   0.737  17.130 -0.4841  0.8249 -0.1097
16121TIP3    H169854   3.121   0.724  17.225  0.0238  0.3903 -0.1424
16121TIP3    H269855   3.158   0.653  17.097  0.5692  1.4063 -0.5544
16122TIP3   OH269856   1.139   3.852   3.283 -0.7889  0.2748 -0.2056
16122TIP3    H169857   1.126   3.947   3.277 -1.7691  0.1719  0.1443
16122TIP3    H269858   1.164   3.837   3.374 -1.5952  0.1031 -0.0018
16123TIP3   OH269859   4.593   1.257  14.554  0.1306  0.2360 -0.1859
16123TIP3    H169860   4.633   1.219  14.632  0.5252  2.4905  0.7348
16123TIP3    H269861   4.499   1.245  14.568  0.2933 -1.4427 -0.4638
16124TIP3   OH269862   3.541   0.733  16.680 -0.8514 -0.4834  0.0097
16124TIP3    H169863   3.546   0.653  16.627  0.6931 -1.1542  1.1127
16124TIP3    H269864   3.597   0.795  16.635  0.4533 -1.0509  0.8033
16125TIP3   OH269865   3.417   0.978  12.759 -0.1383 -0.2799  0.6191
16125TIP3    H169866   3.382   1.066  12.745 -0.1452 -0.5769 -1.3900
16125TIP3    H269867   3.474   0.963  12.683 -0.7310 -2.2952  0.5426
16126TIP3   OH269868   4.419   6.033  13.998  0.1372  0.2358  0.0349
16126TIP3    H169869   4.502   6.003  14.035 -0.6753 -0.7313  1.1684
16126TIP3    H269870   4.380   6.086  14.068 -1.5464 -1.8362  0.7514
16127TIP3   OH269871   5.783   0.643  11.281  0.0089 -0.0063 -0.1797
16127TIP3    H169872   5.746   0.579  11.342 -2.3449  2.3246  0.9556
16127TIP3    H269873   5.716   0.654  11.214  0.6504  0.8009 -0.7004
16128TIP3   OH269874   6.427   6.741   0.411 -0.1999  0.4487 -0.3752
16128TIP3    H169875   6.500   6.682   0.392  0.4017  0.6168  1.4063
16128TIP3    H269876   6.406   6.780   0.326  0.1002 -1.5070 -1.3781
16129TIP3   OH269877   4.096   3.078  16.267  0.4293  0.8350  0.3811
16129TIP3    H169878   4.015   3.028  16.277  1.0765 -0.6497 -1.5485
16129TIP3    H269879   4.165   3.019  16.296  0.9882  1.4976  0.4220
16130TIP3   OH269880   5.571   0.548   1.042 -0.2824 -0.2072  0.0465
16130TIP3    H169881   5.492   0.501   1.015 -1.4411  1.9712 -0.5512
16130TIP3    H269882   5.641   0.512   0.988 -1.0899 -1.4174 -0.1965
16131TIP3   OH269883   4.606   4.670  15.884 -0.0921 -0.6409 -0.2431
16131TIP3    H169884   4.580   4.591  15.836  0.7422 -2.2944  1.9566
16131TIP3    H269885   4.659   4.638  15.957 -1.4138  1.8011  1.8699
16132TIP3   OH269886   1.397   6.120  12.403  0.2151  0.5276  0.2884
16132TIP3    H169887   1.309   6.129  12.439  0.2456 -0.8361  0.7356
16132TIP3    H269888   1.433   6.043  12.447  1.6123  1.0396  0.0659
16133TIP3   OH269889   6.763   0.274  16.157 -0.3400 -0.2168  0.0935
16133TIP3    H169890   6.809   0.239  16.081  0.5268 -0.9596  0.9506
16133TIP3    H269891   6.712   0.347  16.122  2.2161  1.2446 -0.7112
16134TIP3   OH269892   6.617   2.389   4.989 -0.3959  0.1404 -0.1372
16134TIP3    H169893   6.588   2.423   5.073 -0.9573 -0.5207 -0.0546
16134TIP3    H269894   6.634   2.296   5.005 -0.1937  0.0813 -0.6676
16135TIP3   OH269895   4.256   4.431   1.252 -0.4432 -0.8039 -0.0086
16135TIP3    H169896   4.187   4.463   1.311 -1.2421 -0.1820 -1.2357
16135TIP3    H269897   4.299   4.361   1.300 -1.2983 -0.5380  1.1703
16136TIP3   OH269898   6.055   5.781  16.441  0.0944  0.1389  0.2396
16136TIP3    H169899   6.022   5.870  16.454 -0.8214 -0.4739  2.3722
16136TIP3    H269900   6.150   5.790  16.443  0.0046  0.9643  1.4130
16137TIP3   OH269901   6.493   3.584  15.746  0.3530 -0.1476  1.0332
16137TIP3    H169902   6.572   3.567  15.798  0.4433  0.2251  1.0197
16137TIP3    H269903   6.522   3.645  15.678 -0.3880  1.5598  2.2268
16138TIP3   OH269904   4.766   0.302  16.268 -0.2322 -0.5223 -0.2573
16138TIP3    H169905   4.691   0.336  16.317  1.5933  2.0890  0.8595
16138TIP3    H269906   4.791   0.222  16.314  0.3073  0.9045  2.0081
16139TIP3   OH269907   2.359   0.288  14.937 -0.4404 -0.3867 -0.0487
16139TIP3    H169908   2.315   0.216  14.891 -0.8329 -0.9242  1.1395
16139TIP3    H269909   2.413   0.330  14.870 -0.1829 -1.8144 -0.7562
16140TIP3   OH269910   2.559   3.193   5.923 -0.2952 -0.4064 -0.5962
16140TIP3    H169911   2.617   3.256   5.880 -0.0818 -0.3402 -0.2113
16140TIP3    H269912   2.618   3.128   5.961 -0.3479  0.7099  1.4711
16141TIP3   OH269913   1.458   5.485   3.485 -0.0404 -0.8086  0.1288
16141TIP3    H169914   1.499   5.488   3.399 -0.6816  0.0535 -0.1560
16141TIP3    H269915   1.401   5.562   3.487  0.3378 -0.5572  1.5071
16142TIP3   OH269916   2.254   5.562   5.414 -0.0129 -0.4397  0.2872
16142TIP3    H169917   2.257   5.492   5.349  0.4959 -1.0257  0.9371
16142TIP3    H269918   2.203   5.632   5.372  3.1334  0.5244 -2.0531
16143TIP3   OH269919   1.188   2.817  10.529  0.0772  0.5036  0.1910
16143TIP3    H169920   1.268   2.792  10.576 -0.1292  0.9739  0.8070
16143TIP3    H269921   1.187   2.761  10.452  0.4356 -0.2575  0.7347
16144TIP3   OH269922   6.496   3.225  17.070  0.7125 -0.4974  0.2300
16144TIP3    H169923   6.459   3.182  17.147  0.2746 -1.6888 -0.6265
16144TIP3    H269924   6.474   3.318  17.081  1.2460 -0.5512  1.8572
16145TIP3   OH269925   1.374   4.176   1.832 -0.0312  0.5604  0.2517
16145TIP3    H169926   1.364   4.232   1.756  1.6731 -0.8606 -1.0793
16145TIP3    H269927   1.450   4.210   1.878  1.0449 -0.6346 -0.5913
16146TIP3   OH269928   2.053   5.707   5.297 -0.2444  0.1085  0.0933
16146TIP3    H169929   2.089   5.792   5.272 -1.6103 -0.1831 -3.2199
16146TIP3    H269930   1.959   5.715   5.281 -0.5129 -1.7183  0.6377
16147TIP3   OH269931   0.524   3.941  12.496  0.3840  0.0828 -0.1252
16147TIP3    H169932   0.485   3.858  12.468  2.4142 -1.0278  0.2660
16147TIP3    H269933   0.552   3.983  12.414 -0.3982  0.2869 -0.2993
16148TIP3   OH269934   6.666   4.513   2.976  0.0096 -0.1509  0.2739
16148TIP3    H169935   6.682   4.593   2.926 -1.7615 -0.0313 -0.1191
16148TIP3    H269936   6.571   4.504   2.977  0.1374 -1.4956  1.5168
16149TIP3   OH269937   6.451   0.360   0.884 -0.1705  0.4871 -0.6616
16149TIP3    H169938   6.499   0.277   0.888 -1.6756 -0.5168 -2.2900
16149TIP3    H269939   6.434   0.383   0.975  1.1425 -0.4619 -0.1590
16150TIP3   OH269940   0.864   0.168   5.980  0.4338 -0.7693 -0.2200
16150TIP3    H169941   0.884   0.095   5.921  0.3710 -3.1959  2.6458
16150TIP3    H269942   0.793   0.136   6.035 -0.4409  1.9392  0.3013
16151TIP3   OH269943   2.984   6.723  15.272  0.5597  0.0032 -0.0389
16151TIP3    H169944   3.011   6.655  15.210  2.4038 -0.2339  0.9696
16151TIP3    H269945   2.932   6.676  15.337 -1.2350  0.2226 -1.2708
16152TIP3   OH269946   0.560   5.454   0.784 -0.0710  0.3268  0.6176
16152TIP3    H169947   0.490   5.458   0.850 -1.1586  1.0200 -0.5579
16152TIP3    H269948   0.520   5.413   0.708  1.1091 -0.2369  0.2845
16153TIP3   OH269949   1.661   1.299  14.757  0.4480  0.2820  0.1879
16153TIP3    H169950   1.620   1.383  14.739 -0.6567 -0.3850 -0.4755
16153TIP3    H269951   1.652   1.287  14.851 -1.3459 -0.0733 -0.0059
16154TIP3   OH269952   6.789   0.236   6.518  0.0271 -0.2652 -0.1050
16154TIP3    H169953   6.741   0.317   6.536 -2.0744 -1.7221  1.1220
16154TIP3    H269954   6.790   0.230   6.422 -0.1287  1.0202 -0.1967
16155TIP3   OH269955   2.777   6.769   2.860 -0.0417  0.0055  0.0373
16155TIP3    H169956   2.836   6.729   2.924  0.5698 -1.5243 -1.4751
16155TIP3    H269957   2.701   6.798   2.912  1.2592  0.4635  1.7253
16156TIP3   OH269958   4.129   5.357   3.103 -0.2621 -0.1935  0.0411
16156TIP3    H169959   4.149   5.271   3.067 -1.1645 -0.7477  0.8435
16156TIP3    H269960   4.037   5.352   3.128  0.0041  0.5856  1.2368
16157TIP3   OH269961   1.959   0.497  12.789 -0.0387 -0.8294  0.2925
16157TIP3    H169962   1.896   0.428  12.769 -0.6351 -0.6810  1.5968
16157TIP3    H269963   2.008   0.463  12.864  1.0638 -0.7041 -0.3623
16158TIP3   OH269964   1.462   3.202  13.693  0.6325  0.1293  0.5092
16158TIP3    H169965   1.546   3.158  13.710  1.2311  1.5509  1.2972
16158TIP3    H269966   1.405   3.172  13.763  0.7934 -0.0104  0.5818
16159TIP3   OH269967   5.377   5.787  10.874  0.1260  0.0235  0.0355
16159TIP3    H169968   5.459   5.836  10.865 -0.1114  0.4045 -0.0420
16159TIP3    H269969   5.313   5.852  10.900 -0.1494 -0.2822  0.1219
16160TIP3   OH269970   0.714   3.180   5.522 -0.0072  0.0231  0.0293
16160TIP3    H169971   0.791   3.142   5.481 -1.4751 -1.4210 -1.4742
16160TIP3    H269972   0.700   3.129   5.602  0.3131 -0.0183  0.0565
16161TIP3   OH269973   6.689   4.705   3.471  0.4581 -0.3804  0.0570
16161TIP3    H169974   6.723   4.669   3.389  1.4963  0.8944 -0.0944
16161TIP3    H269975   6.640   4.783   3.444  0.1330 -0.4113  0.5664
16162TIP3   OH269976   1.240   6.319   3.965 -0.3256 -0.1813 -0.0225
16162TIP3    H169977   1.268   6.382   4.032  2.3064 -1.0483 -0.2424
16162TIP3    H269978   1.257   6.233   4.005  0.0792 -0.7167 -1.3219
16163TIP3   OH269979   5.470   0.362  17.065 -0.1373  0.2048 -0.2861
16163TIP3    H169980   5.561   0.373  17.093  0.3859 -2.8817 -0.5777
16163TIP3    H269981   5.423   0.337  17.144 -0.1127 -1.1499 -0.6780
16164TIP3   OH269982   5.258   0.902   0.987 -0.1246  0.0440 -0.2195
16164TIP3    H169983   5.299   0.939   0.908  2.2130  0.3610  1.1101
16164TIP3    H269984   5.240   0.978   1.042 -0.7841 -0.2805  0.0170
16165TIP3   OH269985   4.960   6.537   5.858 -0.3224 -0.2799  0.2696
16165TIP3    H169986   4.953   6.618   5.908 -2.3061  0.0388 -0.4811
16165TIP3    H269987   4.972   6.566   5.767  0.7001 -0.8360  0.2282
16166TIP3   OH269988   0.375   6.395   4.908  0.0880 -0.0266  0.0438
16166TIP3    H169989   0.356   6.484   4.878  1.5915  0.2334 -0.1658
16166TIP3    H269990   0.424   6.407   4.989  0.2289 -0.6611  0.0528
16167TIP3   OH269991   1.330   6.191  15.733  0.1347 -0.1819  0.2043
16167TIP3    H169992   1.322   6.202  15.828  0.3189  1.0553  0.0873
16167TIP3    H269993   1.259   6.131  15.710  0.6776 -1.2278  1.2496
16168TIP3   OH269994   2.255   3.076  15.224 -0.6609  0.3459  0.3298
16168TIP3    H169995   2.328   3.030  15.266 -1.7884 -2.1247 -0.3383
16168TIP3    H269996   2.191   3.090  15.294 -1.3730 -1.3330  0.0223
16169TIP3   OH269997   4.265   1.209   6.420 -0.1352  0.8636 -0.1869
16169TIP3    H169998   4.251   1.206   6.515  0.3510  0.2494 -0.1388
16169TIP3    H269999   4.213   1.137   6.385  1.3364 -0.2173 -0.1901
16170TIP3   OH270000   3.933   3.554   0.862 -0.2549 -0.0073  0.5646
16170TIP3    H170001   4.012   3.599   0.890  2.6858 -4.1803 -0.6116
16170TIP3    H270002   3.933   3.562   0.766  0.0448 -1.9706  0.3723
16171TIP3   OH270003   1.183   2.224  11.563  0.3346 -0.2473 -0.3857
16171TIP3    H170004   1.213   2.149  11.512 -0.5856  0.2891 -1.7645
16171TIP3    H270005   1.104   2.254  11.517 -1.5764 -0.8321  2.3630
16172TIP3   OH270006   0.444   3.612   6.396  0.2570 -0.0944  0.3029
16172TIP3    H170007   0.364   3.562   6.411  1.0723 -1.2078  1.0411
16172TIP3    H270008   0.424   3.700   6.426 -1.9190  0.6225 -2.9750
16173TIP3   OH270009   5.427   5.484   5.741 -0.0504 -0.7846 -0.3872
16173TIP3    H170010   5.356   5.420   5.749 -1.8804  1.2433  0.1084
16173TIP3    H270011   5.499   5.446   5.792 -1.9149 -1.3619  1.9443
16174TIP3   OH270012   3.500   1.284  11.962  0.1247  0.1663 -0.1653
16174TIP3    H170013   3.468   1.372  11.979 -0.1621  0.3776 -1.7579
16174TIP3    H270014   3.543   1.289  11.876  1.5969 -0.8542  0.4778
16175TIP3   OH270015   0.805   3.856  14.144  0.1422 -0.4077 -0.0298
16175TIP3    H170016   0.824   3.859  14.238 -1.4327 -1.8074  0.3627
16175TIP3    H270017   0.831   3.942  14.111 -0.8667  0.7077  2.0086
16176TIP3   OH270018   3.841   1.743  15.318  0.2727  0.2688 -0.5186
16176TIP3    H170019   3.750   1.710  15.317  1.2785 -2.6998 -0.4292
16176TIP3    H270020   3.855   1.772  15.408 -0.3781  0.1283 -0.3642
16177TIP3   OH270021   0.593   6.248   3.267 -0.3552  0.6279 -0.1067
16177TIP3    H170022   0.524   6.303   3.230  1.9484  2.7837 -1.3905
16177TIP3    H270023   0.671   6.305   3.267  1.4602 -1.7863  1.0648
16178TIP3   OH270024   6.586   4.046  17.228 -0.6292 -0.0811  0.1010
16178TIP3    H170025   6.595   4.012  17.317  2.0453  0.6307  0.1481
16178TIP3    H270026   6.626   3.979  17.172  0.2439  0.7431 -0.2780
16179TIP3   OH270027   0.646   5.572  14.134 -0.0040  0.1174 -0.1017
16179TIP3    H170028   0.699   5.495  14.154 -1.2422 -0.2608  1.8858
16179TIP3    H270029   0.660   5.630  14.208 -0.8449  0.8387 -0.5017
16180TIP3   OH270030   6.282   1.528   4.566  0.0487  0.2806  0.2216
16180TIP3    H170031   6.332   1.562   4.640  2.0305  0.1868 -1.0469
16180TIP3    H270032   6.208   1.481   4.606  0.8595  0.5978  2.1087
16181TIP3   OH270033   0.473   4.626  14.196 -0.6470  0.4224  0.0516
16181TIP3    H170034   0.383   4.659  14.196 -0.5613  0.6599  0.0257
16181TIP3    H270035   0.465   4.533  14.215 -0.7702  0.7966  1.8850
16182TIP3   OH270036   2.723   6.609  10.895  0.1758 -0.4837  0.5218
16182TIP3    H170037   2.767   6.602  10.980 -0.1725  2.2799  0.9766
16182TIP3    H270038   2.781   6.666  10.843 -1.3627  0.7314  0.1174
16183TIP3   OH270039   5.592   2.129  12.715  0.1984 -0.6562  0.0994
16183TIP3    H170040   5.675   2.148  12.760 -0.5408  2.0955  0.3711
16183TIP3    H270041   5.607   2.158  12.625 -0.3160 -0.5737  0.0419
16184TIP3   OH270042   5.651   5.334  16.845  0.3338  0.0075  0.1353
16184TIP3    H170043   5.730   5.340  16.899  0.6835 -0.7147 -0.3007
16184TIP3    H270044   5.658   5.250  16.801  0.1192  0.6441 -1.1499
16185TIP3   OH270045   4.988   4.385   0.585 -0.7709 -0.4381 -0.0064
16185TIP3    H170046   5.008   4.479   0.582 -0.5071 -0.5358 -2.1205
16185TIP3    H270047   5.074   4.343   0.592 -1.0243 -0.4784  3.9312
16186TIP3   OH270048   0.418   4.539  15.515  0.6280 -0.5503 -0.6508
16186TIP3    H170049   0.376   4.487  15.583  0.7766 -0.8071 -0.7561
16186TIP3    H270050   0.503   4.563  15.552  0.9634 -1.2125 -0.9864
16187TIP3   OH270051   3.976   4.431   3.453  0.4707  0.1846 -0.6027
16187TIP3    H170052   3.906   4.457   3.393 -1.2523 -1.0024  0.8338
16187TIP3    H270053   3.994   4.339   3.431  0.1657 -0.1130  0.3508
16188TIP3   OH270054   4.773   0.990   0.226 -0.0167 -0.1423  0.5015
16188TIP3    H170055   4.856   0.945   0.238  1.1372  1.0291 -2.4749
16188TIP3    H270056   4.710   0.920   0.213  0.9239 -1.0008  0.5187
16189TIP3   OH270057   5.435   0.147  15.405  0.1802  0.1209 -0.2066
16189TIP3    H170058   5.452   0.241  15.410  0.0956  0.0939  0.5778
16189TIP3    H270059   5.520   0.108  15.389  0.2139  0.3285 -0.5469
16190TIP3   OH270060   5.778   3.807  14.824  0.2270 -0.4120  0.5715
16190TIP3    H170061   5.695   3.762  14.809  0.6349 -0.6959 -0.8600
16190TIP3    H270062   5.759   3.899  14.806  0.7821 -0.7808 -2.1317
16191TIP3   OH270063   2.230   2.053   1.075 -0.4081  0.4110 -0.4822
16191TIP3    H170064   2.273   2.133   1.104  0.2478  0.0466 -0.4161
16191TIP3    H270065   2.291   1.983   1.100 -0.1976  0.0189 -2.0208
16192TIP3   OH270066   0.281   3.593   2.305  0.1530  0.4175 -0.1105
16192TIP3    H170067   0.264   3.677   2.263  1.3016  0.6401 -0.1360
16192TIP3    H270068   0.367   3.568   2.274 -0.1710 -0.7580 -0.0680
16193TIP3   OH270069   0.936   5.034   5.684 -0.7970 -0.1971 -0.0727
16193TIP3    H170070   0.947   5.110   5.742 -1.2183 -0.5216  0.4303
16193TIP3    H270071   0.883   5.068   5.611  0.8502  0.5575 -0.9451
16194TIP3   OH270072   3.424   0.572  10.671 -0.3335  0.0266 -0.4601
16194TIP3    H170073   3.336   0.541  10.649 -0.7023 -0.0502  1.0128
16194TIP3    H270074   3.476   0.493  10.680 -0.8947 -0.1369  1.7480
16195TIP3   OH270075   3.941   5.411   1.563  0.8965 -0.0897  0.1562
16195TIP3    H170076   3.854   5.390   1.597 -0.1557  1.2801 -1.5757
16195TIP3    H270077   3.943   5.367   1.477  0.9219  1.9639 -0.9115
16196TIP3   OH270078   6.287   5.499  15.100  0.2391  0.0092  0.2750
16196TIP3    H170079   6.257   5.413  15.069 -1.3106  0.1546  1.2915
16196TIP3    H270080   6.223   5.561  15.066 -0.1842  0.4301  1.7804
16197TIP3   OH270081   2.022   3.084  12.667 -0.1667 -0.2354  0.1148
16197TIP3    H170082   2.034   3.113  12.576  0.8394 -0.4084  0.1820
16197TIP3    H270083   2.104   3.039  12.688 -0.4212 -0.2441  1.0887
16198TIP3   OH270084   6.746   1.099   2.908 -0.2081 -1.0486  0.0503
16198TIP3    H170085   6.717   1.131   2.822  0.5562 -0.5919 -0.0462
16198TIP3    H270086   6.768   1.179   2.956  1.0353 -1.3896  0.0629
16199TIP3   OH270087   4.928   3.890   1.578  0.5744 -0.2141 -0.6879
16199TIP3    H170088   4.874   3.869   1.654  1.0378  0.8703 -0.0556
16199TIP3    H270089   4.878   3.856   1.504 -0.8249  0.4573 -0.0767
16200TIP3   OH270090   4.852   3.519   4.413 -0.1487  0.2168 -0.0446
16200TIP3    H170091   4.888   3.562   4.491  0.3652  1.1651 -0.7856
16200TIP3    H270092   4.887   3.431   4.415 -0.0039  0.2930  0.7131
16201TIP3   OH270093   2.645   3.762   4.686 -0.4362  0.4957  0.2645
16201TIP3    H170094   2.590   3.689   4.715  0.4104 -0.0351  0.5676
16201TIP3    H270095   2.590   3.811   4.625 -1.3017  0.0737  0.6875
16202TIP3   OH270096   1.873   4.969  14.741  0.4788  0.1232  0.2727
16202TIP3    H170097   1.962   4.935  14.741  0.0724 -1.0059  2.2647
16202TIP3    H270098   1.829   4.922  14.670  0.8984 -0.8259  0.6452
16203TIP3   OH270099   5.736   1.378   3.591 -0.4422 -0.5685 -0.0765
16203TIP3    H170100   5.649   1.400   3.621  0.2821  0.7984  1.0832
16203TIP3    H270101   5.795   1.415   3.656  0.9980 -2.0302 -0.4888
16204TIP3   OH270102   2.854   5.696  12.172  0.4579  0.4643  0.3503
16204TIP3    H170103   2.916   5.767  12.186  1.7473 -0.7542  0.8499
16204TIP3    H270104   2.792   5.731  12.108  1.4814  1.7813  0.0642
16205TIP3   OH270105   5.965   5.500   4.581  0.3180 -0.3689  0.4726
16205TIP3    H170106   6.025   5.529   4.649  0.2006 -0.6304  0.6863
16205TIP3    H270107   5.940   5.411   4.606  0.6197 -0.6290 -0.1475
16206TIP3   OH270108   6.095   1.550   0.783 -0.0426  0.1250 -0.6697
16206TIP3    H170109   6.165   1.487   0.799 -0.6365 -0.3729 -0.0139
16206TIP3    H270110   6.020   1.497   0.756 -0.3837  0.5902 -0.6575
16207TIP3   OH270111   2.410   5.356  14.020 -0.2375  0.2145 -0.3802
16207TIP3    H170112   2.472   5.338  13.949  1.0745  0.6504  0.6189
16207TIP3    H270113   2.409   5.276  14.072  1.2955  0.9775  0.8964
16208TIP3   OH270114   0.085   1.509   0.781 -0.1717  0.2741 -0.0290
16208TIP3    H170115   0.114   1.511   0.690  1.6309  1.3434  0.5346
16208TIP3    H270116   0.040   1.592   0.794 -1.1970 -0.2489 -0.1658
16209TIP3   OH270117   4.484   4.624   3.170 -0.1315 -0.0206 -0.2282
16209TIP3    H170118   4.391   4.645   3.181  0.3303  1.5008  0.8798
16209TIP3    H270119   4.510   4.584   3.253 -0.3171 -2.5335 -1.3353
16210TIP3   OH270120   1.073   1.626   4.081  0.5006 -0.0839  0.4814
16210TIP3    H170121   1.123   1.707   4.074 -1.3911  1.0278 -0.7296
16210TIP3    H270122   0.995   1.651   4.130 -0.0513 -1.2039  0.1845
16211TIP3   OH270123   2.368   4.274   0.513  0.4410  0.3828 -0.3239
16211TIP3    H170124   2.423   4.352   0.504  0.0235  1.0339  2.1838
16211TIP3    H270125   2.408   4.226   0.586  0.0888 -1.2592 -1.1851
16212TIP3   OH270126   6.412   5.754   1.809 -0.1991  0.5590 -0.5274
16212TIP3    H170127   6.339   5.785   1.863  0.6879  0.2719  0.8657
16212TIP3    H270128   6.405   5.659   1.814 -1.1731  0.5141 -2.4015
16213TIP3   OH270129   1.225   6.413  14.658  0.4372  0.1431  0.6923
16213TIP3    H170130   1.288   6.372  14.598 -0.8940 -2.1169  0.7969
16213TIP3    H270131   1.279   6.472  14.711  2.3830 -1.2059  0.3002
16214TIP3   OH270132   0.053   2.561   0.497  0.2735  0.1150 -0.5586
16214TIP3    H170133  -0.019   2.620   0.518 -0.2055 -1.2867  1.8424
16214TIP3    H270134   0.102   2.552   0.579  0.8636 -2.0905 -1.1296
16215TIP3   OH270135   2.689   3.755  15.100 -0.0251 -0.1528 -0.1672
16215TIP3    H170136   2.635   3.726  15.173 -0.4605  1.9898  0.3850
16215TIP3    H270137   2.770   3.704  15.108 -1.0980 -1.8216  0.2595
16216TIP3   OH270138   1.645   6.513   1.395  0.6708  0.0245 -0.2731
16216TIP3    H170139   1.620   6.453   1.465 -0.4486 -0.1336 -0.8037
16216TIP3    H270140   1.566   6.524   1.343  1.1378  1.1746 -0.7646
16217TIP3   OH270141   5.074   1.023   0.102  0.0279  0.1487 -0.2437
16217TIP3    H170142   5.142   1.085   0.076 -1.8275  2.6390  0.6637
16217TIP3    H270143   5.102   0.992   0.188  1.8072 -1.6341 -1.3934
16218TIP3   OH270144   2.965   0.713   2.190  0.2966 -0.0488 -0.0891
16218TIP3    H170145   3.044   0.669   2.159  0.8189 -0.1771  1.3984
16218TIP3    H270146   2.963   0.795   2.141  0.9004 -0.4053 -0.7294
16219TIP3   OH270147   1.572   4.670   3.291  0.6801 -0.4065  0.2614
16219TIP3    H170148   1.647   4.686   3.233  1.1367 -1.2673  0.5956
16219TIP3    H270149   1.609   4.619   3.364 -0.5117 -2.1620 -0.3134
16220TIP3   OH270150   4.552   1.468   3.288  0.1430  0.2239  0.1426
16220TIP3    H170151   4.524   1.541   3.232  0.6579  1.9000  2.0000
16220TIP3    H270152   4.493   1.396   3.266 -0.8249  1.4198 -1.2377
16221TIP3   OH270153   0.409   6.537  12.998 -0.0797 -0.2217  0.3077
16221TIP3    H170154   0.449   6.531  12.911 -0.9346  0.4144 -0.1424
16221TIP3    H270155   0.470   6.492  13.056  1.7237  1.5034 -0.2149
16222TIP3   OH270156   2.765   4.023  13.577  0.0632 -0.2473 -0.2795
16222TIP3    H170157   2.692   3.979  13.533 -0.3932 -0.9434  1.1604
16222TIP3    H270158   2.727   4.060  13.657  1.6705 -2.2929  1.4980
16223TIP3   OH270159   3.106   3.569   3.490 -0.2074 -0.6650  0.0509
16223TIP3    H170160   3.125   3.575   3.584  1.5697 -0.9875 -0.2689
16223TIP3    H270161   3.023   3.521   3.486 -0.2563 -0.7311  1.4510
16224TIP3   OH270162   3.630   1.010   4.552 -0.3936 -0.5147 -0.1315
16224TIP3    H170163   3.656   1.098   4.525 -2.0455 -0.2408 -0.9101
16224TIP3    H270164   3.626   1.014   4.647  0.4214 -0.0063 -0.1157
16225TIP3   OH270165   0.330   5.870   1.356  0.0001  0.9484 -0.1322
16225TIP3    H170166   0.396   5.802   1.339 -0.1768  0.9397 -0.8013
16225TIP3    H270167   0.249   5.835   1.319 -0.7023  0.3638  1.8900
16226TIP3   OH270168   3.637   4.776  15.901  0.3504 -0.6906  0.3295
16226TIP3    H170169   3.559   4.817  15.866 -1.2913 -1.5176  2.8517
16226TIP3    H270170   3.643   4.809  15.991  1.9592 -1.9309  0.7125
16227TIP3   OH270171   4.310   6.266   5.323 -0.3916 -0.2199  0.0150
16227TIP3    H170172   4.229   6.316   5.317 -0.1957 -0.0750 -2.0875
16227TIP3    H270173   4.351   6.278   5.237  1.1574 -1.4653  0.5598
16228TIP3   OH270174   1.925   6.707   0.515  0.0758  0.5459 -0.1545
16228TIP3    H170175   1.976   6.629   0.490  1.5184  0.9833  1.3299
16228TIP3    H270176   1.956   6.776   0.456  0.2163  0.4740 -0.1656
16229TIP3   OH270177   5.841   0.071   2.492 -0.4049 -0.1498 -0.1774
16229TIP3    H170178   5.877   0.140   2.549 -0.5537 -0.8211  0.7383
16229TIP3    H270179   5.893  -0.006   2.512  0.3730 -0.0823 -1.8859
16230TIP3   OH270180   6.190   0.416   3.967  0.0840 -0.5079 -0.1668
16230TIP3    H170181   6.158   0.406   3.877  2.3134 -4.3144 -0.6388
16230TIP3    H270182   6.127   0.369   4.021  0.3247 -0.7572 -0.1002
16231TIP3   OH270183   6.368   5.838  16.114 -0.0436 -0.1455  0.3970
16231TIP3    H170184   6.441   5.849  16.174 -0.1388  0.6433  0.3730
16231TIP3    H270185   6.382   5.751  16.075  0.7227 -0.1149  0.5925
16232TIP3   OH270186   3.720   2.596   0.726 -0.1564  0.0525  0.0719
16232TIP3    H170187   3.794   2.548   0.688 -0.5352 -0.8221  0.4204
16232TIP3    H270188   3.668   2.624   0.652  0.0965 -0.0394 -0.1411
16233TIP3   OH270189   5.068   1.904  13.000  0.0784  0.2681 -0.7081
16233TIP3    H170190   5.089   1.988  13.041 -2.5877  1.1367 -1.0448
16233TIP3    H270191   4.983   1.919  12.957  0.7178 -1.9052 -2.7988
16234TIP3   OH270192   5.757   0.771   0.157  0.1798 -0.0054 -0.7717
16234TIP3    H170193   5.799   0.780   0.242 -0.8219  0.3535 -0.3153
16234TIP3    H270194   5.761   0.858   0.119 -0.4113  0.0862 -0.6139
16235TIP3   OH270195   1.137   0.876   2.064  0.1116  0.0925 -0.0646
16235TIP3    H170196   1.214   0.885   2.008  0.1947  0.6205  0.1277
16235TIP3    H270197   1.129   0.962   2.107  0.0351 -0.2997  0.7094
16236TIP3   OH270198   4.111   4.527  12.233 -0.8286 -0.8469  0.0586
16236TIP3    H170199   4.146   4.456  12.287 -0.3810 -0.1046  0.7784
16236TIP3    H270200   4.065   4.584  12.296  0.6935  0.6415 -0.1307
16237TIP3   OH270201   6.595   4.682   2.510 -0.3773  0.8178 -0.1159
16237TIP3    H170202   6.665   4.638   2.462  0.0077  1.4443 -0.1284
16237TIP3    H270203   6.572   4.621   2.580 -2.7621 -1.3258 -2.6502
16238TIP3   OH270204   5.196   3.092   2.390  0.2324 -0.2841 -0.2473
16238TIP3    H170205   5.227   3.018   2.441  1.4767 -0.2761 -0.9559
16238TIP3    H270206   5.179   3.161   2.454  1.3814 -0.4098  0.2012
16239TIP3   OH270207   1.869   5.265  16.883 -0.5690  0.1564 -0.4367
16239TIP3    H170208   1.926   5.303  16.816  0.4396 -0.6413 -0.0526
16239TIP3    H270209   1.914   5.184  16.910 -1.7312 -0.3294  0.0989
16240TIP3   OH270210   1.854   0.902  14.547 -0.1313  0.0587  0.2270
16240TIP3    H170211   1.767   0.940  14.555 -0.6264 -1.0593  0.2500
16240TIP3    H270212   1.874   0.907  14.454 -0.1302  0.4997  0.2485
16241TIP3   OH270213   4.462   1.817   6.418 -0.1450 -0.3366 -0.2175
16241TIP3    H170214   4.544   1.864   6.402 -0.5339  0.9773  1.5437
16241TIP3    H270215   4.490   1.726   6.433  0.7209 -0.4590 -2.4264
16242TIP3   OH270216   6.492   5.244  16.312  0.1493 -0.0869  0.0295
16242TIP3    H170217   6.476   5.316  16.374 -0.0374 -0.1793  0.0895
16242TIP3    H270218   6.506   5.289  16.228 -0.9928 -0.0212 -0.1358
16243TIP3   OH270219   1.779   5.109   0.664 -0.2669  0.1036  0.2557
16243TIP3    H170220   1.867   5.097   0.629 -0.7261  1.2641 -1.3536
16243TIP3    H270221   1.789   5.176   0.733  0.2327 -0.3650  0.6382
16244TIP3   OH270222   1.882   2.616  16.997 -0.2172 -0.4444  0.2387
16244TIP3    H170223   1.863   2.522  17.005 -1.1398 -0.1636  1.5197
16244TIP3    H270224   1.796   2.658  16.989  0.2241  0.2388 -1.0330
16245TIP3   OH270225   3.884   4.865   4.048  0.4155  0.6302  0.2615
16245TIP3    H170226   3.798   4.834   4.075  0.6531 -0.0861  0.2090
16245TIP3    H270227   3.928   4.787   4.015  0.6809  1.2119 -0.7612
16246TIP3   OH270228   3.347   5.005   0.623 -0.6203  0.4240  0.0369
16246TIP3    H170229   3.369   4.913   0.636  0.8360  1.0602  2.4402
16246TIP3    H270230   3.388   5.028   0.539 -1.5883 -1.2617 -0.9257
16247TIP3   OH270231   3.044   4.391  12.199  0.4599  0.2828 -0.0178
16247TIP3    H170232   3.102   4.467  12.205 -0.2468  0.8005  0.5000
16247TIP3    H270233   3.054   4.360  12.110  2.1604 -0.1509  0.3204
16248TIP3   OH270234   3.594   5.922  12.086  0.0369 -0.5738  0.1999
16248TIP3    H170235   3.619   5.963  12.003 -0.5740  0.5622  0.5727
16248TIP3    H270236   3.603   5.991  12.151 -0.1441 -1.2761  0.9844
16249TIP3   OH270237   6.044   1.392  16.027 -0.0857  0.4610 -0.0575
16249TIP3    H170238   6.047   1.308  15.982  2.8374  0.0720  0.8156
16249TIP3    H270239   5.958   1.393  16.069 -1.2270 -0.9178 -2.2233
16250TIP3   OH270240   2.924   4.522   0.226 -0.7460 -0.3283  0.1578
16250TIP3    H170241   2.962   4.597   0.181 -2.0603  1.1442  1.4301
16250TIP3    H270242   2.957   4.446   0.179  2.3907  0.9361  0.1775
16251TIP3   OH270243   6.706   1.589  16.332 -0.2174 -0.8114  0.1450
16251TIP3    H170244   6.775   1.534  16.294 -0.4169 -0.6403 -0.4855
16251TIP3    H270245   6.745   1.676  16.339 -0.0010 -0.9703  0.8527
16252TIP3   OH270246   5.109   3.387  12.122  0.2483  0.0478  0.0026
16252TIP3    H170247   5.119   3.362  12.215 -1.9074  0.1356  0.2674
16252TIP3    H270248   5.109   3.482  12.123  2.7467  0.0961 -0.3975
16253TIP3   OH270249   2.680   2.382  11.757 -0.2940 -0.0775  0.3139
16253TIP3    H170250   2.688   2.293  11.790 -0.2244 -0.7253 -1.4309
16253TIP3    H270251   2.737   2.434  11.815 -0.4528 -1.1232  1.4221
16254TIP3   OH270252   4.906   0.841  10.496 -0.1238  0.3431 -0.2629
16254TIP3    H170253   4.957   0.764  10.470 -1.1373  0.1694 -1.7969
16254TIP3    H270254   4.815   0.812  10.492 -0.5556  1.8269 -1.5311
16255TIP3   OH270255   2.745   1.811  16.505 -0.2036 -0.0973  0.4347
16255TIP3    H170256   2.776   1.863  16.431  1.7227 -2.8945 -0.7933
16255TIP3    H270257   2.812   1.824  16.573 -0.1954 -0.2305  0.4547
16256TIP3   OH270258   5.344   0.165  11.250  0.0078  0.7767  0.4379
16256TIP3    H170259   5.302   0.118  11.177  1.3936  0.3075 -0.0801
16256TIP3    H270260   5.381   0.244  11.210  0.1036  0.9067  0.7810
16257TIP3   OH270261   4.201   1.335  10.803 -0.7510 -0.2255 -0.2230
16257TIP3    H170262   4.236   1.416  10.766 -0.8835  0.3561  0.9314
16257TIP3    H270263   4.228   1.268  10.740 -1.0136  0.7560 -1.4180
16258TIP3   OH270264   5.042   4.464  13.811  0.0655 -0.9798  0.3590
16258TIP3    H170265   5.079   4.389  13.763 -0.1358 -0.7085 -0.2222
16258TIP3    H270266   4.979   4.502  13.750  1.4386  0.7286 -0.0544
16259TIP3   OH270267   4.069   4.593   5.565 -0.7502  0.0288 -0.0393
16259TIP3    H170268   4.051   4.592   5.659 -1.3154 -2.1427 -0.1447
16259TIP3    H270269   4.134   4.662   5.554 -2.4097  1.9127  1.6141
16260TIP3   OH270270   0.984   1.592  13.389 -0.2696  0.2948  0.0836
16260TIP3    H170271   0.931   1.603  13.310 -1.6910 -0.5233  0.8942
16260TIP3    H270272   0.943   1.518  13.434  0.5080  0.7874  1.6046
16261TIP3   OH270273   6.647   0.018   1.275 -0.2565  0.2442 -0.2330
16261TIP3    H170274   6.706  -0.049   1.242 -0.2416  0.3828 -0.4897
16261TIP3    H270275   6.590   0.038   1.200 -0.5321  0.2150 -0.0308
16262TIP3   OH270276   4.759   2.866  13.458 -0.4695 -0.3742 -0.4558
16262TIP3    H170277   4.846   2.882  13.494 -0.9789 -1.1820  1.1988
16262TIP3    H270278   4.775   2.824  13.374  0.7727 -2.7267  0.8814
16263TIP3   OH270279   0.744   5.189  12.661  0.2248  1.3113 -0.3219
16263TIP3    H170280   0.770   5.281  12.665 -0.0061  1.6222 -4.2357
16263TIP3    H270281   0.827   5.141  12.656  0.3096  1.3600  0.4778
16264TIP3   OH270282   5.321   1.317  17.238  0.4037 -0.0554 -0.2346
16264TIP3    H170283   5.273   1.315  17.156 -1.4608 -1.9413  0.8618
16264TIP3    H270284   5.405   1.276  17.218  0.3137  0.3230 -1.3974
16265TIP3   OH270285   5.544   5.389   0.639 -0.2721  0.1225  0.1009
16265TIP3    H170286   5.603   5.328   0.684  1.6240  2.8123  1.4286
16265TIP3    H270287   5.478   5.410   0.704 -0.4318  0.1702 -0.0768
16266TIP3   OH270288   1.555   2.206   2.765 -0.3836 -0.3738  0.0183
16266TIP3    H170289   1.639   2.248   2.749 -1.0751  1.5522  1.2313
16266TIP3    H270290   1.490   2.268   2.731 -1.4256 -0.5313  1.6571
16267TIP3   OH270291   5.306   4.529   2.114  0.0483 -0.3522 -0.4486
16267TIP3    H170292   5.211   4.533   2.129  0.2042  0.9976  0.2763
16267TIP3    H270293   5.342   4.499   2.198  0.4613  1.7247  0.1516
16268TIP3   OH270294   6.754   3.403  14.432  0.0490  0.3927  0.4999
16268TIP3    H170295   6.679   3.349  14.456  0.0349  0.2017  0.0338
16268TIP3    H270296   6.760   3.469  14.502  1.6366 -1.7414  2.4306
16269TIP3   OH270297   3.160   2.144   1.397 -0.5648 -0.1534  0.2295
16269TIP3    H170298   3.097   2.079   1.365  1.2496 -2.6853  1.5724
16269TIP3    H270299   3.120   2.179   1.476 -0.8885 -0.8056  0.3609
16270TIP3   OH270300   2.189   6.106   3.027 -0.6024  0.0970 -0.0354
16270TIP3    H170301   2.227   6.020   3.012 -0.6078  0.3624 -1.6932
16270TIP3    H270302   2.254   6.151   3.081  0.4837 -0.1792 -1.0755
16271TIP3   OH270303   5.870   2.283   1.844 -0.2130  0.2935  0.1296
16271TIP3    H170304   5.951   2.245   1.810  0.7137  1.1033  1.4082
16271TIP3    H270305   5.848   2.230   1.920  1.3555  2.5636  2.2207
16272TIP3   OH270306   4.957   1.308  13.403 -0.0721  0.3558  0.0514
16272TIP3    H170307   4.984   1.269  13.320 -0.1283  0.5851 -0.0752
16272TIP3    H270308   4.879   1.360  13.381  0.8858  1.7742 -0.0772
16273TIP3   OH270309   2.365   0.045   5.370 -0.4394  0.9155  0.0869
16273TIP3    H170310   2.397   0.124   5.414  0.2836  1.3856 -1.2629
16273TIP3    H270311   2.279   0.069   5.337  0.6664  1.8780 -2.2131
16274TIP3   OH270312   6.647   4.015   3.635  0.1970  0.4911 -0.0270
16274TIP3    H170313   6.607   4.101   3.643  2.4381  1.5823  0.0134
16274TIP3    H270314   6.694   4.002   3.718  2.1281  0.4647 -1.0787
16275TIP3   OH270315   3.189   3.103   2.949  0.1371 -0.0313 -0.4011
16275TIP3    H170316   3.136   3.078   3.024  1.7389 -0.5685  0.5750
16275TIP3    H270317   3.214   3.021   2.908  0.6754  0.2008 -0.5402
16276TIP3   OH270318   3.702   1.289   4.532  0.4040 -0.5166 -0.0749
16276TIP3    H170319   3.685   1.358   4.468  1.8816 -1.3670 -1.4064
16276TIP3    H270320   3.733   1.336   4.610 -0.0833  0.4242 -0.4376
16277TIP3   OH270321   4.164   3.802  11.337  0.0186 -0.3942  0.5587
16277TIP3    H170322   4.089   3.861  11.335 -0.8016 -1.4145  0.8099
16277TIP3    H270323   4.151   3.744  11.262 -0.0309 -1.2809  1.2452
16278TIP3   OH270324   6.067   5.851  11.171 -0.1402 -0.0973  0.0475
16278TIP3    H170325   6.010   5.828  11.244 -0.5690  1.9606  0.4102
16278TIP3    H270326   6.155   5.832  11.202 -0.3428  0.5034  1.0287
16279TIP3   OH270327   2.849   2.904  15.292  0.1037  0.0571 -0.3332
16279TIP3    H170328   2.868   2.947  15.375 -0.3030  0.3016 -0.3666
16279TIP3    H270329   2.885   2.963  15.225  1.3209 -0.6212 -0.2852
16280TIP3   OH270330   5.057   3.227  12.809 -0.2075  0.2121  0.0385
16280TIP3    H170331   5.118   3.248  12.880 -0.3776 -0.4063  0.3651
16280TIP3    H270332   5.065   3.301  12.749  1.8973 -0.5210 -0.6098
16281TIP3   OH270333   4.341   6.646  14.469  0.3880 -0.4642  0.4109
16281TIP3    H170334   4.254   6.609  14.482 -0.0522  0.4192  0.0084
16281TIP3    H270335   4.330   6.740  14.483  1.9209 -0.6778  3.6309
16282TIP3   OH270336   4.724   3.473   1.536 -0.0584 -0.7162  0.4149
16282TIP3    H170337   4.668   3.396   1.538 -1.6396  0.4026  0.0327
16282TIP3    H270338   4.672   3.542   1.578  1.2052  0.2268  0.4704
16283TIP3   OH270339   5.791   2.432   1.240 -0.0220  0.0873  0.2603
16283TIP3    H170340   5.741   2.513   1.229 -1.3385 -0.8052 -0.3660
16283TIP3    H270341   5.740   2.365   1.195  1.4062 -0.9751  0.1689
16284TIP3   OH270342   4.650   6.098  15.650  0.3170  0.7845  0.2529
16284TIP3    H170343   4.562   6.078  15.680  0.4911  0.2753  0.4301
16284TIP3    H270344   4.664   6.040  15.575  0.9300  0.0232  0.9507
16285TIP3   OH270345   2.956   6.074   6.161 -0.4666  0.1978  0.3510
16285TIP3    H170346   2.873   6.072   6.209 -0.9686  2.9958 -0.3017
16285TIP3    H270347   2.994   5.988   6.175 -3.4047 -1.0754  0.7951
16286TIP3   OH270348   0.573   0.651  13.139 -1.0265 -0.0535 -0.0420
16286TIP3    H170349   0.494   0.632  13.189 -1.6281  1.0195 -0.5813
16286TIP3    H270350   0.595   0.741  13.161  0.9301 -0.8066  1.2773
16287TIP3   OH270351   0.672   1.961   2.897 -0.0018  0.1986 -0.3708
16287TIP3    H170352   0.686   1.946   2.804  0.2448  2.6768 -0.7639
16287TIP3    H270353   0.613   2.037   2.900  0.1495  0.2617  1.4854
16288TIP3   OH270354   1.002   2.235   1.599  0.1274  0.1644 -0.1123
16288TIP3    H170355   1.066   2.193   1.656 -0.5244  2.2738  2.2768
16288TIP3    H270356   0.918   2.198   1.626 -0.4089  2.6140  1.7712
16289TIP3   OH270357   0.141   6.625   1.480  0.3072  0.5147  0.1239
16289TIP3    H170358   0.083   6.554   1.507  1.4601 -0.0834  1.1388
16289TIP3    H270359   0.103   6.659   1.400 -1.1640 -0.1788  0.5166
16290TIP3   OH270360   5.648   1.530   5.190 -0.0854 -0.5125  0.1209
16290TIP3    H170361   5.613   1.461   5.247  0.9193 -1.2180 -0.1178
16290TIP3    H270362   5.673   1.484   5.110 -1.1138  0.4144 -0.7555
16291TIP3   OH270363   6.304   0.672   5.201 -0.3640  0.0718  0.1711
16291TIP3    H170364   6.373   0.607   5.188  0.3616  0.7504  0.5529
16291TIP3    H270365   6.222   0.625   5.183  0.0180 -1.4323  2.1738
16292TIP3   OH270366   2.988   5.449   1.118  0.1438 -0.0581  0.5381
16292TIP3    H170367   2.951   5.428   1.204  3.0292  0.9906  2.1094
16292TIP3    H270368   3.077   5.414   1.121  0.9042  1.6416 -1.3188
16293TIP3   OH270369   6.089   1.086   0.305  0.3352 -0.3160 -0.2934
16293TIP3    H170370   6.076   1.163   0.249 -1.5805 -0.2734  0.1809
16293TIP3    H270371   6.102   1.014   0.244  0.8396  0.1668 -0.7586
16294TIP3   OH270372   4.276   5.280  12.005  0.9202  0.0995  0.3418
16294TIP3    H170373   4.358   5.245  11.970  1.4560  0.2814  1.3979
16294TIP3    H270374   4.261   5.360  11.955 -0.4873 -1.7590 -2.3288
16295TIP3   OH270375   2.027   0.312   3.007 -0.2681 -0.6691  0.2644
16295TIP3    H170376   2.117   0.324   3.039  0.3587  0.5294 -1.8680
16295TIP3    H270377   2.037   0.303   2.913 -2.3690 -0.9448  0.0642
16296TIP3   OH270378   3.434   0.052  10.874 -0.8655 -0.4166 -0.1312
16296TIP3    H170379   3.528   0.068  10.866 -0.5423 -1.5056  1.2176
16296TIP3    H270380   3.417  -0.026  10.822 -1.0441 -0.1810 -0.4306
16297TIP3   OH270381   1.411   2.232   2.443  0.0572 -0.4335  0.4000
16297TIP3    H170382   1.372   2.213   2.528  2.9435 -0.8721  1.6916
16297TIP3    H270383   1.380   2.163   2.385 -1.8084 -0.2176  1.1167
16298TIP3   OH270384   0.406   4.147   5.510  0.0570  0.3254 -0.0676
16298TIP3    H170385   0.345   4.103   5.450 -0.4184  0.4637  0.3167
16298TIP3    H270386   0.459   4.203   5.453 -1.6706  1.9176 -0.1448
16299TIP3   OH270387   1.989   0.999   2.265  0.1131  0.2114 -0.9942
16299TIP3    H170388   2.024   0.993   2.177 -1.7044 -0.6504 -1.6730
16299TIP3    H270389   1.934   0.921   2.275 -1.1364  1.2183  0.2413
16300TIP3   OH270390   6.567   4.163  16.868 -0.3546  0.4331  0.2720
16300TIP3    H170391   6.539   4.223  16.799 -2.3012  2.8247  3.0119
16300TIP3    H270392   6.490   4.109  16.886  1.0389 -2.2050 -1.3753
16301TIP3   OH270393   6.013   3.761   0.464 -0.6708 -0.3788 -0.2636
16301TIP3    H170394   5.956   3.838   0.472  0.8174  0.8422 -1.0266
16301TIP3    H270395   6.063   3.777   0.384  2.6094 -0.1287  1.7631
16302TIP3   OH270396   2.431   2.961   0.480  0.2527  0.7810 -0.6031
16302TIP3    H170397   2.393   3.014   0.409  0.5900 -0.1876 -1.5160
16302TIP3    H270398   2.481   2.893   0.435 -0.9142 -0.8598  0.5497
16303TIP3   OH270399   1.011   6.044  11.304  0.2466  0.4171  0.2779
16303TIP3    H170400   1.059   5.982  11.248 -1.6763 -0.1204 -0.8043
16303TIP3    H270401   1.037   6.020  11.393  0.2318 -1.3886 -0.1727
16304TIP3   OH270402   1.006   3.379   3.132 -0.0903 -0.1104 -0.4250
16304TIP3    H170403   1.014   3.316   3.203  0.0591 -0.0737 -0.4101
16304TIP3    H270404   0.935   3.344   3.077  0.9680 -1.0557 -1.2001
16305TIP3   OH270405   0.589   1.080  15.141  0.5763 -0.1157  0.0991
16305TIP3    H170406   0.610   0.987  15.137 -1.4223 -0.5596 -0.6880
16305TIP3    H270407   0.508   1.088  15.090  0.9670  2.1147 -0.2051
16306TIP3   OH270408   1.391   0.867   0.659 -0.2899 -0.2653  0.8950
16306TIP3    H170409   1.420   0.956   0.642  0.7430 -0.8871 -0.6933
16306TIP3    H270410   1.454   0.832   0.723 -0.1330 -0.1764  0.7873
16307TIP3   OH270411   2.484   1.330   1.470  0.0350 -0.0552  0.1563
16307TIP3    H170412   2.405   1.284   1.441 -0.9711  0.7815  1.5138
16307TIP3    H270413   2.520   1.274   1.539 -0.8621  0.8871  1.3973
16308TIP3   OH270414   0.912   4.682  13.081 -0.0595  0.0762  0.2860
16308TIP3    H170415   0.902   4.775  13.062 -0.9744 -0.0274  0.2414
16308TIP3    H270416   0.867   4.637  13.009  1.4510 -0.4293 -0.3579
16309TIP3   OH270417   1.317   3.172  17.102  0.2142 -0.0992 -0.7015
16309TIP3    H170418   1.268   3.110  17.047  0.1450  0.5945 -1.4164
16309TIP3    H270419   1.403   3.132  17.112  0.3348 -0.0671 -1.5890
16310TIP3   OH270420   0.169   3.350  13.994  0.0611 -0.2978 -0.4414
16310TIP3    H170421   0.098   3.376  13.934  0.7087 -0.4438 -1.2892
16310TIP3    H270422   0.147   3.260  14.020 -0.0268 -0.3706 -0.7633
16311TIP3   OH270423   2.317   3.754   3.098 -1.0935  0.4973 -0.0986
16311TIP3    H170424   2.345   3.739   3.008 -2.5949  1.4665 -0.7457
16311TIP3    H270425   2.363   3.687   3.149 -1.4085 -1.0296 -1.7770
16312TIP3   OH270426   5.044   5.852  12.922 -0.3912 -0.1458 -0.0846
16312TIP3    H170427   5.076   5.770  12.959 -0.1064 -0.1029 -0.2305
16312TIP3    H270428   5.118   5.913  12.931  0.2621 -0.5840 -2.1964
16313TIP3   OH270429   6.285   2.908  13.949  0.0721  0.1573  0.2888
16313TIP3    H170430   6.326   2.838  13.898 -1.8620 -1.4957  0.9637
16313TIP3    H270431   6.255   2.970  13.883 -1.0395 -1.2159 -0.5334
16314TIP3   OH270432   2.628   5.020  13.856 -0.2768 -0.2672  0.5931
16314TIP3    H170433   2.617   5.115  13.857  1.4223 -0.0676  0.6487
16314TIP3    H270434   2.565   4.990  13.790 -0.5732  0.9126  0.3176
16315TIP3   OH270435   0.058   2.762  11.655 -0.0408 -0.1576  0.2607
16315TIP3    H170436   0.076   2.802  11.740 -0.3320 -0.2319  0.3600
16315TIP3    H270437  -0.037   2.750  11.654 -0.1327  0.5353 -0.3865
16316TIP3   OH270438   3.997   3.900  14.675 -0.4054  0.0943 -0.6259
16316TIP3    H170439   4.052   3.826  14.701  0.0211  0.5027 -0.3457
16316TIP3    H270440   3.916   3.888  14.724 -0.4219 -0.3044 -0.7464
16317TIP3   OH270441   3.234   2.378   0.132  0.2907  0.0808 -0.2443
16317TIP3    H170442   3.286   2.375   0.051  1.6095 -0.0910  0.6026
16317TIP3    H270443   3.148   2.409   0.103  1.1306  1.3207 -1.5271
16318TIP3   OH270444   6.312   0.523  10.880  0.1623  0.1324 -0.3133
16318TIP3    H170445   6.299   0.485  10.793  0.8030 -0.7699 -0.0329
16318TIP3    H270446   6.384   0.584  10.868 -0.5566  0.9137 -0.6701
16319TIP3   OH270447   6.095   3.337  11.304  0.1983 -0.3112  0.0681
16319TIP3    H170448   6.160   3.354  11.373 -1.0323 -1.5728  1.5613
16319TIP3    H270449   6.143   3.351  11.222  2.0734 -0.1732  1.1671
16320TIP3   OH270450   0.716   1.338  12.089 -0.6637 -0.4757  0.3870
16320TIP3    H170451   0.811   1.332  12.089 -0.8133 -4.0787  0.5046
16320TIP3    H270452   0.692   1.346  12.181 -0.4523  0.9079  0.3197
16321TIP3   OH270453   3.916   6.325  15.135 -0.1243  0.4088 -1.0598
16321TIP3    H170454   3.830   6.362  15.154 -1.1702 -0.4497 -3.8245
16321TIP3    H270455   3.942   6.364  15.052 -0.3990 -3.4495 -3.0904
16322TIP3   OH270456   4.434   1.098  12.594  0.0058  0.2350 -0.3998
16322TIP3    H170457   4.436   1.002  12.596 -0.0555  0.2333 -0.4202
16322TIP3    H270458   4.414   1.120  12.503 -2.6094  0.2298  0.1340
16323TIP3   OH270459   5.438   5.259   5.250 -0.2456 -0.1941 -0.8025
16323TIP3    H170460   5.429   5.312   5.329  1.6157  0.5472 -1.0541
16323TIP3    H270461   5.488   5.182   5.278 -0.3787 -0.3811 -1.0755
16324TIP3   OH270462   3.323   3.037   3.315  0.3355  0.2363  0.3970
16324TIP3    H170463   3.234   3.045   3.349  0.3866 -0.6850  0.7593
16324TIP3    H270464   3.361   3.124   3.327 -0.3764  0.5184  0.6358
16325TIP3   OH270465   4.847   3.949   0.205  0.2618  0.5440 -0.0871
16325TIP3    H170466   4.774   3.985   0.255 -0.0887  0.1872 -0.3392
16325TIP3    H270467   4.834   3.983   0.116  1.4480  2.0083  0.2789
16326TIP3   OH270468   2.419   5.548   4.747 -0.1062 -0.2916  0.6367
16326TIP3    H170469   2.485   5.582   4.807 -1.5233 -0.2798  2.2479
16326TIP3    H270470   2.370   5.484   4.799 -0.6386 -1.1373 -0.8643
16327TIP3   OH270471   6.777   2.268  13.764 -0.2399  0.1587  0.2943
16327TIP3    H170472   6.742   2.197  13.711 -0.2402  0.0913  0.3840
16327TIP3    H270473   6.777   2.234  13.853 -0.5793  0.4030  0.3871
16328TIP3   OH270474   6.808   4.629  15.719 -0.5313  0.1923 -0.1942
16328TIP3    H170475   6.723   4.588  15.701 -0.3309  0.5262 -1.9211
16328TIP3    H270476   6.797   4.720  15.692  0.5419  0.1176 -0.8810
16329TIP3   OH270477   3.115   2.092  15.257  0.0067  0.1262  0.4458
16329TIP3    H170478   3.090   2.009  15.298 -0.9830 -0.0569 -0.5010
16329TIP3    H270479   3.042   2.112  15.197  1.7620 -0.0154 -1.7861
16330TIP3   OH270480   6.343   1.630   1.963  0.0862 -0.2917  0.0413
16330TIP3    H170481   6.420   1.606   2.014 -0.0063  2.3736  1.5404
16330TIP3    H270482   6.378   1.675   1.886  0.1137 -1.7243 -0.7992
16331TIP3   OH270483   6.609   1.637   5.378  0.4446 -0.5218  0.1398
16331TIP3    H170484   6.688   1.643   5.324 -0.9181 -1.2518 -1.9655
16331TIP3    H270485   6.636   1.584   5.454  1.8752 -1.0682 -0.7263
16332TIP3   OH270486   2.046   0.246   2.737 -0.2249 -0.3893  0.1953
16332TIP3    H170487   1.982   0.177   2.719  1.3765 -1.9815  0.3985
16332TIP3    H270488   2.131   0.200   2.736  1.1404  2.0363 -2.3368
16333TIP3   OH270489   6.629   4.150   0.604 -0.1044 -0.4019 -0.1706
16333TIP3    H170490   6.642   4.199   0.685 -0.9876 -1.2665  0.4924
16333TIP3    H270491   6.541   4.174   0.576 -0.8076 -2.1499  0.5233
16334TIP3   OH270492   0.777   4.869   4.871  0.1279 -0.1532  0.0720
16334TIP3    H170493   0.740   4.952   4.901  0.0377  0.1295 -0.8028
16334TIP3    H270494   0.714   4.803   4.902 -0.2917  0.1886 -0.0387
16335TIP3   OH270495   4.377   3.484   0.173  0.3745  0.0139 -0.2800
16335TIP3    H170496   4.434   3.559   0.193  0.4823 -0.4582  1.2179
16335TIP3    H270497   4.316   3.517   0.107  1.0228  1.1446 -0.3211
16336TIP3   OH270498   1.923   3.292  10.873  0.9313 -0.0971  0.5948
16336TIP3    H170499   1.904   3.199  10.871 -1.8002  0.4199  1.0193
16336TIP3    H270500   1.960   3.307  10.960 -0.1547 -0.5036  1.1277
16337TIP3   OH270501   5.735   2.679   2.283 -0.2144 -0.4747 -0.1343
16337TIP3    H170502   5.724   2.701   2.375  0.3323  0.4494 -0.2873
16337TIP3    H270503   5.793   2.602   2.283  1.0086  0.4480  0.2227
16338TIP3   OH270504   5.401   1.433  13.659  0.3995  0.0352 -0.6945
16338TIP3    H170505   5.425   1.487  13.584 -1.9432  0.6796 -1.0155
16338TIP3    H270506   5.382   1.347  13.621 -0.0634  0.1610 -0.7511
16339TIP3   OH270507   2.669   2.294   2.374 -0.3664 -0.7544  0.1414
16339TIP3    H170508   2.665   2.209   2.418 -0.0495 -1.0627 -0.4218
16339TIP3    H270509   2.686   2.273   2.282  0.8138 -0.0410  0.1796
16340TIP3   OH270510   2.162   5.641   2.258 -0.8451  0.1806  0.4592
16340TIP3    H170511   2.201   5.577   2.199 -0.2562  0.9896 -0.0421
16340TIP3    H270512   2.080   5.667   2.216 -1.3456 -0.6296  0.9232
16341TIP3   OH270513   5.408   0.405   2.179 -0.2028  0.2721 -0.7709
16341TIP3    H170514   5.317   0.427   2.160 -0.2583  1.3643  0.7372
16341TIP3    H270515   5.458   0.479   2.145  0.1717 -0.4187 -1.7853
16342TIP3   OH270516   0.033   0.423  11.872 -0.0434 -0.5582 -0.2368
16342TIP3    H170517  -0.022   0.365  11.924 -0.1539 -0.1926  0.0524
16342TIP3    H270518   0.114   0.374  11.859  0.2179 -0.4139  0.7842
16343TIP3   OH270519   6.775   6.801   0.446 -0.1491  0.0826 -0.0329
16343TIP3    H170520   6.754   6.881   0.399 -0.3340 -0.4051 -0.7849
16343TIP3    H270521   6.784   6.734   0.378 -0.9598 -0.7442  0.6447
16344TIP3   OH270522   2.670   3.855   3.356 -0.1912 -0.0629 -0.3971
16344TIP3    H170523   2.634   3.940   3.381 -0.6748 -0.3225 -0.2092
16344TIP3    H270524   2.593   3.801   3.335  0.1247 -0.3704 -0.7805
16345TIP3   OH270525   1.217   0.373  13.093 -0.0809  0.5749 -0.2188
16345TIP3    H170526   1.251   0.431  13.161  1.2586  0.0751 -0.4527
16345TIP3    H270527   1.229   0.423  13.012 -1.8212  1.2363 -0.0866
16346TIP3   OH270528   5.851   1.961   4.355  0.4780  0.7392 -0.0982
16346TIP3    H170529   5.865   1.999   4.441  0.1551  0.1602  0.2096
16346TIP3    H270530   5.845   1.867   4.370 -3.3681  0.8565 -0.2158
16347TIP3   OH270531   6.503   1.051  16.180 -0.1808 -0.3304  0.4490
16347TIP3    H170532   6.418   1.096  16.169 -0.6334 -1.3968 -0.5562
16347TIP3    H270533   6.546   1.061  16.095  0.4687 -0.2779  0.7826
16348TIP3   OH270534   2.875   4.547   2.663  0.3680 -0.7686 -0.0003
16348TIP3    H170535   2.903   4.476   2.722 -0.7602 -0.2794  1.1565
16348TIP3    H270536   2.807   4.507   2.609 -1.2898 -0.2208  1.6211
16349TIP3   OH270537   4.577   4.627   5.624  0.0278 -0.3639 -0.3461
16349TIP3    H170538   4.591   4.609   5.717 -1.4998 -1.7723 -0.3705
16349TIP3    H270539   4.577   4.722   5.618  0.4553 -0.2620  1.0388
16350TIP3   OH270540   1.752   3.756   3.515  0.2465  0.0671 -0.1761
16350TIP3    H170541   1.783   3.830   3.463  1.0348  0.4431  0.7956
16350TIP3    H270542   1.816   3.749   3.587  0.3152 -1.6941 -0.3834
16351TIP3   OH270543   2.714   1.244  12.221  0.8251 -0.1839  0.5651
16351TIP3    H170544   2.690   1.152  12.227 -1.7134  0.4243  0.3419
16351TIP3    H270545   2.702   1.278  12.310 -1.4913  0.6353 -0.0135
16352TIP3   OH270546   3.884   2.567   3.669 -0.5795  0.1933 -0.1550
16352TIP3    H170547   3.833   2.632   3.621 -0.4519 -0.8860 -1.7882
16352TIP3    H270548   3.938   2.524   3.603  0.1625 -0.8088  1.0672
16353TIP3   OH270549   3.099   4.955   3.885  0.5354 -0.5617  0.1488
16353TIP3    H170550   3.047   4.875   3.876  0.4389 -0.3592 -1.1784
16353TIP3    H270551   3.111   4.965   3.980 -0.7997 -1.2741  0.4012
16354TIP3   OH270552   1.305   6.619  14.448  0.5817 -0.2003 -0.3526
16354TIP3    H170553   1.259   6.580  14.374  0.6128 -1.5090  0.3117
16354TIP3    H270554   1.311   6.549  14.513  0.5263  0.9391  0.9072
16355TIP3   OH270555   5.337   6.645  17.216 -0.1725 -0.6573  0.7808
16355TIP3    H170556   5.276   6.580  17.181 -1.0067  0.1859  0.6686
16355TIP3    H270557   5.345   6.711  17.147  0.4853 -0.5048  0.9938
16356TIP3   OH270558   2.543   0.424  12.891 -0.1139 -0.0775 -0.1032
16356TIP3    H170559   2.495   0.479  12.829  0.4538  0.3439 -0.1690
16356TIP3    H270560   2.476   0.370  12.933 -0.5873  0.1860 -0.5305
16357TIP3   OH270561   2.028   5.331  14.432 -0.2341  0.4490  0.0018
16357TIP3    H170562   1.943   5.303  14.398  0.2253 -0.4114 -0.4697
16357TIP3    H270563   2.077   5.359  14.354  0.1110  0.3969  0.1972
16358TIP3   OH270564   1.665   4.561  14.989  0.7643  0.4159 -0.0223
16358TIP3    H170565   1.719   4.635  15.016  2.0432 -0.4624 -0.0931
16358TIP3    H270566   1.729   4.493  14.964 -0.3776 -0.6975  0.0355
16359TIP3   OH270567   3.531   0.419   0.464 -0.4889  0.4252  0.4275
16359TIP3    H170568   3.623   0.446   0.463  0.0215 -1.2982  0.3370
16359TIP3    H270569   3.492   0.473   0.533  0.6467  0.9465  0.6847
16360TIP3   OH270570   2.937   3.025   2.604 -0.1235 -0.6302 -0.7321
16360TIP3    H170571   2.990   2.996   2.678 -0.5580 -1.5373 -0.7707
16360TIP3    H270572   2.847   3.028   2.638 -0.4280 -1.7438 -1.4106
16361TIP3   OH270573   4.562   5.609   3.814  0.3385  0.5061  0.1677
16361TIP3    H170574   4.543   5.638   3.904 -1.2032  0.3252 -0.0839
16361TIP3    H270575   4.506   5.532   3.802  0.6006  0.4914 -0.9280
16362TIP3   OH270576   4.117   6.261   1.549  0.8525 -0.2778 -0.5192
16362TIP3    H170577   4.077   6.316   1.482 -2.0944 -0.4586  0.9928
16362TIP3    H270578   4.196   6.226   1.508  1.1926  2.6730 -2.5320
16363TIP3   OH270579   2.081   1.589   0.621 -0.1763 -1.0291  0.2179
16363TIP3    H170580   2.094   1.606   0.714 -1.0744 -0.1545  0.1884
16363TIP3    H270581   2.167   1.602   0.581  0.3366 -1.9575  0.9944
16364TIP3   OH270582   4.983   0.855   3.410  0.8333 -0.0992  0.9598
16364TIP3    H170583   5.028   0.825   3.332  0.0008 -0.5476  0.6407
16364TIP3    H270584   5.003   0.948   3.417 -0.9572  0.4797 -1.0936
16365TIP3   OH270585   3.182   1.494  10.423  0.3343  0.0718 -0.0182
16365TIP3    H170586   3.226   1.568  10.464  1.6379 -0.1412 -1.0004
16365TIP3    H270587   3.128   1.534  10.354  0.3436  0.1791  0.0371
16366TIP3   OH270588   3.322   3.918  15.573  0.3745 -0.0841  0.3153
16366TIP3    H170589   3.366   3.859  15.634 -0.5304 -0.4980  0.5715
16366TIP3    H270590   3.276   3.981  15.629 -1.0398 -0.8879  0.0731
16367TIP3   OH270591   1.623   0.783  16.073  0.0324  0.0360 -0.4219
16367TIP3    H170592   1.528   0.786  16.065 -0.0050 -0.0507 -0.0350
16367TIP3    H270593   1.655   0.847  16.010 -0.2527 -0.5038 -1.1251
16368TIP3   OH270594   5.068   0.134  16.839 -0.1634 -0.0435  0.1067
16368TIP3    H170595   5.137   0.200  16.838 -2.4612  2.4986  2.0893
16368TIP3    H270596   5.066   0.101  16.749  2.7042  0.7422 -0.3102
16369TIP3   OH270597   5.152   3.037   1.658  0.2616 -0.3600 -0.1944
16369TIP3    H170598   5.179   3.064   1.570  1.5394  0.5222  0.4653
16369TIP3    H270599   5.219   2.974   1.685  0.5493  0.2892  0.6268
16370TIP3   OH270600   3.869   4.704  16.364 -0.3020  0.0300  0.3225
16370TIP3    H170601   3.892   4.789  16.326 -0.6334  1.0624  2.3518
16370TIP3    H270602   3.930   4.693  16.437 -2.1775 -0.0889  1.9025
16371TIP3   OH270603   2.374   2.850   4.984  0.4982  0.0361 -0.3033
16371TIP3    H170604   2.457   2.803   4.988  0.9233  0.7003 -1.2028
16371TIP3    H270605   2.322   2.801   4.921  0.6600  0.3314 -0.6661
16372TIP3   OH270606   4.704   6.454  16.090 -0.7071  0.3416  0.1485
16372TIP3    H170607   4.785   6.449  16.039 -1.5154  0.9178 -1.2334
16372TIP3    H270608   4.733   6.449  16.181  0.9533  1.3384 -0.2870
16373TIP3   OH270609   6.396   5.236  17.257 -0.1398 -0.2636  0.2812
16373TIP3    H170610   6.488   5.247  17.234 -0.2972  0.5004  0.0039
16373TIP3    H270611   6.394   5.159  17.315  0.4467 -1.2686 -1.0209
16374TIP3   OH270612   6.509   3.136   2.417 -0.3130  0.1091  0.0949
16374TIP3    H170613   6.538   3.071   2.352  0.6388 -0.6269  1.2276
16374TIP3    H270614   6.587   3.188   2.436 -0.4116 -0.0911  1.1057
16375TIP3   OH270615   6.788   0.700  15.007  0.0913 -0.1905 -0.5879
16375TIP3    H170616   6.878   0.685  15.037  0.2345  0.4862 -0.6638
16375TIP3    H270617   6.797   0.721  14.915 -0.0270  1.0840 -0.3158
16376TIP3   OH270618   3.750   5.595  13.703  0.4719  0.4039 -0.2380
16376TIP3    H170619   3.791   5.545  13.774  2.1150 -0.2001 -1.5813
16376TIP3    H270620   3.730   5.529  13.637 -3.0652  0.6185  0.5189
16377TIP3   OH270621   1.304   2.632  15.354  0.3049 -0.0876  0.9874
16377TIP3    H170622   1.254   2.633  15.272 -0.4435 -0.9333  1.4240
16377TIP3    H270623   1.345   2.546  15.356 -0.6325 -0.5247  2.0589
16378TIP3   OH270624   2.536   4.019  13.243 -0.0401 -0.2000 -0.3440
16378TIP3    H170625   2.629   3.996  13.234 -0.7404 -3.6289  0.3216
16378TIP3    H270626   2.509   3.979  13.326 -2.0886  0.8607 -0.4632
16379TIP3   OH270627   6.137   1.720   4.858  0.0600 -0.0363  0.2519
16379TIP3    H170628   6.227   1.701   4.830 -0.0519 -0.3993  0.1329
16379TIP3    H270629   6.143   1.732   4.952  0.1945 -0.2843  0.2745
16380TIP3   OH270630   1.423   5.097   5.926 -0.1588  0.1320  0.0705
16380TIP3    H170631   1.417   5.003   5.944 -1.5726  0.0985 -0.4895
16380TIP3    H270632   1.385   5.139   6.003 -2.2645  0.1310 -0.9406
16381TIP3   OH270633   5.276   1.162  13.369  0.5044 -0.0237 -0.5207
16381TIP3    H170634   5.207   1.165  13.435  0.0592 -0.4409 -0.9566
16381TIP3    H270635   5.310   1.072  13.375  1.8507  0.5302  0.5291
16382TIP3   OH270636   2.771   4.344  16.521  0.0165 -0.4945 -0.0969
16382TIP3    H170637   2.691   4.348  16.468  1.5661  2.0948 -2.3633
16382TIP3    H270638   2.836   4.304  16.463  1.5512  1.6950  0.0478
16383TIP3   OH270639   4.149   5.054   1.075  0.4488 -0.0149 -0.4376
16383TIP3    H170640   4.111   5.104   1.002  0.4715  1.2501  0.4068
16383TIP3    H270641   4.244   5.066   1.065  0.3396  3.4055  2.0247
16384TIP3   OH270642   2.260   4.904  15.663 -0.4111  0.3669  0.1612
16384TIP3    H170643   2.201   4.894  15.589  0.1496 -0.2250 -0.2145
16384TIP3    H270644   2.342   4.934  15.625  0.8504 -2.9614  0.1220
16385TIP3   OH270645   4.544   0.664  12.398 -0.5210 -0.0080 -0.3856
16385TIP3    H170646   4.533   0.716  12.477 -0.3444 -0.5040 -0.0263
16385TIP3    H270647   4.501   0.581  12.418 -0.9466  0.0607 -1.0110
16386TIP3   OH270648   5.047   6.256  13.798  0.3074  0.5919 -0.1462
16386TIP3    H170649   4.959   6.262  13.761 -0.2793 -1.0190  0.9551
16386TIP3    H270650   5.051   6.327  13.863 -1.4439 -1.4725  2.3132
16387TIP3   OH270651   4.415   0.884   4.897 -0.7987 -0.0466  0.4422
16387TIP3    H170652   4.417   0.835   4.979 -1.9199  0.4102  0.7572
16387TIP3    H270653   4.434   0.974   4.922 -2.2298  0.2917  0.3759
16388TIP3   OH270654   4.300   3.860   5.556  0.3250  0.1759 -0.2697
16388TIP3    H170655   4.239   3.840   5.485 -0.0182  0.5400 -0.0741
16388TIP3    H270656   4.387   3.846   5.517  0.1127 -0.8097 -0.4056
16389TIP3   OH270657   1.605   3.072  14.813  0.4325 -0.1195 -0.4618
16389TIP3    H170658   1.554   3.152  14.820  1.8152  0.7918 -0.6911
16389TIP3    H270659   1.586   3.024  14.894 -0.5735  0.3069 -0.4324
16390TIP3   OH270660   2.190   1.228   6.159 -0.0097 -0.7700 -0.7811
16390TIP3    H170661   2.146   1.262   6.237 -0.9293 -2.5093 -0.5081
16390TIP3    H270662   2.179   1.296   6.093  0.4411  0.5614  0.4751
16391TIP3   OH270663   3.101   2.681   1.622 -0.5328 -0.2476 -0.3271
16391TIP3    H170664   3.085   2.762   1.670 -0.2846 -0.0344 -0.6042
16391TIP3    H270665   3.192   2.686   1.594 -0.7480 -0.2443 -1.0541
16392TIP3   OH270666   1.343   4.564   4.117  0.7810 -0.4849 -0.4950
16392TIP3    H170667   1.274   4.503   4.143  0.4192 -0.0666 -0.4483
16392TIP3    H270668   1.355   4.548   4.024 -0.9860  0.9794 -1.0158
16393TIP3   OH270669   0.005   3.413   4.833  0.2309  1.1137  0.3348
16393TIP3    H170670  -0.005   3.370   4.918  3.1274  1.4444  0.8759
16393TIP3    H270671   0.084   3.375   4.796 -1.3414  0.5133 -2.5366
16394TIP3   OH270672   3.913   4.130  15.543 -0.3030  0.2379  0.1389
16394TIP3    H170673   3.915   4.041  15.507 -3.3697 -0.1966  0.9063
16394TIP3    H270674   3.962   4.183  15.480 -1.4041 -1.3798 -2.1436
16395TIP3   OH270675   5.487   1.097   2.812 -0.1732  0.2097 -0.2562
16395TIP3    H170676   5.536   1.080   2.893  1.8584 -0.9406 -1.6667
16395TIP3    H270677   5.430   1.020   2.802  0.4343 -0.2098 -0.5187
16396TIP3   OH270678   5.734   5.935   1.847  0.0218 -0.8492  0.2745
16396TIP3    H170679   5.684   5.855   1.863 -3.5534  0.7296 -2.1894
16396TIP3    H270680   5.762   5.928   1.756 -0.7530  0.8604 -0.1289
16397TIP3   OH270681   5.414   6.725  15.892  0.2932 -0.2627 -0.0768
16397TIP3    H170682   5.350   6.666  15.851 -0.9845  0.2230  1.2062
16397TIP3    H270683   5.465   6.758  15.818 -1.8039  0.3868 -1.2876
16398TIP3   OH270684   5.372   2.945   1.800  0.6696  0.0244 -0.1481
16398TIP3    H170685   5.414   2.989   1.874  0.2294  0.9973 -0.4542
16398TIP3    H270686   5.428   2.965   1.725  0.4257  0.1301 -0.3037
16399TIP3   OH270687   3.339   5.707   0.812 -0.2386  0.0765 -0.9151
16399TIP3    H170688   3.281   5.778   0.838  0.1836  0.5678 -1.3112
16399TIP3    H270689   3.317   5.691   0.720 -0.4153 -0.3850 -0.7943
16400TIP3   OH270690   0.209   0.248  14.692  0.1450  0.8495  0.3172
16400TIP3    H170691   0.211   0.301  14.772 -1.1399  0.2490  0.7621
16400TIP3    H270692   0.241   0.162  14.719  0.5178  0.8929  0.0054
16401TIP3   OH270693   0.198   2.106  12.338  0.4126 -0.0920  0.0685
16401TIP3    H170694   0.201   2.096  12.243  0.7674 -2.7981  0.3180
16401TIP3    H270695   0.115   2.064  12.363  1.9740 -2.5598  1.2463
16402TIP3   OH270696   0.505   2.758   3.430  0.3414  0.2622 -0.6966
16402TIP3    H170697   0.518   2.672   3.471 -3.2762 -0.5001 -0.9802
16402TIP3    H270698   0.526   2.821   3.499 -1.6982 -0.9529  1.0993
16403TIP3   OH270699   6.303   1.970   4.343 -0.5319  0.2062  0.2275
16403TIP3    H170700   6.285   1.920   4.423  0.4515  1.1904  1.0729
16403TIP3    H270701   6.390   2.006   4.356 -1.1118  1.9118 -0.4893
16404TIP3   OH270702   2.140   3.765  11.041 -0.0648 -0.4217 -0.3181
16404TIP3    H170703   2.177   3.767  11.130  1.1965 -0.0646 -0.8461
16404TIP3    H270704   2.215   3.749  10.984 -0.7277  0.3419 -1.4142
16405TIP3   OH270705   4.946   5.212  15.246  0.7352 -0.2334  0.2256
16405TIP3    H170706   5.022   5.158  15.267  0.4438  0.1785  2.4175
16405TIP3    H270707   4.975   5.302  15.261  0.8166  0.1668 -2.1629
16406TIP3   OH270708   1.903   4.465  11.848 -0.3024  0.5653 -0.3305
16406TIP3    H170709   1.962   4.531  11.885  1.5663 -2.1073  1.6206
16406TIP3    H270710   1.871   4.417  11.924 -0.7667 -1.5025 -1.7936
16407TIP3   OH270711   2.321   0.503   3.162  0.3001  0.8162  0.0625
16407TIP3    H170712   2.296   0.591   3.133  1.7149  2.0359  2.4094
16407TIP3    H270713   2.268   0.487   3.240  1.4638  0.3817  0.7724
16408TIP3   OH270714   5.026   4.018  16.229 -0.4473  0.6165 -0.0495
16408TIP3    H170715   4.938   4.053  16.215 -1.0674 -1.6045 -1.9287
16408TIP3    H270716   5.013   3.924  16.235  1.8762  0.2403 -0.7653
16409TIP3   OH270717   1.118   6.474  17.008 -0.0276 -0.5456 -0.0867
16409TIP3    H170718   1.043   6.466  17.066  1.1063  0.0178  1.5144
16409TIP3    H270719   1.090   6.535  16.940 -0.3389  1.3489  1.6872
16410TIP3   OH270720   4.606   2.716   1.907  0.0634 -0.1823 -0.4998
16410TIP3    H170721   4.673   2.783   1.893  1.1400 -1.0394  0.4517
16410TIP3    H270722   4.563   2.742   1.989  0.8910 -0.9523  0.2007
16411TIP3   OH270723   0.806   2.536   2.495  0.3827  0.1102  0.1292
16411TIP3    H170724   0.837   2.623   2.468  0.8917 -0.1284 -0.0528
16411TIP3    H270725   0.816   2.482   2.417  0.6889 -0.2765  0.4377
16412TIP3   OH270726   3.821   5.386   2.342  0.2104  0.2034  0.6815
16412TIP3    H170727   3.807   5.382   2.247 -0.4449  0.0251  0.7789
16412TIP3    H270728   3.791   5.301   2.374 -2.4457  1.3602  1.3996
16413TIP3   OH270729   4.347   5.192   5.666  0.5320  0.3446  0.0843
16413TIP3    H170730   4.296   5.160   5.740  0.1212 -0.1020 -0.3816
16413TIP3    H270731   4.438   5.180   5.693  0.3837 -0.4608  0.2502
16414TIP3   OH270732   0.764   4.624   2.277 -0.3067  0.2133 -0.3464
16414TIP3    H170733   0.728   4.581   2.354  0.2878 -0.2240 -0.3124
16414TIP3    H270734   0.711   4.703   2.267  0.0271  0.6060  0.8908
16415TIP3   OH270735   0.152   2.712   5.370 -0.3301 -0.2513  0.2049
16415TIP3    H170736   0.176   2.804   5.380 -1.3376 -0.1749  2.0225
16415TIP3    H270737   0.057   2.710   5.384 -0.3108 -1.5744  0.2017
16416TIP3   OH270738   4.147   4.375  13.081  0.3945  0.6378  0.4988
16416TIP3    H170739   4.146   4.318  13.158  0.5286 -2.5430 -1.7327
16416TIP3    H270740   4.236   4.366  13.046 -0.4448 -0.0990 -1.5130
16417TIP3   OH270741   5.675   6.013  13.097 -0.2658 -0.0687 -0.6030
16417TIP3    H170742   5.764   5.998  13.128 -0.7503 -1.4012  0.1558
16417TIP3    H270743   5.685   6.075  13.025  1.1524  0.7274  0.2645
16418TIP3   OH270744   5.217   2.098  14.139 -0.4088  0.4897 -0.2690
16418TIP3    H170745   5.295   2.103  14.083 -0.5835  1.2403 -0.4486
16418TIP3    H270746   5.161   2.033  14.096  0.6167 -0.9125  0.4949
16419TIP3   OH270747   1.934   2.878  15.946 -0.0358  0.2299 -0.2201
16419TIP3    H170748   2.017   2.853  15.904 -0.2072  0.2933 -0.6025
16419TIP3    H270749   1.950   2.865  16.039 -0.2005 -1.6033 -0.4102
16420TIP3   OH270750   4.910   4.871  17.164  0.0603  0.0617  0.0871
16420TIP3    H170751   4.882   4.962  17.158  0.6962  0.2492  0.0255
16420TIP3    H270752   4.909   4.852  17.258  0.0006  0.1526  0.1061
16421TIP3   OH270753   3.929   6.640  14.697 -0.3403 -0.2296 -0.2817
16421TIP3    H170754   3.999   6.705  14.700 -0.1465 -0.2652 -2.8352
16421TIP3    H270755   3.961   6.572  14.637 -2.1531 -0.7123 -0.7525
16422TIP3   OH270756   0.754   0.155   1.700 -0.5695 -0.3981  0.9800
16422TIP3    H170757   0.817   0.172   1.771  0.7724 -0.8961 -0.0655
16422TIP3    H270758   0.767   0.229   1.640 -2.0319  0.2661  1.4688
16423TIP3   OH270759   4.618   3.074  13.522  0.0703  0.5901 -0.2629
16423TIP3    H170760   4.564   3.041  13.593 -1.1250  1.3854 -0.7777
16423TIP3    H270761   4.649   2.996  13.477 -0.5261  0.1148  0.1461
16424TIP3   OH270762   2.663   4.982   1.980 -0.0871  0.2949 -0.5611
16424TIP3    H170763   2.584   5.037   1.977 -0.2472  0.0886 -0.0758
16424TIP3    H270764   2.735   5.045   1.980 -0.2815  0.5349  0.6960
16425TIP3   OH270765   5.254   4.669  11.400 -0.4136 -0.1962  0.0971
16425TIP3    H170766   5.287   4.752  11.435  2.4415 -0.6797 -1.3180
16425TIP3    H270767   5.314   4.603  11.434 -0.4824 -1.2404 -1.7495
16426TIP3   OH270768   3.027   3.505   6.582  0.1197  0.6821 -0.0917
16426TIP3    H170769   3.051   3.526   6.672  0.2135  0.3855 -0.0486
16426TIP3    H270770   3.096   3.546   6.529  0.5631  0.0886  0.0181
16427TIP3   OH270771   1.763   0.635   5.256  0.1529 -0.0926  0.3471
16427TIP3    H170772   1.788   0.636   5.164 -1.6696  1.3730 -0.1584
16427TIP3    H270773   1.729   0.723   5.273 -0.9092 -0.7966  2.0458
16428TIP3   OH270774   1.502   5.253  11.824 -0.0067 -0.1530 -0.4043
16428TIP3    H170775   1.432   5.296  11.872 -1.1315 -0.0751 -2.0800
16428TIP3    H270776   1.549   5.325  11.781  0.1951 -0.3224 -0.4666
16429TIP3   OH270777   0.400   6.438  14.234 -0.4408  0.1620  0.0519
16429TIP3    H170778   0.494   6.451  14.231 -0.2327 -1.0776  0.5574
16429TIP3    H270779   0.373   6.433  14.143  0.0427  0.1513 -0.0915
16430TIP3   OH270780   2.670   6.353   2.644 -0.2712 -0.4172  0.5836
16430TIP3    H170781   2.671   6.263   2.676 -2.7789  0.0749  2.1785
16430TIP3    H270782   2.645   6.406   2.720  1.2587  1.6566 -0.3008
16431TIP3   OH270783   0.926   1.095  13.369  0.3623  0.7087  0.0716
16431TIP3    H170784   0.892   1.183  13.380  2.5559  1.6706 -0.6446
16431TIP3    H270785   0.972   1.097  13.285 -1.0586 -1.6112 -0.8105
16432TIP3   OH270786   3.124   1.167   5.077 -0.0690  0.1835  0.1112
16432TIP3    H170787   3.203   1.214   5.103 -1.5778  1.7582  2.0135
16432TIP3    H270788   3.102   1.202   4.991  0.4247  0.8960  0.2707
16433TIP3   OH270789   2.817   4.832  11.025 -0.1803 -0.3189  0.0392
16433TIP3    H170790   2.742   4.775  11.006 -1.7935  1.7413  0.0920
16433TIP3    H270791   2.839   4.872  10.941 -1.5234  1.8904  0.7148
16434TIP3   OH270792   1.896   3.906  16.993 -0.1303 -0.3781 -0.2642
16434TIP3    H170793   1.862   3.873  16.910  2.4012  0.5163 -1.7187
16434TIP3    H270794   1.890   4.001  16.985 -1.3662 -0.3227  1.2499
16435TIP3   OH270795   1.110   2.741   3.246 -0.0318  0.1096 -0.7957
16435TIP3    H170796   1.082   2.650   3.244 -0.1837  0.1127  0.7915
16435TIP3    H270797   1.195   2.741   3.203  0.2448 -0.8837 -0.2621
16436TIP3   OH270798   3.621   4.969  14.564  0.0190 -0.2904  0.3469
16436TIP3    H170799   3.694   4.940  14.509  0.0265 -0.1761  0.2971
16436TIP3    H270800   3.544   4.962  14.508 -0.0685 -0.8041  0.5270
16437TIP3   OH270801   1.281   5.608  14.195 -0.1370 -0.2022 -0.2779
16437TIP3    H170802   1.341   5.616  14.268 -1.1795 -2.6277  0.8945
16437TIP3    H270803   1.337   5.602  14.118  0.9761  1.6792  0.3610
16438TIP3   OH270804   5.719   2.068   5.296 -0.0202 -0.0783  0.0510
16438TIP3    H170805   5.721   1.973   5.281 -1.0208 -0.0280 -0.4509
16438TIP3    H270806   5.653   2.100   5.234  2.1652  1.2835 -1.6291
16439TIP3   OH270807   4.410   1.269   3.950  0.1025 -0.0969  0.7171
16439TIP3    H170808   4.341   1.222   3.903  1.2459 -1.9020  0.7771
16439TIP3    H270809   4.417   1.224   4.034  0.8888  0.4870  0.9673
16440TIP3   OH270810   5.512   4.914   3.708  0.0276  0.0297  0.2439
16440TIP3    H170811   5.576   4.861   3.660  0.1549  0.1613  0.2666
16440TIP3    H270812   5.485   4.859   3.781  0.0584 -0.0562  0.1907
16441TIP3   OH270813   2.938   5.079   6.270 -0.0540  0.5636 -0.1730
16441TIP3    H170814   2.963   4.987   6.267 -1.9690  0.0250 -0.2086
16441TIP3    H270815   3.011   5.126   6.230  0.5644 -1.0158 -0.8963
16442TIP3   OH270816   4.774   0.343   0.413  0.2332  0.1850 -0.1613
16442TIP3    H170817   4.740   0.295   0.488  0.1825 -0.3300 -0.5073
16442TIP3    H270818   4.703   0.338   0.348  0.5860 -0.0723 -0.5333
16443TIP3   OH270819   0.277   3.276  15.202 -0.1385  0.0539 -0.2672
16443TIP3    H170820   0.191   3.245  15.229 -0.9184  1.6300 -0.8978
16443TIP3    H270821   0.318   3.306  15.283 -0.7190  0.5805 -0.1656
16444TIP3   OH270822   4.036   6.322   4.090 -0.1068  0.3989  0.0782
16444TIP3    H170823   3.967   6.322   4.025  0.6070  3.0539 -0.7231
16444TIP3    H270824   4.094   6.249   4.064 -1.2105 -0.2018 -0.7138
16445TIP3   OH270825   2.982   2.261  13.732 -0.3486 -0.0918 -0.4304
16445TIP3    H170826   2.927   2.323  13.780 -1.6858 -0.3173 -1.6476
16445TIP3    H270827   3.027   2.211  13.801 -1.8061 -0.0371  0.5864
16446TIP3   OH270828   4.187   4.277  16.260 -0.0978 -0.1574  0.2364
16446TIP3    H170829   4.230   4.196  16.234  1.0903  0.2869  0.7852
16446TIP3    H270830   4.239   4.310  16.332 -1.4244  0.3530  0.9798
16447TIP3   OH270831   0.945   4.181  13.367  0.1761  0.3256 -0.0895
16447TIP3    H170832   0.866   4.136  13.396  0.3291  0.0798 -0.0586
16447TIP3    H270833   0.939   4.181  13.271 -0.1074  0.7444 -0.0719
16448TIP3   OH270834   1.773   5.307   0.412  0.1500  0.3549  0.1901
16448TIP3    H170835   1.768   5.241   0.481 -1.4099 -0.9028 -1.0837
16448TIP3    H270836   1.796   5.258   0.334  1.5020  1.7139 -0.2724
16449TIP3   OH270837   2.114   5.467  16.895 -0.4256  0.1373 -0.0782
16449TIP3    H170838   2.196   5.489  16.938 -0.8070 -0.0230  0.7583
16449TIP3    H270839   2.138   5.406  16.825  0.0962 -0.3273  0.5064
16450TIP3   OH270840   2.502   4.633  15.413  0.1891 -0.1493  0.3138
16450TIP3    H170841   2.538   4.591  15.335  0.2611 -0.4530  0.5119
16450TIP3    H270842   2.452   4.707  15.379 -1.2069 -1.2855 -0.1333
16451TIP3   OH270843   4.315   1.220  14.604  0.4072  0.3288 -0.0286
16451TIP3    H170844   4.235   1.266  14.580 -1.3396 -1.6758  1.6885
16451TIP3    H270845   4.285   1.148  14.661  3.2883 -1.2173 -0.3697
16452TIP3   OH270846   3.068   0.016   3.337 -0.2497  0.5757 -0.3748
16452TIP3    H170847   3.023   0.041   3.256  0.3514  3.1687  0.0614
16452TIP3    H270848   3.006   0.039   3.406 -0.0361  0.0077  0.0089
16453TIP3   OH270849   5.764   5.905  12.735 -0.5593  0.4443  0.0545
16453TIP3    H170850   5.759   5.812  12.756 -1.2781  0.0763 -1.6361
16453TIP3    H270851   5.777   5.907  12.640 -2.9603  2.1110 -0.2608
16454TIP3   OH270852   2.329   5.446  13.338 -0.6572  0.2783  0.1510
16454TIP3    H170853   2.377   5.390  13.277 -3.5403  1.4124 -3.2795
16454TIP3    H270854   2.384   5.447  13.417  2.3774 -2.5296 -1.7923
16455TIP3   OH270855   0.553   5.028   5.781  0.0887  0.4375 -0.3414
16455TIP3    H170856   0.610   4.955   5.760 -1.0961 -0.5476 -0.2044
16455TIP3    H270857   0.563   5.041   5.875  1.1511  1.2076 -0.5446
16456TIP3   OH270858   2.279   1.908  11.046 -0.4443 -0.3318 -0.2918
16456TIP3    H170859   2.215   1.947  10.987 -0.3183  1.4224  0.7132
16456TIP3    H270860   2.342   1.864  10.988 -0.2804  1.4238 -1.4749
16457TIP3   OH270861   0.138   6.381  15.920  0.3764  0.0172  0.3115
16457TIP3    H170862   0.057   6.344  15.957  1.6665 -0.4853  2.7576
16457TIP3    H270863   0.109   6.459  15.873 -1.6074 -0.4579  0.6764
16458TIP3   OH270864   5.701   4.220   1.094  0.6804 -0.3331 -0.3182
16458TIP3    H170865   5.681   4.130   1.118 -0.7370 -0.2312 -1.0929
16458TIP3    H270866   5.677   4.271   1.170  1.4981 -0.5978  0.1274
16459TIP3   OH270867   6.030   2.855   0.737  0.2100  0.5545 -0.3147
16459TIP3    H170868   6.074   2.864   0.822  2.5099  2.7363 -1.6634
16459TIP3    H270869   5.953   2.910   0.745 -0.8533 -1.0645  1.1059
16460TIP3   OH270870   1.098   5.189   1.484 -0.0900 -0.3895  0.0220
16460TIP3    H170871   1.060   5.105   1.458 -1.3784  0.9927 -2.6386
16460TIP3    H270872   1.052   5.211   1.566 -1.7731 -0.9136 -0.7613
16461TIP3   OH270873   0.192   5.503  10.863  0.3737  0.0422 -0.1840
16461TIP3    H170874   0.229   5.590  10.877  0.1744  0.1748 -0.4924
16461TIP3    H270875   0.105   5.508  10.902  0.9170 -0.4692  1.1437
16462TIP3   OH270876   3.676   4.052   2.221 -0.4402  0.4586 -0.3602
16462TIP3    H170877   3.690   3.973   2.273 -1.5815 -0.5106 -1.4901
16462TIP3    H270878   3.733   4.041   2.145 -0.5006  0.7755 -0.4500
16463TIP3   OH270879   2.137   1.646  16.241  0.5472 -0.5414 -0.0628
16463TIP3    H170880   2.065   1.609  16.190 -0.2635 -0.7248  1.1813
16463TIP3    H270881   2.150   1.734  16.205 -0.5770 -0.3551 -0.0211
16464TIP3   OH270882   2.040   1.778  12.671 -0.4803  0.0886 -0.0525
16464TIP3    H170883   2.126   1.759  12.708 -0.6018  1.6558  1.0790
16464TIP3    H270884   1.993   1.695  12.675  1.0650 -0.8532 -0.9623
16465TIP3   OH270885   4.755   0.421   3.666 -0.1253  0.5253  0.5399
16465TIP3    H170886   4.809   0.490   3.628 -2.4931  1.4214 -1.3605
16465TIP3    H270887   4.796   0.339   3.635  0.3710  1.1691 -0.5287
16466TIP3   OH270888   3.337   0.884   4.128 -0.2153 -0.7191  0.1248
16466TIP3    H170889   3.353   0.928   4.211 -0.7530 -2.2710  1.0722
16466TIP3    H270890   3.264   0.932   4.089 -0.1549 -0.1711  0.6778
16467TIP3   OH270891   6.310   6.765  17.144  0.0803 -0.0456 -0.3641
16467TIP3    H170892   6.289   6.784  17.235  0.7609  0.4194 -0.3096
16467TIP3    H270893   6.240   6.706  17.116 -2.4734  3.0331 -0.7626
16468TIP3   OH270894   3.594   1.505   2.167  0.1356 -0.1497 -0.2462
16468TIP3    H170895   3.648   1.462   2.101 -0.4192 -0.5482 -0.4361
16468TIP3    H270896   3.517   1.536   2.120  0.2054  0.4435  0.0214
16469TIP3   OH270897   2.145   3.994   4.215 -0.0275 -0.2096  0.3088
16469TIP3    H170898   2.061   4.040   4.217  0.6340  1.0452 -0.2647
16469TIP3    H270899   2.198   4.041   4.280  0.8734  0.2698 -0.7726
16470TIP3   OH270900   4.891   6.678  13.775  0.2735  0.3407 -0.4514
16470TIP3    H170901   4.953   6.606  13.786  0.1550  0.2532 -0.3520
16470TIP3    H270902   4.946   6.754  13.756  0.3845  0.1740 -0.8159
16471TIP3   OH270903   0.018   6.762  11.469 -0.2026 -0.4918  0.2868
16471TIP3    H170904  -0.052   6.786  11.530 -0.4130 -1.4424  0.4252
16471TIP3    H270905   0.046   6.845  11.431 -0.4670  0.0436  1.2508
16472TIP3   OH270906   5.375   1.140  13.677 -0.0956  0.0686  0.1557
16472TIP3    H170907   5.382   1.180  13.764 -0.7781  1.5447 -0.4517
16472TIP3    H270908   5.281   1.139  13.658  0.0736  0.1204 -0.7151
16473TIP3   OH270909   6.702   0.886  16.620 -0.0344  0.3612  0.2901
16473TIP3    H170910   6.668   0.798  16.603  1.2415 -0.3588  1.3895
16473TIP3    H270911   6.692   0.898  16.715  0.2200  1.2405  0.2132
16474TIP3   OH270912   1.360   4.614  13.228  0.0081 -0.1422  0.3660
16474TIP3    H170913   1.354   4.695  13.278  0.0341 -0.2102  0.4800
16474TIP3    H270914   1.442   4.575  13.256  0.4958  0.2962 -0.4494
16475TIP3   OH270915   3.228   6.072   0.336  0.4144 -0.1733  0.9139
16475TIP3    H170916   3.274   6.057   0.253  3.1170  2.0180  1.9674
16475TIP3    H270917   3.256   5.999   0.392  0.9617 -0.0089  0.8592
16476TIP3   OH270918   5.827   5.169  13.428  0.4121 -0.7649  0.2860
16476TIP3    H170919   5.909   5.212  13.454 -0.3399  0.8721  0.0002
16476TIP3    H270920   5.792   5.132  13.509  1.2302 -1.1513  0.4765
16477TIP3   OH270921   0.932   3.753   4.337  0.3954  0.0293  0.1409
16477TIP3    H170922   0.981   3.815   4.283  0.3732 -0.4746 -0.4588
16477TIP3    H270923   0.841   3.766   4.313  0.0326  2.0118  2.3146
16478TIP3   OH270924   5.919   2.365  12.058 -0.0169 -0.0372  0.6255
16478TIP3    H170925   5.835   2.357  12.101 -0.4012  0.1433 -0.0858
16478TIP3    H270926   5.904   2.426  11.985  0.0857 -2.0242 -1.0905
16479TIP3   OH270927   5.642   1.185  11.678 -0.6304 -0.2579  0.3397
16479TIP3    H170928   5.612   1.275  11.687 -0.2472  0.1465 -2.0161
16479TIP3    H270929   5.566   1.132  11.700 -1.6956  0.7029 -0.9186
16480TIP3   OH270930   6.542   6.761  16.979 -0.6303  0.1369  0.6347
16480TIP3    H170931   6.561   6.669  16.957 -0.7656  0.8296 -2.5928
16480TIP3    H270932   6.455   6.758  17.020 -0.1640 -1.2905  1.5635
16481TIP3   OH270933   0.518   6.626   4.638 -0.2272 -0.1330  0.5484
16481TIP3    H170934   0.479   6.674   4.711  0.6865  0.4608  0.6430
16481TIP3    H270935   0.444   6.577   4.601 -1.4692  2.3584 -0.3822
16482TIP3   OH270936   3.643   0.755   0.346 -0.0040  0.4220  0.7132
16482TIP3    H170937   3.604   0.717   0.425 -2.6800 -0.2987 -0.8635
16482TIP3    H270938   3.664   0.679   0.291 -1.5790  1.0009 -0.7489
16483TIP3   OH270939   0.695   2.760   3.210 -0.3163  0.5445  0.0427
16483TIP3    H170940   0.772   2.814   3.228 -0.2028  1.4163 -2.8436
16483TIP3    H270941   0.634   2.780   3.281  1.3882  1.2003  1.3643
16484TIP3   OH270942   5.823   3.484   4.195  0.9779  0.3802 -0.7778
16484TIP3    H170943   5.761   3.543   4.239  0.6327 -0.9593  0.6015
16484TIP3    H270944   5.904   3.535   4.189 -0.0642  1.9513 -2.0758
16485TIP3   OH270945   4.433   0.558  15.340 -0.3561 -0.1083 -0.4862
16485TIP3    H170946   4.443   0.472  15.382 -0.1339 -0.2073 -0.7371
16485TIP3    H270947   4.352   0.594  15.377  0.0018 -0.0613  0.2553
16486TIP3   OH270948   6.215   3.425   4.405  0.4006  0.3763 -0.3173
16486TIP3    H170949   6.282   3.382   4.352  0.3144  0.5591 -0.5761
16486TIP3    H270950   6.217   3.516   4.377 -0.1115  0.3363 -0.4849
16487TIP3   OH270951   6.475   2.753  16.673 -0.2564  0.1987 -0.5278
16487TIP3    H170952   6.566   2.776  16.689 -0.2479  0.4141 -0.8916
16487TIP3    H270953   6.477   2.658  16.659 -0.3010 -0.0459  0.9937
16488TIP3   OH270954   3.805   6.645  14.167 -0.5006 -1.0745 -0.9953
16488TIP3    H170955   3.721   6.613  14.133 -1.0980 -1.2204  0.5993
16488TIP3    H270956   3.830   6.714  14.105 -1.9703 -0.7863 -1.3068
16489TIP3   OH270957   5.573   5.431   3.505  0.4397  0.0201 -0.8745
16489TIP3    H170958   5.647   5.456   3.560 -0.3714  0.1599  0.1549
16489TIP3    H270959   5.614   5.386   3.431  1.5143 -0.6112  0.0732
16490TIP3   OH270960   0.509   0.068  13.368  0.3589  0.6744  0.0728
16490TIP3    H170961   0.546   0.154  13.348  1.3081 -0.0050 -1.1039
16490TIP3    H270962   0.466   0.040  13.288  2.3099 -1.0968 -0.3883
16491TIP3   OH270963   6.200   0.947   2.249 -0.3135 -0.1936 -0.2094
16491TIP3    H170964   6.260   0.882   2.215 -0.7898 -0.9800  0.4268
16491TIP3    H270965   6.163   0.989   2.172 -1.0187 -1.6162 -0.6726
16492TIP3   OH270966   5.423   4.210   5.977  0.4467 -0.0162 -0.1287
16492TIP3    H170967   5.351   4.264   5.943 -0.3483 -0.7920  0.3277
16492TIP3    H270968   5.491   4.274   6.000 -1.0152  0.9175  1.7081
16493TIP3   OH270969   5.679   2.834  12.878 -0.3052 -0.4003  0.6023
16493TIP3    H170970   5.763   2.790  12.892  0.0520  0.2401  0.4653
16493TIP3    H270971   5.701   2.913  12.830 -0.7723  0.7348  2.2318
16494TIP3   OH270972   0.608   1.381   0.162 -0.0062  0.2452 -0.3336
16494TIP3    H170973   0.527   1.330   0.166  0.1867  0.0456  1.3550
16494TIP3    H270974   0.636   1.375   0.070 -0.5197 -1.8460 -0.3694
16495TIP3   OH270975   2.698   0.233  12.743 -0.6647 -0.7214  0.2050
16495TIP3    H170976   2.640   0.295  12.788  0.1535 -0.0583  0.3619
16495TIP3    H270977   2.737   0.283  12.672  1.4477 -0.4999  1.4767
16496TIP3   OH270978   0.265   2.686  13.820  0.0188 -0.7466  0.9461
16496TIP3    H170979   0.260   2.625  13.746  0.8553  0.4316 -0.0939
16496TIP3    H270980   0.358   2.704  13.831 -0.3269  1.8558 -0.0306
16497TIP3   OH270981   3.950   2.614  13.690 -0.4698 -0.3082  0.3936
16497TIP3    H170982   3.892   2.682  13.656  0.9924 -0.0291 -1.6543
16497TIP3    H270983   3.923   2.602  13.781 -2.7954  0.7826 -0.1183
16498TIP3   OH270984   4.348   3.899   2.603 -0.0241  0.4946 -0.0098
16498TIP3    H170985   4.437   3.898   2.639 -0.0006  0.0152 -0.0834
16498TIP3    H270986   4.356   3.949   2.522  0.5295 -1.0338 -0.9178
16499TIP3   OH270987   5.881   0.679   1.678  0.2226 -0.0921 -0.9049
16499TIP3    H170988   5.900   0.589   1.703  0.0796  0.6737  2.1501
16499TIP3    H270989   5.967   0.722   1.676  0.0931  0.2213 -0.0996
16500TIP3   OH270990   1.125   1.103   5.497  0.1578  0.2005  0.4248
16500TIP3    H170991   1.084   1.118   5.412 -1.1680 -2.2153  0.5937
16500TIP3    H270992   1.215   1.135   5.487  0.9050 -2.5969 -2.7807
16501TIP3   OH270993   0.550   0.403   1.107  0.1438  0.5242  0.0647
16501TIP3    H170994   0.623   0.362   1.060  1.1763  2.3616  0.0323
16501TIP3    H270995   0.584   0.488   1.135 -1.8408  1.2027  0.4694
16502TIP3   OH270996   5.385   2.926  10.579 -0.5052 -0.6039  0.0265
16502TIP3    H170997   5.472   2.947  10.614 -0.4548 -0.0558 -0.4262
16502TIP3    H270998   5.326   2.986  10.624 -0.3825  0.4137 -1.1416
16503TIP3   OH270999   4.335   3.204   4.444  0.1032 -0.6059  0.1948
16503TIP3    H171000   4.365   3.165   4.526  1.3542  0.2010  0.1251
16503TIP3    H271001   4.304   3.129   4.392  1.9446 -1.4689  0.2828
16504TIP3   OH271002   5.620   1.086   0.324 -0.7100 -0.3704  0.6176
16504TIP3    H171003   5.685   1.059   0.259 -0.2093  0.2083  0.8672
16504TIP3    H271004   5.632   1.181   0.332  0.0542 -0.5917  2.4135
16505TIP3   OH271005   5.117   5.999  13.410 -0.0840 -0.2511 -0.4761
16505TIP3    H171006   5.070   5.916  13.423  0.1229 -0.4990 -1.2634
16505TIP3    H271007   5.061   6.049  13.351  0.7693 -0.6657 -1.6599
16506TIP3   OH271008   0.309   2.769   6.319  0.1404  0.4432  0.6199
16506TIP3    H171009   0.399   2.777   6.352  0.7838 -1.3225 -0.6158
16506TIP3    H271010   0.306   2.682   6.279 -2.6634 -0.2829  2.2760
16507TIP3   OH271011   5.313   1.446  14.111 -0.4662  0.0243  0.5153
16507TIP3    H171012   5.367   1.477  14.184 -0.0133 -0.2659  0.3028
16507TIP3    H271013   5.259   1.521  14.087 -2.4213 -0.5479  2.7875
16508TIP3   OH271014   2.650   4.308   4.360  0.3747 -0.3842  0.0338
16508TIP3    H171015   2.622   4.219   4.341  0.5365 -0.3005 -0.6049
16508TIP3    H271016   2.668   4.347   4.274 -0.4524  0.5022  0.2451
16509TIP3   OH271017   2.406   1.291   4.614 -0.3310 -0.0765  0.4456
16509TIP3    H171018   2.329   1.328   4.659 -1.3069 -2.2626  0.6434
16509TIP3    H271019   2.371   1.253   4.533  1.1344  2.1420 -1.2819
16510TIP3   OH271020   0.113   0.316  12.187  0.7568  0.0197 -0.5981
16510TIP3    H171021   0.106   0.239  12.243  1.2346  0.8861  0.6642
16510TIP3    H271022   0.024   0.330  12.155  0.7095 -1.1685 -0.9872
16511TIP3   OH271023   4.912   0.141   2.084  0.4432 -0.5671  0.1879
16511TIP3    H171024   4.985   0.096   2.042  1.1110 -0.4937  1.2667
16511TIP3    H271025   4.950   0.184   2.161 -0.1678  1.8604 -0.7948
16512TIP3   OH271026   6.774   3.646   0.693 -0.4925 -0.2592 -0.8281
16512TIP3    H171027   6.683   3.673   0.679 -0.6751  0.0079  0.8551
16512TIP3    H271028   6.826   3.722   0.664 -0.9154  0.8221  1.1651
16513TIP3   OH271029   3.213   2.125  12.984 -0.4152  0.5339 -0.1171
16513TIP3    H171030   3.258   2.200  13.021 -0.5067  0.7777 -0.4981
16513TIP3    H271031   3.137   2.112  13.041  0.0207  0.2437  0.4079
16514TIP3   OH271032   3.761   5.636   3.691 -0.4574  0.0364  0.0714
16514TIP3    H171033   3.839   5.672   3.649 -1.2604  0.1782 -1.3378
16514TIP3    H271034   3.793   5.596   3.771  1.0394  0.2445 -0.4081
16515TIP3   OH271035   4.230   1.164   3.787  0.4076  0.0940 -0.1916
16515TIP3    H171036   4.270   1.085   3.750 -0.5289  0.0827 -1.1965
16515TIP3    H271037   4.141   1.137   3.809 -0.6046  1.4218 -2.5046
16516TIP3   OH271038   4.761   0.756  13.668  0.2783 -0.1400  0.0101
16516TIP3    H171039   4.840   0.806  13.688  0.9725 -0.6207 -1.5071
16516TIP3    H271040   4.692   0.801  13.717  0.9985  1.9382 -0.8186
16517TIP3   OH271041   4.426   5.242  12.518 -0.1036  0.0536 -0.5538
16517TIP3    H171042   4.493   5.200  12.464 -0.1522 -1.0709  0.2487
16517TIP3    H271043   4.347   5.239  12.464  0.2555  0.5374 -1.1218
16518TIP3   OH271044   3.820   2.138  14.976  0.1972  0.4220  0.0593
16518TIP3    H171045   3.819   2.225  14.938 -0.9130 -0.5083 -2.1422
16518TIP3    H271046   3.757   2.142  15.048 -2.3522  0.6087 -2.0852
16519TIP3   OH271047   5.162   1.556   1.718  0.0222 -0.1258  0.1284
16519TIP3    H171048   5.095   1.620   1.693  0.0521 -0.4035 -0.6730
16519TIP3    H271049   5.143   1.479   1.665  1.8749  0.3158 -1.2446
16520TIP3   OH271050   2.277   1.862   5.313 -0.4570 -0.3378  0.3283
16520TIP3    H171051   2.300   1.954   5.310  0.3232 -0.5237  0.4019
16520TIP3    H271052   2.299   1.828   5.227  0.6617 -0.7704  0.7720
16521TIP3   OH271053   1.428   4.488  15.436  0.1617 -0.2641 -0.4713
16521TIP3    H171054   1.514   4.482  15.394  0.4285  1.3286 -0.1850
16521TIP3    H271055   1.446   4.508  15.527 -0.4993 -0.8779 -0.1955
16522TIP3   OH271056   3.433   1.589   2.406 -0.4300  0.4165 -0.6048
16522TIP3    H171057   3.469   1.584   2.317 -0.6333  0.4376 -0.6872
16522TIP3    H271058   3.347   1.630   2.395  0.4132  2.3604 -0.1712
16523TIP3   OH271059   3.883   4.109   5.611  0.5913 -0.1044 -0.3243
16523TIP3    H171060   3.934   4.170   5.559  0.1961  0.5971  0.1050
16523TIP3    H271061   3.844   4.162   5.680  0.0303 -0.7906 -0.0996
16524TIP3   OH271062   0.262   5.767  16.845 -0.2084  0.2843 -0.1210
16524TIP3    H171063   0.348   5.728  16.860 -1.0858 -1.7673 -0.1780
16524TIP3    H271064   0.259   5.842  16.904  1.4299  0.0738  0.2538
16525TIP3   OH271065   6.506   0.804   4.041  0.5715 -0.1287 -0.3963
16525TIP3    H171066   6.517   0.793   3.946 -0.3814  0.4596 -0.5824
16525TIP3    H271067   6.426   0.755   4.062  0.9792 -0.5606  0.1662
16526TIP3   OH271068   1.845   0.780   2.269  0.5975 -0.1897  0.3307
16526TIP3    H171069   1.927   0.736   2.247 -0.4828 -1.7589 -0.7255
16526TIP3    H271070   1.780   0.710   2.269 -0.9260  1.1967  0.1469
16527TIP3   OH271071   1.736   1.370   4.527 -0.4785  0.6445  1.1662
16527TIP3    H171072   1.830   1.388   4.521 -0.0009 -1.9020  0.2097
16527TIP3    H271073   1.694   1.453   4.505  1.5676  1.1231 -1.1660
16528TIP3   OH271074   6.450   5.256   4.028  0.3739  0.4284 -0.9062
16528TIP3    H171075   6.439   5.291   4.117 -0.7870  1.0279 -1.2744
16528TIP3    H271076   6.545   5.252   4.016  0.5576 -0.2676  0.5932
16529TIP3   OH271077   5.797   2.520   1.736 -0.0077 -0.2808 -0.1092
16529TIP3    H171078   5.839   2.445   1.778  0.7489 -1.1813 -2.3598
16529TIP3    H271079   5.751   2.483   1.661 -0.2857  1.4155 -0.8096
16530TIP3   OH271080   2.347   3.446   6.198 -0.3898  0.1885  0.3860
16530TIP3    H171081   2.351   3.376   6.134 -1.7769  0.4684 -0.0173
16530TIP3    H271082   2.381   3.407   6.279  0.0855 -0.5521 -0.1691
16531TIP3   OH271083   2.575   2.257   0.720  0.3534 -0.3095  0.5707
16531TIP3    H171084   2.641   2.188   0.713  0.1371 -0.3840 -0.7747
16531TIP3    H271085   2.616   2.323   0.776  1.0230 -0.9790  0.8840
16532TIP3   OH271086   3.453   6.647   0.007  0.0116  0.2320  0.3843
16532TIP3    H171087   3.419   6.569   0.050  0.3294  0.0102  0.2419
16532TIP3    H271088   3.407   6.720   0.047 -1.3132 -0.1232 -0.4688
16533TIP3   OH271089   0.156   4.975   1.591  0.2466  0.3672  0.3561
16533TIP3    H171090   0.150   5.004   1.500 -1.2403  1.7864  0.8844
16533TIP3    H271091   0.220   5.035   1.630  0.3323  0.2223  0.4396
16534TIP3   OH271092   0.997   2.820   2.047 -0.0594  0.1535  0.1990
16534TIP3    H171093   1.000   2.903   2.000  0.0116 -0.5112 -0.9697
16534TIP3    H271094   1.037   2.840   2.132  1.1838  1.0060 -0.5661
16535TIP3   OH271095   2.495   1.053  14.783 -0.6483 -0.2508 -0.5293
16535TIP3    H171096   2.569   1.084  14.835  0.6149  0.8139 -2.9061
16535TIP3    H271097   2.491   0.959  14.801 -0.3521  0.1100  1.5891
16536TIP3   OH271098   5.282   4.926  11.983 -0.3988 -0.0607  0.4208
16536TIP3    H171099   5.369   4.962  11.966 -0.0119 -0.1219  2.2156
16536TIP3    H271100   5.284   4.838  11.945  0.3877 -0.1454  0.6643
16537TIP3   OH271101   3.040   1.136  14.134 -0.3019  0.1515  0.3398
16537TIP3    H171102   2.945   1.128  14.126 -0.4152  0.9151  0.8618
16537TIP3    H271103   3.054   1.225  14.166  0.7337  0.8202 -1.8823
16538TIP3   OH271104   3.502   3.811   1.667  0.1146 -0.1817  0.0176
16538TIP3    H171105   3.470   3.857   1.589  0.7113 -0.5411 -0.4486
16538TIP3    H271106   3.465   3.859   1.740 -0.2694  0.3020 -0.4877
16539TIP3   OH271107   6.385   4.904   4.520 -0.1900  0.5992 -0.2830
16539TIP3    H171108   6.456   4.949   4.566 -0.6436  1.2882 -0.2527
16539TIP3    H271109   6.426   4.866   4.442  0.4702 -0.1066  0.3957
16540TIP3   OH271110   2.100   1.627  11.009  0.1114 -0.5148  0.6998
16540TIP3    H171111   2.168   1.692  10.997 -2.9546  2.3927 -1.7166
16540TIP3    H271112   2.125   1.555  10.951  0.0138  1.4676 -1.8503
16541TIP3   OH271113   0.533   3.755  15.344 -0.3777 -0.5179 -0.3772
16541TIP3    H171114   0.513   3.788  15.432 -0.6810 -1.4911 -0.0790
16541TIP3    H271115   0.466   3.689  15.327 -0.1596 -0.5268 -1.2416
16542TIP3   OH271116   6.754   4.775   1.547 -0.2576  0.4201 -0.3169
16542TIP3    H171117   6.792   4.862   1.549 -1.5148  0.9754  0.4008
16542TIP3    H271118   6.796   4.728   1.619  0.7681  0.2769 -1.0066
16543TIP3   OH271119   2.095   3.314   6.085  0.4920  0.2322 -0.1359
16543TIP3    H171120   2.027   3.263   6.042 -0.1516  0.6615  0.3706
16543TIP3    H271121   2.171   3.255   6.088  0.3154 -0.0612 -1.1783
16544TIP3   OH271122   5.731   0.908  13.880  0.5908  0.8570  0.5738
16544TIP3    H171123   5.759   0.979  13.821 -0.9531  1.0067 -0.0090
16544TIP3    H271124   5.809   0.885  13.929  1.5425  1.7620 -0.4993
16545TIP3   OH271125   6.329   5.833  16.451 -0.1112 -0.4702 -0.0539
16545TIP3    H171126   6.342   5.880  16.533 -0.3713  1.8841 -1.3024
16545TIP3    H271127   6.413   5.840  16.406 -0.8921  1.1074 -1.3509
16546TIP3   OH271128   1.827   0.286   5.366 -0.3605  0.7506 -0.0456
16546TIP3    H171129   1.754   0.336   5.402 -0.1112  0.5131  0.8162
16546TIP3    H271130   1.904   0.321   5.411 -0.2167 -0.5908  0.7934
16547TIP3   OH271131   2.726   3.333   2.941  0.5573 -0.5434 -0.1367
16547TIP3    H171132   2.807   3.290   2.911  0.6875  0.4317 -1.2026
16547TIP3    H271133   2.756   3.409   2.989  0.2773 -0.1413 -0.5937
16548TIP3   OH271134   5.390   4.294   5.294 -0.5473 -0.1875  0.4355
16548TIP3    H171135   5.420   4.211   5.255  0.5376  1.5637 -2.7078
16548TIP3    H271136   5.382   4.276   5.387  2.7981 -2.9522  0.2791
16549TIP3   OH271137   6.680   4.984  13.175 -0.5453  0.0070  0.0946
16549TIP3    H171138   6.612   5.051  13.186  0.4262  1.2256 -1.2234
16549TIP3    H271139   6.757   5.032  13.144  0.2600 -1.6859 -0.5943
16550TIP3   OH271140   2.360   5.327  12.463 -0.2577  0.5809 -0.3094
16550TIP3    H171141   2.300   5.290  12.527  1.7260  1.1739  1.9703
16550TIP3    H271142   2.428   5.260  12.451 -1.2127  0.0024 -2.6912
16551TIP3   OH271143   0.934   0.907   4.819 -0.1542 -0.0991  0.1122
16551TIP3    H171144   0.876   0.915   4.895  0.9958  0.8898  0.9066
16551TIP3    H271145   0.924   0.816   4.790 -1.0567 -0.3153  1.0730
16552TIP3   OH271146   3.580   1.467   5.442  0.6855  0.1053  1.3821
16552TIP3    H171147   3.586   1.379   5.404  2.3768  0.6704  0.2668
16552TIP3    H271148   3.537   1.519   5.373 -2.8409 -0.3786  3.0801
16553TIP3   OH271149   6.791   2.626  16.526 -0.8462  0.1074 -0.0690
16553TIP3    H171150   6.704   2.600  16.496 -0.4536 -0.7319 -0.5132
16553TIP3    H271151   6.824   2.684  16.457 -1.2425  0.8155  0.3331
16554TIP3   OH271152   0.641   0.925   1.697  0.2326 -0.1932  0.4803
16554TIP3    H171153   0.624   0.854   1.759  0.3229  1.2949  2.2200
16554TIP3    H271154   0.655   0.880   1.613 -0.2360 -2.1914  1.4464
16555TIP3   OH271155   3.892   4.936   0.034  0.1893  0.0574 -0.0939
16555TIP3    H171156   3.930   5.019   0.006 -0.0516  0.4880  0.8454
16555TIP3    H271157   3.962   4.891   0.080  0.6399 -0.7307 -1.5292
16556TIP3   OH271158   1.950   0.847  13.826 -0.3062 -0.1562  0.2884
16556TIP3    H171159   2.022   0.899  13.791  0.5700 -1.1781  0.5319
16556TIP3    H271160   1.907   0.810  13.748  0.3793 -0.7784  0.2019
16557TIP3   OH271161   0.273   0.921   2.210 -0.1402  0.3189  0.0523
16557TIP3    H171162   0.239   1.010   2.200  0.0538  0.4733  0.7493
16557TIP3    H271163   0.337   0.911   2.139 -1.0963  0.2858 -0.8034
16558TIP3   OH271164   3.863   2.078  12.169  0.0012 -0.4581 -0.0329
16558TIP3    H171165   3.903   2.139  12.231 -0.4630  0.5643 -0.7157
16558TIP3    H271166   3.835   2.134  12.096 -0.1482 -1.5378 -0.8138
16559TIP3   OH271167   3.907   1.498   2.016 -0.3589 -0.3378 -0.0280
16559TIP3    H171168   3.970   1.483   2.086 -0.4416 -1.7669 -0.2439
16559TIP3    H271169   3.887   1.411   1.982 -0.0506  0.3453 -2.0639
16560TIP3   OH271170   3.158   6.752   0.748 -0.7289  0.1293 -0.1180
16560TIP3    H171171   3.247   6.719   0.750 -0.8881 -0.2875  0.1289
16560TIP3    H271172   3.161   6.834   0.797  0.1643  1.7310 -2.7445
16561TIP3   OH271173   6.325   5.629   6.387  0.2732 -0.2194  0.0208
16561TIP3    H171174   6.396   5.638   6.325  3.3666 -1.5111  3.1858
16561TIP3    H271175   6.316   5.716   6.427  0.0553 -0.0404 -0.4236
16562TIP3   OH271176   3.474   0.176  15.211  0.7626  0.1607  0.4382
16562TIP3    H171177   3.396   0.204  15.259 -0.9872 -1.3285 -1.4512
16562TIP3    H271178   3.495   0.090  15.246  1.0456  0.1967  0.3564
16563TIP3   OH271179   4.607   4.834  15.002  0.3375 -0.0531 -0.8345
16563TIP3    H171180   4.648   4.780  15.070  1.0619 -1.9222 -2.6938
16563TIP3    H271181   4.523   4.791  14.985 -0.1616  0.8261 -0.6322
16564TIP3   OH271182   1.959   0.428   1.092 -0.4618  0.1903 -0.0237
16564TIP3    H171183   2.049   0.409   1.119 -1.0703 -0.0817  1.9105
16564TIP3    H271184   1.913   0.344   1.099 -0.6587  0.1210 -1.9210
16565TIP3   OH271185   1.171   2.846  15.747  0.4531 -0.0411 -0.3555
16565TIP3    H171186   1.091   2.899  15.750  0.8593  0.6054 -0.6980
16565TIP3    H271187   1.151   2.775  15.686  0.6076  0.9236 -1.5606
16566TIP3   OH271188   1.624   6.643  14.033  0.0415 -0.5224  0.5671
16566TIP3    H171189   1.589   6.629  13.945  0.2667  0.7388  0.2587
16566TIP3    H271190   1.548   6.663  14.087  0.0917  0.5971  0.2421
16567TIP3   OH271191   2.953   2.345   2.947  0.2788  0.1953 -0.9311
16567TIP3    H171192   2.964   2.413   3.014 -0.7925  1.3820 -1.9256
16567TIP3    H271193   2.861   2.319   2.955  0.0128  0.7041 -2.2608
16568TIP3   OH271194   2.005   5.542   1.187 -0.4489  0.7484  0.0871
16568TIP3    H171195   1.977   5.467   1.135  0.3351  0.3525  0.2243
16568TIP3    H271196   2.088   5.570   1.147  0.0044  0.6240  0.9217
16569TIP3   OH271197   2.273   1.444  11.517  0.3811 -0.0439 -0.6075
16569TIP3    H171198   2.212   1.517  11.527  0.0764 -0.2011 -1.2644
16569TIP3    H271199   2.303   1.425  11.606 -3.0901 -2.1280  0.2265
16570TIP3   OH271200   1.373   1.190  13.966 -0.1822 -0.6247 -0.1263
16570TIP3    H171201   1.355   1.133  13.890  4.0126  0.0665 -1.7729
16570TIP3    H271202   1.386   1.129  14.038  0.9316 -1.5947 -1.1215
16571TIP3   OH271203   0.733   5.134   2.993 -0.0839  0.0385 -0.2586
16571TIP3    H171204   0.695   5.222   2.986 -0.8707 -0.4868 -3.4653
16571TIP3    H271205   0.685   5.093   3.064 -2.6048  0.8509 -1.4103
16572TIP3   OH271206   1.373   6.728   1.214  0.2819  0.9229 -0.1270
16572TIP3    H171207   1.388   6.634   1.220 -0.5089  0.6990 -1.3068
16572TIP3    H271208   1.313   6.747   1.287  0.8981  0.6202  0.4612
16573TIP3   OH271209   3.719   1.367   0.115  0.2368  0.7279  0.0093
16573TIP3    H171210   3.788   1.393   0.055 -0.6470  2.2872 -0.3627
16573TIP3    H271211   3.760   1.304   0.174  1.9325  1.5522 -0.2865
16574TIP3   OH271212   6.568   1.455   1.268 -0.4605  0.0113  0.1515
16574TIP3    H171213   6.569   1.392   1.341  1.6215  1.3704  1.3616
16574TIP3    H271214   6.480   1.493   1.271 -0.3726  0.1358  2.0622
16575TIP3   OH271215   4.980   1.957  14.596 -0.3705 -0.0746 -0.2405
16575TIP3    H171216   4.971   1.960  14.501  2.1843 -1.1983 -0.5352
16575TIP3    H271217   4.899   1.916  14.626 -0.9981 -0.1275 -1.9457
16576TIP3   OH271218   0.197   6.561  14.579  0.4951 -0.3128 -0.1589
16576TIP3    H171219   0.277   6.606  14.549  0.9811 -0.9662  0.1483
16576TIP3    H271220   0.126   6.616  14.547  1.0419 -0.2087 -1.2445
16577TIP3   OH271221   5.299   6.404   4.686  0.6273 -0.5565  0.3337
16577TIP3    H171222   5.298   6.349   4.765  0.4704  0.7055  1.2193
16577TIP3    H271223   5.282   6.342   4.614  2.0448 -1.9354  1.1331
16578TIP3   OH271224   0.592   5.943  11.377 -0.3887  0.7308 -0.4363
16578TIP3    H171225   0.623   5.995  11.451  0.6598 -0.9373  0.3281
16578TIP3    H271226   0.524   5.887  11.414 -0.2381  0.2769 -0.8359
16579TIP3   OH271227   1.820   2.905   3.096 -0.4962 -0.1548 -0.0106
16579TIP3    H171228   1.743   2.857   3.128 -0.5530  0.9305  1.4866
16579TIP3    H271229   1.895   2.856   3.129 -0.5453 -0.0561  0.2443
16580TIP3   OH271230   0.627   5.414  10.237 -0.0373  0.3541  0.1229
16580TIP3    H171231   0.573   5.351  10.285 -0.9504  2.8607  2.5122
16580TIP3    H271232   0.665   5.470  10.305  2.1322  1.3305 -1.8200
16581TIP3   OH271233   4.577   3.084   2.943 -0.0264 -0.0398 -0.6362
16581TIP3    H171234   4.634   3.090   3.020 -0.3003 -0.2388 -0.4174
16581TIP3    H271235   4.575   2.991   2.922  0.8600  0.1217 -1.4966
16582TIP3   OH271236   3.873   0.097  16.800 -0.2885 -0.2598  0.4260
16582TIP3    H171237   3.954   0.080  16.848  1.1995  0.9187 -1.5851
16582TIP3    H271238   3.856   0.016  16.752 -0.9011 -0.8706  1.6392
16583TIP3   OH271239   5.984   0.961   1.059 -0.4546 -0.0062  0.0154
16583TIP3    H171240   6.064   0.912   1.080 -0.4791 -0.1360 -0.1903
16583TIP3    H271241   6.015   1.051   1.043 -0.4389  0.0901  0.6048
16584TIP3   OH271242   2.520   3.383  11.415  0.1966 -0.1873  0.2579
16584TIP3    H171243   2.577   3.406  11.341  1.6298 -1.5578  0.9009
16584TIP3    H271244   2.447   3.336  11.374  0.8614 -0.7364 -0.3142
16585TIP3   OH271245   2.099   0.506  11.844  0.1721 -0.5143  0.0194
16585TIP3    H171246   2.106   0.445  11.918 -0.7614  0.3389  0.8223
16585TIP3    H271247   2.130   0.456  11.769  1.1427 -1.3937  0.9925
16586TIP3   OH271248   3.087   4.903  12.413  0.4136  0.1156 -0.1289
16586TIP3    H171249   3.016   4.886  12.474 -1.6217 -0.0832 -2.4612
16586TIP3    H271250   3.094   4.822  12.362  0.3148  1.1641 -1.8523
16587TIP3   OH271251   1.113   1.267   0.282  0.0450 -0.0001 -0.0815
16587TIP3    H171252   1.110   1.195   0.219  0.0853 -0.7954  0.8274
16587TIP3    H271253   1.056   1.334   0.243 -0.1537 -0.5900 -0.8320
16588TIP3   OH271254   1.074   2.678   1.652 -0.3269 -0.5982 -0.1478
16588TIP3    H171255   1.118   2.736   1.714 -1.1638  1.1930 -1.2161
16588TIP3    H271256   0.983   2.707   1.652 -0.7755 -1.9430 -0.6684
16589TIP3   OH271257   1.074   1.205   4.506 -0.4847  0.0467 -0.3323
16589TIP3    H171258   0.989   1.199   4.551  0.0889  0.2225  0.7973
16589TIP3    H271259   1.132   1.148   4.556 -0.6698 -2.4858 -2.8977
16590TIP3   OH271260   2.051   2.445   2.448 -0.4492 -0.1086  0.1718
16590TIP3    H171261   2.131   2.447   2.501 -0.3372 -1.5404  0.0958
16590TIP3    H271262   2.069   2.505   2.376  0.6404 -0.5330  0.0673
16591TIP3   OH271263   0.661   5.882   4.611 -0.2664  0.1637  0.6347
16591TIP3    H171264   0.653   5.977   4.617 -0.0163  0.1618  1.0505
16591TIP3    H271265   0.578   5.848   4.645 -0.6435  0.2416 -0.1837
16592TIP3   OH271266   1.701   3.265   5.468  0.2406 -0.2817 -0.1773
16592TIP3    H171267   1.699   3.338   5.529  0.4168 -0.7626  0.4196
16592TIP3    H271268   1.770   3.207   5.503  0.1317 -0.7080 -0.6584
16593TIP3   OH271269   0.769   4.337   5.779 -0.4813  0.4024 -0.6428
16593TIP3    H171270   0.686   4.351   5.825 -0.2023  0.7774 -0.2434
16593TIP3    H271271   0.825   4.294   5.844 -0.3125  0.3070 -0.8533
16594TIP3   OH271272   4.944   4.636  16.597 -0.7115 -0.0735 -0.1840
16594TIP3    H171273   5.011   4.617  16.663  1.2101  2.3590 -1.3440
16594TIP3    H271274   4.982   4.605  16.515 -1.4788  0.3415 -0.7056
16595TIP3   OH271275   4.295   2.565   4.871 -0.3185  0.1615  0.2217
16595TIP3    H171276   4.313   2.588   4.962  1.1887 -0.5093  0.1174
16595TIP3    H271277   4.225   2.624   4.844 -0.5345  0.5989  1.7067
16596TIP3   OH271278   4.171   1.939   5.441  0.4800  0.0168  0.0305
16596TIP3    H171279   4.209   1.935   5.353 -0.6725  1.8649 -0.5892
16596TIP3    H271280   4.159   2.033   5.457  0.0224 -0.3458  1.8738
16597TIP3   OH271281   6.389   0.579   4.633 -0.1349  0.0149 -0.3556
16597TIP3    H171282   6.346   0.578   4.718  0.3638 -0.7522 -0.1059
16597TIP3    H271283   6.440   0.497   4.631  1.0674  0.7626 -0.7652
16598TIP3   OH271284   2.831   6.128  10.742  0.6895 -0.1266  0.4986
16598TIP3    H171285   2.822   6.053  10.683  1.4894  0.9407 -1.0231
16598TIP3    H271286   2.823   6.090  10.829 -1.6516 -1.5882 -0.2887
16599TIP3   OH271287   4.858   3.791   4.518 -0.4026  0.1077  0.4746
16599TIP3    H171288   4.861   3.884   4.539 -0.1099  0.1192  0.3881
16599TIP3    H271289   4.850   3.789   4.422 -0.7823  0.0481  0.5073
16600TIP3   OH271290   3.047   0.513   1.036  0.2408  0.8887 -0.1681
16600TIP3    H171291   3.116   0.559   0.988  2.3964 -1.1732  0.8368
16600TIP3    H271292   3.001   0.463   0.970 -0.1720  2.0851 -0.8087
16601TIP3   OH271293   5.276   6.509  12.546  0.3297 -0.7720  0.4796
16601TIP3    H171294   5.285   6.521  12.452 -0.6603 -1.4103  0.2946
16601TIP3    H271295   5.364   6.523  12.581  0.4237  0.8880 -0.3702
16602TIP3   OH271296   0.141   5.967  11.060 -0.1838  0.5801  0.1448
16602TIP3    H171297   0.098   5.903  11.003 -2.4421  1.4410  0.8115
16602TIP3    H271298   0.204   5.916  11.110  0.5657 -0.4990 -1.8220
16603TIP3   OH271299   3.477   0.036  14.373  0.3071 -0.2606  0.0798
16603TIP3    H171300   3.551  -0.000  14.423  0.1403 -1.8624 -0.8187
16603TIP3    H271301   3.518   0.082  14.299  0.4233 -0.8635 -0.2327
16604TIP3   OH271302   5.266   6.227  14.645  0.3052  0.2739 -0.6470
16604TIP3    H171303   5.297   6.173  14.718  0.8331  0.5237 -0.6901
16604TIP3    H271304   5.342   6.277  14.617  0.2804 -0.3319 -1.8281
16605TIP3   OH271305   0.826   4.931   6.249 -0.1232  0.1078  0.8567
16605TIP3    H171306   0.838   4.885   6.332 -0.1580  0.3142  0.9784
16605TIP3    H271307   0.885   4.887   6.188 -0.3624 -0.2719  0.9007
16606TIP3   OH271308   4.421   3.197  16.614  0.4389  0.6249 -0.1292
16606TIP3    H171309   4.437   3.177  16.521 -0.9497 -2.0713  0.1505
16606TIP3    H271310   4.505   3.178  16.657  0.2300 -1.0764 -0.4328
16607TIP3   OH271311   6.752   2.204  12.747 -0.3220 -0.8713 -0.0592
16607TIP3    H171312   6.837   2.241  12.726 -0.4151 -1.2420 -1.1129
16607TIP3    H271313   6.690   2.253  12.693 -0.8834 -0.0844  1.2535
16608TIP3   OH271314   6.019   5.732  13.763  0.1960  0.4329 -0.1442
16608TIP3    H171315   5.989   5.742  13.853 -0.2265  2.7898 -0.5057
16608TIP3    H271316   5.956   5.671  13.723 -1.3822  1.6962  0.3740
16609TIP3   OH271317   4.478   1.819   3.746 -0.1898 -0.4082 -0.0917
16609TIP3    H171318   4.442   1.740   3.704 -0.5247 -1.1323  1.5018
16609TIP3    H271319   4.531   1.860   3.678 -0.3918 -1.7618 -1.0974
16610TIP3   OH271320   0.819   3.286   2.960  0.8812  0.9648  0.9448
16610TIP3    H171321   0.763   3.352   2.920 -1.3484 -0.9801  0.6806
16610TIP3    H271322   0.822   3.215   2.896  0.2955 -0.6387  2.6377
16611TIP3   OH271323   3.995   5.139  12.718  0.2593  0.4261  0.7749
16611TIP3    H171324   4.029   5.083  12.649  0.0483  0.4514  0.6499
16611TIP3    H271325   4.068   5.197  12.741 -0.0177  1.1833 -0.2171
16612TIP3   OH271326   3.449   5.150  15.552 -0.2353 -0.8177  0.6878
16612TIP3    H171327   3.435   5.096  15.475  0.3942  0.7244 -0.5258
16612TIP3    H271328   3.493   5.092  15.614  1.4318 -1.4242 -1.0015
16613TIP3   OH271329   5.638   6.303   2.697  0.1918 -0.2528  0.0276
16613TIP3    H171330   5.686   6.221   2.688  0.8810  0.0123  1.2236
16613TIP3    H271331   5.702   6.365   2.732 -0.6033  0.5134  0.1382
16614TIP3   OH271332   1.077   4.772   3.879  0.2186  0.4483 -0.2792
16614TIP3    H171333   1.001   4.813   3.919 -0.0259  0.8274 -1.1374
16614TIP3    H271334   1.052   4.680   3.870  0.0771  0.4632 -0.0562
16615TIP3   OH271335   0.495   0.424  15.500  0.0331  0.2804  0.0348
16615TIP3    H171336   0.453   0.483  15.437 -0.4873  1.1266  1.1641
16615TIP3    H271337   0.568   0.476  15.536  1.4811 -0.8394 -1.2137
16616TIP3   OH271338   1.910   3.637   3.035 -0.1459 -0.1700  0.1806
16616TIP3    H171339   1.847   3.706   3.017 -0.4165 -0.1143  1.3322
16616TIP3    H271340   1.899   3.617   3.128  0.2389 -1.4467 -0.0289
16617TIP3   OH271341   4.075   2.317   1.358  0.0511  0.4339  0.6939
16617TIP3    H171342   4.152   2.262   1.372 -0.7155 -0.3870  1.8223
16617TIP3    H271343   4.017   2.263   1.304  0.7227  1.4855 -1.1024
16618TIP3   OH271344   3.715   5.009   5.104 -0.0631 -1.2154  0.6999
16618TIP3    H171345   3.724   4.945   5.174 -1.1261 -1.3723  0.7139
16618TIP3    H271346   3.757   5.088   5.138 -1.3981 -0.9965  1.9354
16619TIP3   OH271347   0.619   3.991   5.628  0.3534  0.0232 -0.4274
16619TIP3    H171348   0.547   4.031   5.578 -1.3121 -1.0905  0.9927
16619TIP3    H271349   0.624   3.901   5.595  0.1492 -0.3160  0.4419
16620TIP3   OH271350   0.903   2.267   1.059  0.4703  0.0055  0.1813
16620TIP3    H171351   0.861   2.232   0.980 -0.4662 -0.5153  0.9111
16620TIP3    H271352   0.945   2.191   1.100 -0.3906 -0.0099  1.0325
16621TIP3   OH271353   3.575   5.174  14.818  0.2586 -0.3830 -0.0985
16621TIP3    H171354   3.569   5.095  14.764 -0.2527 -0.5655  0.2261
16621TIP3    H271355   3.515   5.158  14.891  2.2319 -0.8870  1.4684
16622TIP3   OH271356   5.745   1.813   4.103 -0.4903 -0.0420  0.0664
16622TIP3    H171357   5.831   1.781   4.132 -0.7764 -0.4668  0.4497
16622TIP3    H271358   5.683   1.771   4.163 -0.9904 -0.0123 -0.4329
16623TIP3   OH271359   0.125   4.791   3.348 -0.0213 -0.4926 -0.3503
16623TIP3    H171360   0.094   4.798   3.439 -0.6004 -2.4346 -0.3696
16623TIP3    H271361   0.200   4.851   3.344  0.3974 -0.8269  1.5879
16624TIP3   OH271362   5.106   6.760   0.042 -0.2414 -0.6275 -0.1208
16624TIP3    H171363   5.118   6.831   0.105 -0.2884 -0.6368 -0.1020
16624TIP3    H271364   5.102   6.805  -0.043 -0.4794 -0.5901 -0.0880
16625TIP3   OH271365   5.862   6.032  11.505 -0.2424  0.4811  0.0714
16625TIP3    H171366   5.885   5.955  11.454 -2.9981 -1.4188  1.6197
16625TIP3    H271367   5.923   6.031  11.580  0.2602  0.2972 -0.3399
16626TIP3   OH271368   0.263   3.839   2.878  0.1869 -0.2102 -0.6809
16626TIP3    H171369   0.216   3.899   2.819  2.1960  1.8784 -0.2280
16626TIP3    H271370   0.356   3.857   2.861  0.8020 -1.6595  1.0487
16627TIP3   OH271371   5.749   5.242   5.493  0.5503  0.1485 -0.4634
16627TIP3    H171372   5.735   5.148   5.492 -1.1927  0.3842 -1.0982
16627TIP3    H271373   5.766   5.263   5.585 -1.3844 -0.4890  0.0654
16628TIP3   OH271374   1.925   2.889   3.562 -0.2675  0.8606  0.0083
16628TIP3    H171375   1.844   2.852   3.527 -0.6906 -0.1897  2.0043
16628TIP3    H271376   1.990   2.819   3.552 -0.2615  0.7465  0.7493
16629TIP3   OH271377   4.389   4.842   1.639 -0.3839  0.4080 -0.1466
16629TIP3    H171378   4.313   4.839   1.698 -1.2253  0.5993 -1.1998
16629TIP3    H271379   4.371   4.774   1.574  0.1024  0.8131 -0.7042
16630TIP3   OH271380   4.397   1.924  16.197 -0.1697 -0.3620 -0.4078
16630TIP3    H171381   4.438   1.844  16.229 -0.0026 -0.1067  0.0279
16630TIP3    H271382   4.303   1.906  16.200 -0.2707  0.3930  2.3026
16631TIP3   OH271383   1.210   4.878   5.638 -0.2689  0.6275 -0.0442
16631TIP3    H171384   1.123   4.915   5.623 -0.5338  0.0613  0.0971
16631TIP3    H271385   1.194   4.797   5.687  0.3403  0.5611  0.0503
16632TIP3   OH271386   5.436   0.283  12.572 -0.1247 -0.1073 -0.0782
16632TIP3    H171387   5.416   0.250  12.484 -0.2396 -0.5824  0.1263
16632TIP3    H271388   5.527   0.259  12.586  0.6377  2.0484 -1.0062
16633TIP3   OH271389   2.426   0.887   2.228 -0.0770 -0.1243  0.1286
16633TIP3    H171390   2.453   0.861   2.140 -1.1347  1.4915 -0.6923
16633TIP3    H271391   2.360   0.954   2.214 -0.0526  0.3512  2.1723
16634TIP3   OH271392   6.158   3.570   1.584  0.0576 -0.5423 -0.2796
16634TIP3    H171393   6.129   3.620   1.507  1.2826  0.1529 -0.3030
16634TIP3    H271394   6.130   3.624   1.658 -0.7034 -0.9803 -0.2457
16635TIP3   OH271395   4.045   0.300   2.847  0.7943  0.7592  0.1253
16635TIP3    H171396   4.117   0.321   2.788  1.0933  0.1047  0.2506
16635TIP3    H271397   3.980   0.257   2.791  0.4751  1.4094 -0.0004
16636TIP3   OH271398   1.607   1.535  14.021  0.0103 -0.4314 -0.4258
16636TIP3    H171399   1.694   1.562  14.049 -0.6716  2.8477 -1.3014
16636TIP3    H271400   1.618   1.445  13.990  2.6346 -0.7793  1.4265
16637TIP3   OH271401   3.586   2.613  15.125  0.1326  0.0069  0.3691
16637TIP3    H171402   3.576   2.703  15.155 -1.4580 -0.0022 -0.1287
16637TIP3    H271403   3.674   2.588  15.156  0.3814  1.5329  0.9623
16638TIP3   OH271404   6.339   2.046   1.742 -0.2962 -0.1993 -0.3686
16638TIP3    H171405   6.413   2.003   1.700  0.2482  0.4703 -0.1112
16638TIP3    H271406   6.275   2.060   1.672  0.2154  0.0675 -0.7829
16639TIP3   OH271407   2.352   4.090   4.391 -0.0769  0.2732 -0.2895
16639TIP3    H171408   2.362   4.165   4.451  0.5907  0.5025 -0.6832
16639TIP3    H271409   2.435   4.085   4.345  0.7259 -2.0618  1.2736
16640TIP3   OH271410   0.828   4.729   0.317 -0.4432  0.5140 -0.2257
16640TIP3    H171411   0.882   4.789   0.267 -3.4261  1.8372 -1.9832
16640TIP3    H271412   0.864   4.642   0.297  2.1713  1.4447  0.1911
16641TIP3   OH271413   4.555   4.965   2.525  0.2310 -0.3055 -0.3231
16641TIP3    H171414   4.478   4.909   2.531  0.0657 -0.1340 -0.8406
16641TIP3    H271415   4.607   4.927   2.455 -0.1951  0.5647 -1.1198
16642TIP3   OH271416   0.556   0.149  15.473  0.9930 -0.3852 -0.3192
16642TIP3    H171417   0.513   0.119  15.553  0.0267 -0.0686 -0.7071
16642TIP3    H271418   0.545   0.244  15.474 -1.0184 -0.5512 -1.9140
16643TIP3   OH271419   5.765   0.913  14.555 -0.6181  0.5026  0.1570
16643TIP3    H171420   5.799   0.972  14.487 -2.4380 -0.4499 -1.5874
16643TIP3    H271421   5.686   0.957  14.587 -0.5220  0.2774  0.7067
16644TIP3   OH271422   2.878   0.858  16.393  0.0018 -0.1221 -0.2202
16644TIP3    H171423   2.904   0.767  16.378 -0.9241 -0.1137 -2.0069
16644TIP3    H271424   2.899   0.903  16.311  0.8361  1.3727  0.7980
16645TIP3   OH271425   5.180   5.087  17.180  0.1026 -0.4821  0.0885
16645TIP3    H171426   5.103   5.125  17.222  0.1651 -1.0888  0.7663
16645TIP3    H271427   5.237   5.162  17.163  0.1915 -0.2416  1.3312
16646TIP3   OH271428   3.373   1.455   4.602  0.4490 -1.0492 -0.2397
16646TIP3    H171429   3.408   1.543   4.586  0.5163 -1.3795 -1.9673
16646TIP3    H271430   3.379   1.444   4.697 -3.0220  2.2788  0.4923
16647TIP3   OH271431   5.798   5.383  13.687 -0.1445  0.1147 -0.1150
16647TIP3    H171432   5.876   5.328  13.696 -1.1551 -1.5312 -1.3437
16647TIP3    H271433   5.829   5.460  13.638  0.9961  0.1146  0.5718
16648TIP3   OH271434   3.123   6.314  13.867  0.0615 -0.4926  0.2114
16648TIP3    H171435   3.205   6.336  13.912  0.1915  0.0526 -0.2876
16648TIP3    H271436   3.055   6.353  13.922  0.1082 -1.1686  0.7670
16649TIP3   OH271437   4.387   4.996   0.304  0.5542 -0.3514 -0.6891
16649TIP3    H171438   4.392   4.932   0.375  3.1103  1.2016  0.6028
16649TIP3    H271439   4.431   4.954   0.230 -0.7133 -1.3438 -0.9068
16650TIP3   OH271440   2.688   3.089   1.400 -0.2645 -0.3495 -0.3646
16650TIP3    H171441   2.671   3.132   1.483  1.0432 -1.1126  0.3240
16650TIP3    H271442   2.603   3.087   1.355 -0.7085  1.2335  0.3785
16651TIP3   OH271443   4.415   4.975   6.016 -0.2426 -0.1315 -0.3490
16651TIP3    H171444   4.393   4.972   6.109  0.8811 -0.3171 -0.0814
16651TIP3    H271445   4.389   4.889   5.982  0.6690 -0.5849  0.0992
16652TIP3   OH271446   5.148   6.735  14.916  0.8145  0.0529  0.0667
16652TIP3    H171447   5.056   6.743  14.893  0.7637 -1.1624 -0.1868
16652TIP3    H271448   5.195   6.745  14.833  0.8109 -1.0294 -0.0744
16653TIP3   OH271449   5.303   0.736  14.140 -0.3357 -0.1378 -0.0866
16653TIP3    H171450   5.217   0.709  14.173 -0.4247  1.7372  1.3119
16653TIP3    H271451   5.284   0.798  14.070 -0.1138 -0.5300 -0.4987
16654TIP3   OH271452   1.459   3.175   5.523  0.7793 -0.1618 -0.3184
16654TIP3    H171453   1.504   3.091   5.512  0.7725  0.0678 -2.2816
16654TIP3    H271454   1.529   3.241   5.517  0.1041  0.2899 -4.9240
16655TIP3   OH271455   2.178   0.283   2.080 -0.2739  0.0551 -0.3625
16655TIP3    H171456   2.159   0.199   2.038 -0.2962  0.0563 -0.3545
16655TIP3    H271457   2.247   0.322   2.026 -1.0622  0.5408 -1.0153
16656TIP3   OH271458   4.148   3.947   6.016  0.3965 -0.3364 -0.1958
16656TIP3    H171459   4.087   4.019   6.004  0.3681  0.3424  3.4206
16656TIP3    H271460   4.113   3.876   5.961 -1.1947  1.4163 -1.5115
16657TIP3   OH271461   4.383   4.667  10.420  0.3104  0.1693 -0.5141
16657TIP3    H171462   4.388   4.584  10.468 -0.7167 -0.8028 -2.0419
16657TIP3    H271463   4.473   4.699  10.419  0.1469  1.0608  3.4719
16658TIP3   OH271464   4.478   4.856  16.588 -0.2788 -0.1236  0.3885
16658TIP3    H171465   4.478   4.945  16.554 -2.5627  0.3149  1.4375
16658TIP3    H271466   4.571   4.834  16.596  0.3149  1.8011 -0.7700
16659TIP3   OH271467   1.916   1.361   4.793  0.0735  0.1534  0.2574
16659TIP3    H171468   1.921   1.339   4.701  1.6293  0.5730  0.2168
16659TIP3    H271469   1.972   1.297   4.837 -0.2235  0.2867  0.8474
16660TIP3   OH271470   0.775   5.927  12.266  0.8421 -0.3273 -0.1006
16660TIP3    H171471   0.789   5.953  12.357  0.2041 -0.3297  0.0007
16660TIP3    H271472   0.722   5.847  12.272 -0.7512  0.6668 -0.5048
16661TIP3   OH271473   4.001   5.794  14.871 -0.0534  0.6858 -0.1016
16661TIP3    H171474   3.963   5.754  14.949 -1.8821  0.1017 -1.2625
16661TIP3    H271475   4.048   5.723  14.828 -1.1437  0.3747 -0.8115
16662TIP3   OH271476   0.726   6.635  16.094 -0.5123 -0.5240  0.3873
16662TIP3    H171477   0.682   6.719  16.078 -1.6183 -1.1991 -0.2013
16662TIP3    H271478   0.811   6.645  16.051 -0.5756  0.3438  0.4397
16663TIP3   OH271479   6.382   5.390  13.342 -0.4431 -0.2691  0.2931
16663TIP3    H171480   6.291   5.404  13.368 -0.6248 -1.7491  0.4887
16663TIP3    H271481   6.433   5.440  13.405 -1.1381  1.0692 -0.1780
16664TIP3   OH271482   2.111   1.980  15.984  0.0023  0.5879 -0.7019
16664TIP3    H171483   2.128   1.938  16.068 -0.4552  0.8611 -0.4715
16664TIP3    H271484   2.044   1.926  15.944 -0.1389  0.7452 -0.6764
16665TIP3   OH271485   2.445   3.722  16.925 -0.0007 -1.1376  0.4163
16665TIP3    H171486   2.375   3.707  16.989  0.2784  1.0011  1.2839
16665TIP3    H271487   2.480   3.635  16.906 -2.5213 -2.1723  0.3955
16666TIP3   OH271488   5.459   3.055  17.231 -0.0704  0.0335  0.7441
16666TIP3    H171489   5.434   3.135  17.184 -2.1797 -0.0415  1.6727
16666TIP3    H271490   5.473   2.990  17.163  0.8026  0.9801  0.0210
16667TIP3   OH271491   0.658   3.574   0.042  0.0868 -0.6869 -0.5122
16667TIP3    H171492   0.596   3.584  -0.030  0.5118 -0.7430 -0.8820
16667TIP3    H271493   0.739   3.544   0.001  0.2743 -0.9033  0.0072
16668TIP3   OH271494   3.950   5.025   5.307  0.1456 -0.1067  0.3328
16668TIP3    H171495   3.988   5.081   5.239  1.0061  0.9140  1.6266
16668TIP3    H271496   3.926   5.085   5.377 -2.4156 -0.9486  0.2007
16669TIP3   OH271497   4.396   5.344   0.840 -0.1328 -0.0590  0.1545
16669TIP3    H171498   4.403   5.392   0.758  0.8311 -0.0672  0.2236
16669TIP3    H271499   4.438   5.259   0.822 -0.1714 -0.1680  0.5687
16670TIP3   OH271500   3.835   2.760  12.917  0.5628  0.0929 -0.2640
16670TIP3    H171501   3.845   2.828  12.851 -1.1997  0.1547 -0.4740
16670TIP3    H271502   3.909   2.773  12.976  0.4070  2.0071 -0.4594
16671TIP3   OH271503   5.586   4.989  12.554 -0.2915  0.0856 -0.1599
16671TIP3    H171504   5.593   4.913  12.612  0.5536  0.5000  0.2958
16671TIP3    H271505   5.645   5.054  12.593 -0.5146  0.7413 -0.9061
16672TIP3   OH271506   4.610   5.310  16.163  0.4172  0.4972 -0.0663
16672TIP3    H171507   4.593   5.392  16.210 -1.6862  1.2420 -1.9930
16672TIP3    H271508   4.670   5.335  16.093  0.2434  0.2783 -0.2955
16673TIP3   OH271509   5.510   1.091  15.830  0.0123  0.7374 -0.7298
16673TIP3    H171510   5.577   1.146  15.872 -0.3114  0.9337 -0.4754
16673TIP3    H271511   5.561   1.024  15.783  0.3496  0.1795  0.4230
16674TIP3   OH271512   0.599   2.944   3.592 -0.4038 -0.2803  0.1852
16674TIP3    H171513   0.574   3.031   3.622 -0.2694 -0.2151  0.1039
16674TIP3    H271514   0.692   2.951   3.571 -0.5442 -0.2784 -0.4343
16675TIP3   OH271515   1.132   0.614  16.426  0.1842  0.2602 -0.2101
16675TIP3    H171516   1.131   0.703  16.461 -3.7940  0.5514 -0.8885
16675TIP3    H271517   1.092   0.561  16.495 -0.5213 -0.4456 -1.1505
16676TIP3   OH271518   3.423   5.340   2.439  0.2441 -0.1995 -0.0708
16676TIP3    H171519   3.449   5.392   2.514 -0.4879  0.5419 -0.3241
16676TIP3    H271520   3.403   5.254   2.475 -4.4744  1.3369  1.3544
16677TIP3   OH271521   2.024   6.020  14.705 -0.0756 -0.1896  0.0924
16677TIP3    H171522   1.986   5.950  14.757  0.4447 -0.0450  0.6727
16677TIP3    H271523   2.110   6.035  14.744 -0.5980  1.4775  0.6488
16678TIP3   OH271524   4.407   5.934   2.863  0.3870 -0.9951  0.0379
16678TIP3    H171525   4.370   5.903   2.780 -1.2896  1.1532 -0.0813
16678TIP3    H271526   4.461   6.008   2.838 -0.0303 -0.4158  0.8448
16679TIP3   OH271527   3.095   5.330  12.486  0.1005 -0.5880 -0.2202
16679TIP3    H171528   3.110   5.415  12.528  0.3397  0.0618 -1.5968
16679TIP3    H271529   3.072   5.352  12.396 -0.9007 -1.9454 -0.3028
16680TIP3   OH271530   1.784   3.299   1.834  0.3475  0.1352 -0.3006
16680TIP3    H171531   1.728   3.248   1.775  0.9912 -0.5647 -0.3123
16680TIP3    H271532   1.722   3.335   1.898 -0.5523  2.1813 -2.2516
16681TIP3   OH271533   4.183   3.866   0.724 -0.0957  0.3948 -0.0338
16681TIP3    H171534   4.126   3.934   0.687 -1.2167 -1.4012 -1.7130
16681TIP3    H271535   4.199   3.806   0.650  2.7591  0.0720  0.8006
16682TIP3   OH271536   3.759   0.094  11.608 -0.2233  0.3050  0.2093
16682TIP3    H171537   3.685   0.084  11.668 -1.0368  0.3583 -0.7818
16682TIP3    H271538   3.741   0.175  11.561  0.2680  0.1038 -0.3311
16683TIP3   OH271539   0.547   4.701   0.813 -0.5776 -0.0076 -0.4762
16683TIP3    H171540   0.625   4.647   0.815 -1.1830 -0.9158 -1.1110
16683TIP3    H271541   0.571   4.780   0.861  0.8704 -0.0916 -1.0427
16684TIP3   OH271542   6.808   5.703  14.170 -0.1114 -0.2144 -0.1870
16684TIP3    H171543   6.832   5.618  14.210  0.6215 -0.8617 -1.9660
16684TIP3    H271544   6.867   5.711  14.095 -0.8205  1.4531 -0.5685
16685TIP3   OH271545   0.621   6.027   3.086  1.2350 -0.4034 -0.5980
16685TIP3    H171546   0.625   6.106   3.141 -2.1581 -1.2604  1.0410
16685TIP3    H271547   0.606   6.061   2.998  1.3840  0.8394 -0.1582
16686TIP3   OH271548   2.906   4.913   3.435  0.2380 -0.5483  0.7584
16686TIP3    H171549   2.816   4.921   3.404  0.6495 -1.1190 -0.6130
16686TIP3    H271550   2.960   4.942   3.362  1.2098 -1.4293  1.1117
16687TIP3   OH271551   5.671   4.074  15.196 -0.2075  0.4826  0.3821
16687TIP3    H171552   5.663   4.148  15.136  1.1030  1.7344  1.6826
16687TIP3    H271553   5.666   4.114  15.283 -0.9438 -1.1509  1.1119
16688TIP3   OH271554   0.495   4.109   4.934 -0.3156 -0.1769 -0.0013
16688TIP3    H171555   0.502   4.036   4.872  0.0133  0.3224 -0.5555
16688TIP3    H271556   0.584   4.145   4.939 -0.9375  1.6474 -1.5210
16689TIP3   OH271557   1.632   1.294  13.932  0.0252  0.0697 -0.3904
16689TIP3    H171558   1.700   1.227  13.918  1.4883  1.2884  0.7009
16689TIP3    H271559   1.555   1.244  13.958  1.3747 -1.1742  1.4183
16690TIP3   OH271560   2.699   6.762   1.933  0.5357  0.1366 -0.3605
16690TIP3    H171561   2.749   6.824   1.987  0.7904 -0.6746  0.3395
16690TIP3    H271562   2.745   6.679   1.942 -0.6736 -0.5160 -0.0884
16691TIP3   OH271563   3.205   5.396   1.322  0.1632  0.7208 -0.7722
16691TIP3    H171564   3.169   5.476   1.360  2.1462  1.0274  0.5433
16691TIP3    H271565   3.287   5.424   1.281  0.5491 -0.5274 -0.8706
16692TIP3   OH271566   3.112   3.399   1.147 -0.3777 -0.2859  0.2630
16692TIP3    H171567   3.146   3.486   1.125 -0.1309 -0.6553 -0.8376
16692TIP3    H271568   3.017   3.406   1.132 -0.7059  0.5205  2.5963
16693TIP3   OH271569   6.779   0.395  12.735 -0.3473 -0.7431 -0.9323
16693TIP3    H171570   6.712   0.369  12.672 -2.7913  0.1426  1.2226
16693TIP3    H271571   6.800   0.486  12.712 -0.1271 -0.9151 -1.4102
16694TIP3   OH271572   5.682   1.654  12.200 -0.0692  0.0469 -0.1531
16694TIP3    H171573   5.636   1.591  12.145  0.6880 -1.6582  1.1029
16694TIP3    H271574   5.612   1.706  12.241 -0.7784 -0.8457 -0.2039
16695TIP3   OH271575   2.229   3.714  14.603 -0.0104 -0.7911 -0.4879
16695TIP3    H171576   2.166   3.694  14.534 -2.8580 -1.3499  2.1728
16695TIP3    H271577   2.186   3.780  14.656  2.0150 -0.5664  0.9389
16696TIP3   OH271578   0.686   2.070  12.762 -0.4096 -0.2064  0.0941
16696TIP3    H171579   0.716   2.043  12.675  1.5279 -2.3911  1.3448
16696TIP3    H271580   0.596   2.039  12.768  0.1099 -1.8798 -0.4329
16697TIP3   OH271581   1.458   1.915   1.276  0.1422 -0.0392  0.2170
16697TIP3    H171582   1.416   1.865   1.206  0.0447  0.7119 -0.2657
16697TIP3    H271583   1.550   1.889   1.272  0.5600  1.5740 -1.5977
16698TIP3   OH271584   0.332   6.111  14.639 -0.0816  0.2230 -0.0421
16698TIP3    H171585   0.270   6.145  14.575  0.1297  1.0271  0.1785
16698TIP3    H271586   0.409   6.167  14.630  0.7388 -0.9572 -0.5339
16699TIP3   OH271587   1.974   6.728   3.210 -0.1019  0.2186  0.4812
16699TIP3    H171588   1.909   6.798   3.214  1.7285  1.8821  3.0094
16699TIP3    H271589   2.044   6.764   3.155 -0.2025 -0.5786 -0.1734
16700TIP3   OH271590   3.823   0.563   3.359 -0.5084  0.1239  0.1678
16700TIP3    H171591   3.737   0.567   3.400 -1.0101 -0.4980 -0.7897
16700TIP3    H271592   3.822   0.481   3.310  0.3083  0.5374 -0.5550
16701TIP3   OH271593   3.089   2.466  15.711  0.3069  0.3792 -0.3809
16701TIP3    H171594   3.166   2.444  15.764 -0.0834 -1.3749 -0.5023
16701TIP3    H271595   3.036   2.523  15.767  0.9412  0.3013  0.3039
16702TIP3   OH271596   3.313   5.003   5.425  0.3814  0.1246 -0.1741
16702TIP3    H171597   3.352   5.009   5.512 -0.5375 -1.2213  0.3476
16702TIP3    H271598   3.363   4.934   5.381 -0.6910 -0.8716  0.1356
16703TIP3   OH271599   3.819   6.395  12.358  0.5637  0.4155 -0.3071
16703TIP3    H171600   3.744   6.343  12.330 -0.7883  2.5671 -0.7257
16703TIP3    H271601   3.819   6.472  12.301  2.8951  0.6228 -0.1052
16704TIP3   OH271602   2.102   4.312  13.904 -0.1793 -0.4890  0.2699
16704TIP3    H171603   2.173   4.369  13.874  1.1343 -0.3394  3.4597
16704TIP3    H271604   2.035   4.373  13.935 -0.9583 -0.6631 -1.0098
16705TIP3   OH271605   1.945   2.454  11.160 -0.1170  0.2225  0.5312
16705TIP3    H171606   1.940   2.358  11.163 -1.8588  0.3223  1.3896
16705TIP3    H271607   1.921   2.476  11.070 -4.5061  0.0558  1.5677
16706TIP3   OH271608   0.182   4.510   3.326  0.1036 -0.6249 -0.0650
16706TIP3    H171609   0.117   4.534   3.259  0.3105 -2.7272 -1.0746
16706TIP3    H271610   0.178   4.580   3.390 -1.6579  0.3524 -1.2104
16707TIP3   OH271611   3.643   3.391   6.076  0.6065  0.3892  0.5311
16707TIP3    H171612   3.658   3.327   6.145 -0.2193 -0.0704  0.2842
16707TIP3    H271613   3.724   3.443   6.074  0.7368  0.2447  1.6601
16708TIP3   OH271614   5.677   0.685  17.111 -0.3965  0.0277 -0.5802
16708TIP3    H171615   5.599   0.644  17.074 -1.0893 -0.5801  1.4943
16708TIP3    H271616   5.645   0.763  17.155  0.3369  0.3878 -0.6624
16709TIP3   OH271617   3.840   0.499  11.697 -0.3549  0.1049  0.7200
16709TIP3    H171618   3.745   0.499  11.711 -0.3638  1.1956  0.6919
16709TIP3    H271619   3.850   0.505  11.602 -0.2555 -0.9943  0.6520
16710TIP3   OH271620   4.808   6.119  13.495 -0.2674  0.2305 -0.4419
16710TIP3    H171621   4.855   6.048  13.538 -3.2976  0.2432  3.1943
16710TIP3    H271622   4.840   6.198  13.538  0.9283  0.8507 -2.3996
16711TIP3   OH271623   4.159   5.098  12.413 -0.1594  0.1442  0.0730
16711TIP3    H171624   4.178   5.182  12.371 -0.5598 -0.2897 -0.9880
16711TIP3    H271625   4.227   5.039  12.380  0.2638  0.1049  1.0032
16712TIP3   OH271626   0.164   2.747  14.932 -0.1381  0.0249 -0.0242
16712TIP3    H171627   0.103   2.704  14.992 -0.0733  0.4230  0.3273
16712TIP3    H271628   0.209   2.812  14.986 -0.4811  0.7707 -0.6301
16713TIP3   OH271629   0.686   2.572  16.642 -0.3073 -0.2477 -0.1901
16713TIP3    H171630   0.748   2.569  16.715 -0.1854 -0.1412 -0.2918
16713TIP3    H271631   0.642   2.657  16.652 -2.4880 -1.5243  1.5933
16714TIP3   OH271632   5.105   6.692   0.621  0.1235  0.2453  0.0229
16714TIP3    H171633   5.041   6.762   0.613  0.1217  0.1960 -0.3917
16714TIP3    H271634   5.173   6.714   0.557  0.2154 -0.0325  0.0248
16715TIP3   OH271635   2.470   2.348  16.111 -0.1445  0.1452 -0.1053
16715TIP3    H171636   2.409   2.300  16.167 -0.2208  0.8598  0.4295
16715TIP3    H271637   2.458   2.440  16.135  2.7380  0.1317  1.6083
16716TIP3   OH271638   0.304   6.344   4.635  0.2501  0.2707 -0.8567
16716TIP3    H171639   0.319   6.414   4.572  0.6028 -0.2936 -1.4023
16716TIP3    H271640   0.349   6.373   4.714  0.8883  0.4024 -1.2624
16717TIP3   OH271641   1.527   5.931   5.229 -0.7777 -0.3194  0.3918
16717TIP3    H171642   1.536   6.018   5.191  0.1466 -1.0803 -1.1774
16717TIP3    H271643   1.433   5.914   5.226 -0.7821 -0.1042 -0.9809
16718TIP3   OH271644   4.126   0.949  13.613 -0.4103  0.0162 -0.0891
16718TIP3    H171645   4.136   0.987  13.526  0.3632 -0.1651 -0.0845
16718TIP3    H271646   4.107   1.024  13.669  2.1700  0.5822  0.0952
16719TIP3   OH271647   3.543   1.372  16.754 -0.5023 -0.3615 -0.2737
16719TIP3    H171648   3.478   1.318  16.709 -0.8113  0.3428 -0.6964
16719TIP3    H271649   3.593   1.413  16.683  1.2526 -1.8870  0.0601
16720TIP3   OH271650   0.096   1.100   2.473 -0.2451  0.2240 -0.3371
16720TIP3    H171651   0.025   1.043   2.504 -0.1280  0.4664  0.3772
16720TIP3    H271652   0.056   1.187   2.468  0.0957  0.4314  0.4253
16721TIP3   OH271653   0.947   0.979  16.131  0.5291  0.3029  0.2568
16721TIP3    H171654   0.878   0.913  16.134  0.5503  0.3357  1.6927
16721TIP3    H271655   0.923   1.036  16.058  0.7054 -1.4901 -1.2184
16722TIP3   OH271656   2.627   5.652   5.654 -0.1579 -0.0414 -0.1944
16722TIP3    H171657   2.545   5.665   5.702 -1.0609 -0.7034 -1.5217
16722TIP3    H271658   2.666   5.739   5.648 -1.6846  0.6082 -1.1384
16723TIP3   OH271659   1.637   5.715   2.443  0.1593 -0.0100 -0.2191
16723TIP3    H171660   1.648   5.736   2.350  0.1370  2.4666  0.3023
16723TIP3    H271661   1.656   5.797   2.488 -1.0958 -0.8559  1.9056
16724TIP3   OH271662   0.198   4.762   4.895  0.6274  0.3508 -0.6305
16724TIP3    H171663   0.260   4.750   4.967 -0.7886 -0.7334  0.4354
16724TIP3    H271664   0.164   4.675   4.877 -1.4158  1.0615 -0.4120
16725TIP3   OH271665   4.260   0.276   5.399  0.5897  0.2518  0.0278
16725TIP3    H171666   4.251   0.350   5.459  0.2327 -0.4041  0.7913
16725TIP3    H271667   4.267   0.316   5.312 -3.3459  1.0580  0.0233
16726TIP3   OH271668   0.631   4.582  16.547 -0.4599  0.1721 -0.4314
16726TIP3    H171669   0.666   4.618  16.465 -1.3430 -2.4819 -2.0235
16726TIP3    H271670   0.536   4.590  16.538 -0.5592  0.0029  0.4296
16727TIP3   OH271671   5.248   1.495  15.420 -0.0939  0.3048 -0.2611
16727TIP3    H171672   5.215   1.443  15.493  0.3023  0.8185  0.2831
16727TIP3    H271673   5.202   1.578  15.427  0.3838  0.5706 -0.2396
16728TIP3   OH271674   2.620   3.486  11.752 -0.2822  0.1143  0.5453
16728TIP3    H171675   2.550   3.526  11.701 -0.0212  0.7835  0.7011
16728TIP3    H271676   2.696   3.488  11.693 -0.9889 -2.8606 -0.5322
16729TIP3   OH271677   4.065   1.534   1.391  0.2196  0.0394  0.0276
16729TIP3    H171678   4.118   1.614   1.390  2.8727 -1.6260 -0.0419
16729TIP3    H271679   4.077   1.497   1.303 -1.4639 -0.1242 -0.1386
16730TIP3   OH271680   5.418   5.051  15.667  0.3915 -0.3348 -0.0475
16730TIP3    H171681   5.344   5.000  15.633 -0.3246  1.9750 -2.0813
16730TIP3    H271682   5.386   5.084  15.751 -0.5975 -0.0074 -0.5409
16731TIP3   OH271683   1.622   0.519  16.676 -0.1607 -0.1678 -0.4026
16731TIP3    H171684   1.553   0.585  16.673  1.0548  1.2952  2.2165
16731TIP3    H271685   1.703   0.569  16.679  0.8325 -1.7987  0.9031
16732TIP3   OH271686   4.855   3.896   0.835 -0.0721 -0.0363 -0.0711
16732TIP3    H171687   4.772   3.854   0.811 -0.8215  0.1130  2.1293
16732TIP3    H271688   4.918   3.825   0.840  0.0764 -0.0987 -2.2142
16733TIP3   OH271689   0.687   0.178  10.768 -0.5312  0.1160 -0.3837
16733TIP3    H171690   0.713   0.123  10.695  0.6529 -1.8498  1.4902
16733TIP3    H271691   0.634   0.121  10.824 -0.4431  1.2661  0.9005
16734TIP3   OH271692   2.133   1.044  11.563  0.8140  0.2604  0.0545
16734TIP3    H171693   2.174   0.978  11.619 -0.4368 -1.1046 -0.6278
16734TIP3    H271694   2.048   1.060  11.604  0.5146  0.3704 -0.6158
16735TIP3   OH271695   2.604   3.301   0.428  0.4273 -0.4211 -0.1158
16735TIP3    H171696   2.559   3.309   0.511 -3.2050 -2.0612 -1.8030
16735TIP3    H271697   2.562   3.365   0.371  3.2298  1.0676 -0.6180
16736TIP3   OH271698   4.556   2.161  11.691 -0.0081 -0.1041 -0.8320
16736TIP3    H171699   4.463   2.145  11.675 -0.7373  1.6789  1.4312
16736TIP3    H271700   4.583   2.088  11.748 -0.7238  0.8760  0.7870
16737TIP3   OH271701   3.673   0.621  13.571 -0.4748 -0.7128  0.4601
16737TIP3    H171702   3.584   0.654  13.582 -0.2626  1.0484 -2.4697
16737TIP3    H271703   3.727   0.684  13.620 -0.8205 -1.8865  2.3917
16738TIP3   OH271704   2.674   1.453  13.264  0.7410  0.5389  0.3257
16738TIP3    H171705   2.735   1.388  13.228 -1.2843 -2.0045  1.2887
16738TIP3    H271706   2.695   1.457  13.358  0.2193  0.5306  0.4469
16739TIP3   OH271707   4.739   2.977  15.970 -0.2266 -0.4604  0.5501
16739TIP3    H171708   4.645   2.998  15.975 -0.2848 -0.5070 -0.2411
16739TIP3    H271709   4.779   3.056  15.934 -0.1863 -1.0199 -0.6522
16740TIP3   OH271710   0.475   1.017  11.555 -0.0304  0.1711  0.7354
16740TIP3    H171711   0.492   0.977  11.470  0.4811  0.3458  0.7562
16740TIP3    H271712   0.544   0.983  11.612  1.4594  2.4400  0.3184
16741TIP3   OH271713   0.991   2.260  13.748 -0.0495  0.2614 -0.5249
16741TIP3    H171714   0.933   2.330  13.778 -1.1857 -0.4675 -0.9459
16741TIP3    H271715   1.071   2.304  13.721  0.5446  1.0481  2.4179
16742TIP3   OH271716   5.728   1.326  10.716 -0.0629 -0.2641 -0.4824
16742TIP3    H171717   5.812   1.354  10.751 -0.5622 -1.2662  1.5910
16742TIP3    H271718   5.663   1.363  10.774 -1.0039 -0.5939 -1.3000
16743TIP3   OH271719   4.159   4.723   2.285  0.1243  0.0564  0.2774
16743TIP3    H171720   4.181   4.640   2.242  0.3713  0.1511  0.2170
16743TIP3    H271721   4.070   4.711   2.317 -0.5247  0.4106 -1.3400
16744TIP3   OH271722   1.247   3.927  14.535  0.3485  0.3751  0.0730
16744TIP3    H171723   1.319   3.942  14.474 -0.2377  1.1980 -0.4260
16744TIP3    H271724   1.181   3.991  14.511 -1.2760 -1.5067 -0.6213
16745TIP3   OH271725   5.947   4.847   0.042 -0.3677  0.2713 -0.1373
16745TIP3    H171726   5.962   4.763  -0.000  0.9988  0.1216  0.6294
16745TIP3    H271727   5.912   4.825   0.129 -1.6923  0.5476 -0.5782
16746TIP3   OH271728   0.271   1.775  16.129  0.4073  0.2388 -0.1218
16746TIP3    H171729   0.230   1.859  16.108 -0.8055  0.5577  3.1729
16746TIP3    H271730   0.216   1.710  16.086  0.4508  1.0357 -1.4059
16747TIP3   OH271731   3.541   3.682   1.339  0.3543  0.3352 -0.6382
16747TIP3    H171732   3.614   3.730   1.379 -0.4547 -0.0152  1.3551
16747TIP3    H271733   3.574   3.592   1.331 -0.0998 -0.0028  1.0167
16748TIP3   OH271734   6.438   6.611  15.738 -0.3117 -0.2821  0.2155
16748TIP3    H171735   6.397   6.697  15.747  1.3665  0.5131  0.4297
16748TIP3    H271736   6.432   6.591  15.645  0.6775  0.7829 -0.0849
16749TIP3   OH271737   2.426   3.554   2.587 -0.1714  0.6702  0.1994
16749TIP3    H171738   2.468   3.591   2.509 -0.6145  1.4415  0.3170
16749TIP3    H271739   2.337   3.532   2.559  0.8015 -2.5833 -0.5197
16750TIP3   OH271740   6.678   0.380  13.871 -0.4455  0.9863  0.1093
16750TIP3    H171741   6.708   0.297  13.907  1.1113  0.8424 -1.4641
16750TIP3    H271742   6.596   0.358  13.827  0.5317  0.0254 -1.2852
16751TIP3   OH271743   1.988   6.271   2.222 -0.5549 -0.0342  0.0591
16751TIP3    H171744   2.006   6.280   2.128  0.5357 -2.0918  0.0642
16751TIP3    H271745   1.896   6.297   2.231 -0.3816  1.1770 -1.4016
16752TIP3   OH271746   2.317   3.211   1.712 -0.1537  0.7022 -0.2322
16752TIP3    H171747   2.374   3.245   1.642  2.3520 -1.0633  0.8794
16752TIP3    H271748   2.328   3.274   1.783  0.3111  0.4326 -0.0646
16753TIP3   OH271749   3.963   6.063  10.673  0.2586  0.3624 -0.1120
16753TIP3    H171750   3.977   6.019  10.589  4.0563 -0.7399  1.0144
16753TIP3    H271751   3.978   5.995  10.738  0.5172  1.9734  1.5450
16754TIP3   OH271752   4.209   6.243   1.829  0.8001 -0.2746 -0.6517
16754TIP3    H171753   4.260   6.321   1.853  0.2562  0.2566 -1.2259
16754TIP3    H271754   4.178   6.261   1.741 -1.1401 -0.2046  0.0294
16755TIP3   OH271755   2.586   4.766  16.396 -0.5664  0.4198 -0.9479
16755TIP3    H171756   2.680   4.759  16.378 -0.2676  1.1333  0.2992
16755TIP3    H271757   2.576   4.731  16.484 -1.4204  0.7342 -0.9203
16756TIP3   OH271758   0.154   3.293   2.638 -0.6782  0.1616  0.4508
16756TIP3    H171759   0.207   3.319   2.562 -0.0371  0.3303  0.9507
16756TIP3    H271760   0.175   3.358   2.705 -3.6459  1.9064 -0.2451
16757TIP3   OH271761   4.627   6.518  12.748 -0.2824 -0.0943  0.1848
16757TIP3    H171762   4.693   6.453  12.725 -0.4464  0.0672 -0.7426
16757TIP3    H271763   4.669   6.602  12.729 -1.4588 -0.0432 -2.3232
16758TIP3   OH271764   5.238   4.781   0.765 -0.0120 -0.7186 -0.2313
16758TIP3    H171765   5.239   4.841   0.840 -1.5192  0.7913 -1.3683
16758TIP3    H271766   5.213   4.837   0.691  2.3629 -1.9987 -2.0361
16759TIP3   OH271767   2.463   0.939  16.152  0.6308 -0.2475 -0.0328
16759TIP3    H171768   2.518   0.861  16.147  0.8447 -0.1584  0.8406
16759TIP3    H271769   2.478   0.973  16.240 -1.1093 -0.4323  0.3445
16760TIP3   OH271770   5.237   2.003   1.823 -0.8572  0.2382 -0.1729
16760TIP3    H171771   5.176   1.991   1.751 -0.2596 -2.5556 -0.2465
16760TIP3    H271772   5.200   1.951   1.895  0.0630  0.6473  0.6082
16761TIP3   OH271773   2.030   3.154   2.239  0.1346 -0.4206 -0.2020
16761TIP3    H171774   2.030   3.164   2.143 -1.1238 -0.0979 -0.1726
16761TIP3    H271775   1.984   3.072   2.255  0.1077 -0.3368  0.1459
16762TIP3   OH271776   6.465   1.009   5.915  0.6328 -0.0975  0.3507
16762TIP3    H171777   6.512   1.085   5.880 -1.4039  0.6592 -0.7956
16762TIP3    H271778   6.429   1.039   5.998  0.1352  0.0843  0.0708
16763TIP3   OH271779   1.566   1.242   2.774  0.0451  0.0876  0.3337
16763TIP3    H171780   1.538   1.197   2.695  0.8830  0.1474 -0.0032
16763TIP3    H271781   1.635   1.186   2.810 -0.8480 -0.3238  1.4274
16764TIP3   OH271782   0.514   6.379  15.298  0.0871 -0.5943  0.3779
16764TIP3    H171783   0.469   6.448  15.345  0.5105  0.0351 -0.1307
16764TIP3    H271784   0.602   6.414  15.282  0.7517 -1.7797  1.3147
16765TIP3   OH271785   5.075   6.195   4.813  0.1837 -0.4899 -0.1106
16765TIP3    H171786   5.028   6.273   4.784  1.4798  0.5055  0.4206
16765TIP3    H271787   5.007   6.135   4.844 -0.9647 -0.2441 -2.0701
16766TIP3   OH271788   4.500   1.258  13.187 -0.6454  0.0193 -0.3949
16766TIP3    H171789   4.516   1.171  13.224 -1.3154 -1.1632 -2.7746
16766TIP3    H271790   4.408   1.276  13.208 -0.4209  0.2964  0.3630
16767TIP3   OH271791   2.952   0.936  13.273 -0.9155 -0.1087  0.4297
16767TIP3    H171792   2.956   0.841  13.270 -0.2279 -0.0778  0.0804
16767TIP3    H271793   3.034   0.962  13.317 -1.0421  0.3182  0.4167
16768TIP3   OH271794   3.188   4.405   6.121  0.2784  0.7879 -0.2831
16768TIP3    H171795   3.155   4.489   6.153 -0.1987  0.7933 -0.7913
16768TIP3    H271796   3.202   4.353   6.200 -1.1214  0.7155 -0.0750
16769TIP3   OH271797   6.365   6.348   1.153  0.2063  0.0929 -0.6931
16769TIP3    H171798   6.412   6.364   1.235 -0.4861 -1.4866  0.0334
16769TIP3    H271799   6.304   6.421   1.145  0.6646  0.5483 -0.0918
16770TIP3   OH271800   0.230   3.478   6.083  0.1497  0.0272 -0.3690
16770TIP3    H171801   0.239   3.391   6.044  2.0464 -0.8298  1.8940
16770TIP3    H271802   0.221   3.462   6.176  0.2402  2.2546  0.0545
16771TIP3   OH271803   5.028   0.434  12.832  0.2154 -0.1949 -0.0046
16771TIP3    H171804   5.090   0.361  12.831  0.6788  0.1882  0.3699
16771TIP3    H271805   5.080   0.510  12.804 -0.1263  0.1010  0.1603
16772TIP3   OH271806   4.629   0.623   1.128 -0.5023  0.3708  0.2914
16772TIP3    H171807   4.685   0.659   1.059  2.5060 -0.1207  2.3443
16772TIP3    H271808   4.645   0.529   1.125 -1.7302  0.1468  0.5179
16773TIP3   OH271809   6.269   4.089   1.642  0.0759  0.0002  0.0552
16773TIP3    H171810   6.245   4.110   1.733  0.1471 -0.5590  0.2056
16773TIP3    H271811   6.294   4.173   1.604  0.3597  0.1842  0.6484
16774TIP3   OH271812   5.849   6.361  12.761 -0.6541  0.1274  0.0490
16774TIP3    H171813   5.768   6.385  12.806 -0.4445  0.3348  0.3155
16774TIP3    H271814   5.880   6.283  12.807 -1.2240 -0.5350 -0.6823
16775TIP3   OH271815   2.013   6.217  14.190 -0.0061  0.3167 -0.6481
16775TIP3    H171816   2.037   6.173  14.271 -1.2513 -0.0215 -0.4529
16775TIP3    H271817   2.021   6.310  14.210 -1.0044  0.2461  0.0772
16776TIP3   OH271818   1.626   0.751   4.901 -0.0262 -0.1397 -0.4973
16776TIP3    H171819   1.702   0.694   4.892  0.3697  0.3927 -0.5944
16776TIP3    H271820   1.551   0.692   4.899  0.2770 -0.4779 -2.3888
16777TIP3   OH271821   2.714   3.829  15.771 -0.2326 -0.6349 -0.0867
16777TIP3    H171822   2.770   3.811  15.696 -0.8973 -0.6066 -0.6024
16777TIP3    H271823   2.642   3.765  15.763 -1.1942  0.4681 -0.4273
16778TIP3   OH271824   3.325   3.643  15.106 -0.2810  0.0146  0.1571
16778TIP3    H171825   3.391   3.652  15.175  0.3181 -0.4180 -0.3481
16778TIP3    H271826   3.273   3.723  15.111  1.4539  1.2407 -0.6486
16779TIP3   OH271827   0.223   3.828  15.169 -0.4104  0.0808  0.5384
16779TIP3    H171828   0.165   3.802  15.097 -1.0172 -1.5299  1.5695
16779TIP3    H271829   0.260   3.912  15.141 -1.1285 -0.2015 -1.3531
16780TIP3   OH271830   5.189   6.212  12.822  0.0030 -0.3622 -0.0849
16780TIP3    H171831   5.203   6.122  12.852 -2.2684 -1.5109 -2.2200
16780TIP3    H271832   5.157   6.259  12.899 -0.7044 -1.8976  0.5782
16781TIP3   OH271833   4.673   2.759  11.608  0.5181  0.1283 -0.4240
16781TIP3    H171834   4.650   2.715  11.690  0.7436  0.3105 -0.2602
16781TIP3    H271835   4.667   2.853  11.629  1.9555  0.1858 -0.2104
16782TIP3   OH271836   0.668   1.511  16.561  0.0549  0.2432 -0.2374
16782TIP3    H171837   0.685   1.561  16.641  0.4792  1.3773 -1.0244
16782TIP3    H271838   0.574   1.524  16.545 -0.1006 -0.2564  0.2518
16783TIP3   OH271839   2.730   1.366  13.583  0.2227  0.1781 -0.3865
16783TIP3    H171840   2.720   1.398  13.673 -2.7468  1.8623 -1.2318
16783TIP3    H271841   2.780   1.435  13.539  0.7615 -0.1434 -0.2756
16784TIP3   OH271842   2.104   4.338  17.079 -0.5037 -0.2117 -0.1027
16784TIP3    H171843   2.041   4.277  17.117 -0.0198  0.6701  2.1553
16784TIP3    H271844   2.189   4.299  17.096 -0.3537 -0.7528 -1.9962
16785TIP3   OH271845   0.805   1.045   2.547  0.6467  0.4025  0.1436
16785TIP3    H171846   0.819   1.038   2.642 -0.7812 -0.6107  0.2958
16785TIP3    H271847   0.847   0.967   2.511 -1.2764 -0.7025  0.2391
16786TIP3   OH271848   3.066   5.066  11.480  0.4253 -0.4088  0.0220
16786TIP3    H171849   3.004   5.112  11.537  0.1703 -0.3462 -0.3063
16786TIP3    H271850   3.069   5.119  11.400  1.0319 -0.3176  0.1016
16787TIP3   OH271851   6.673   5.368  14.061  0.0353  0.4865 -0.2457
16787TIP3    H171852   6.726   5.377  14.140 -2.2535  0.5908  1.3264
16787TIP3    H271853   6.726   5.407  13.992  3.1108 -1.7329  0.7292
16788TIP3   OH271854   0.518   4.423   5.872 -0.2769  0.0901 -0.0107
16788TIP3    H171855   0.425   4.407   5.857 -0.1498  1.0777 -2.0984
16788TIP3    H271856   0.525   4.438   5.966 -2.2552  0.1209  0.1548
16789TIP3   OH271857   0.881   0.286   0.820 -0.1181  0.1979 -0.3771
16789TIP3    H171858   0.961   0.337   0.824 -0.0277  0.0920 -0.8510
16789TIP3    H271859   0.812   0.350   0.802  0.0048  0.1457 -1.0445
16790TIP3   OH271860   2.954   0.358  11.084 -0.3102 -0.1871  0.3210
16790TIP3    H171861   2.859   0.357  11.071 -0.3676 -1.0587  0.7950
16790TIP3    H271862   2.972   0.281  11.138  0.5613  0.4420  0.9412
16791TIP3   OH271863   0.194   0.627  15.675  0.1863  0.0792  0.8978
16791TIP3    H171864   0.257   0.629  15.746 -0.4781  1.0611  1.4705
16791TIP3    H271865   0.241   0.664  15.600  1.1021 -1.5819  0.6297
16792TIP3   OH271866   6.451   1.658   3.802  0.1166 -0.1977 -0.4701
16792TIP3    H171867   6.415   1.640   3.890  1.2708 -1.7195 -0.2854
16792TIP3    H271868   6.515   1.728   3.816  0.5971 -0.7183 -0.0135
16793TIP3   OH271869   0.738   2.355  15.462 -0.2007  0.0764  0.3042
16793TIP3    H171870   0.736   2.424  15.395 -0.4954 -0.0732  0.1574
16793TIP3    H271871   0.828   2.355  15.494 -0.1341  0.3515  0.1158
16794TIP3   OH271872   5.091   3.246  12.471 -0.4715  0.0502 -0.2815
16794TIP3    H171873   5.177   3.207  12.482 -0.4969 -0.1801 -0.8672
16794TIP3    H271874   5.075   3.293  12.553 -0.3496 -0.9856  0.3439
16795TIP3   OH271875   3.360   0.644  14.034  0.5472  0.2685  0.2530
16795TIP3    H171876   3.375   0.563  14.081  1.1526 -0.2023 -0.7229
16795TIP3    H271877   3.442   0.660  13.987 -0.5708 -0.1380 -1.8979
16796TIP3   OH271878   2.458   3.708   0.864  0.0038 -0.0163 -0.7529
16796TIP3    H171879   2.394   3.636   0.872 -0.1488 -0.1433 -2.6884
16796TIP3    H271880   2.528   3.671   0.811 -0.7460  1.6584 -3.0006
16797TIP3   OH271881   3.614   2.634   4.159  0.3496  0.0186  0.3123
16797TIP3    H171882   3.688   2.581   4.128  0.7055  1.0850 -0.6982
16797TIP3    H271883   3.638   2.724   4.137 -1.8412  0.2455 -1.2710
16798TIP3   OH271884   5.725   2.108  14.876  0.2662  0.6049 -0.3920
16798TIP3    H171885   5.679   2.044  14.930  0.4541  1.1251  0.3977
16798TIP3    H271886   5.816   2.080  14.877  0.2792  0.6467 -0.3910
16799TIP3   OH271887   6.454   0.378  14.502  0.2062 -0.0563 -0.4236
16799TIP3    H171888   6.520   0.310  14.518 -1.2391 -1.0744  1.3620
16799TIP3    H271889   6.393   0.338  14.440 -0.5067 -0.3306  0.4360
16800TIP3   OH271890   6.399   3.703  10.358  0.3203  0.0243  1.2345
16800TIP3    H171891   6.472   3.642  10.370 -0.1762 -0.5094  1.5903
16800TIP3    H271892   6.335   3.653  10.306  0.3450  0.5971  0.6559
16801TIP3   OH271893   5.458   4.811   5.691  0.3640 -0.1463  0.0259
16801TIP3    H171894   5.419   4.822   5.778 -1.1716 -0.0071 -0.6463
16801TIP3    H271895   5.457   4.899   5.653 -0.4853 -0.4635 -0.7236
16802TIP3   OH271896   5.404   0.128  16.276 -0.3397  0.5283 -0.2208
16802TIP3    H171897   5.395   0.195  16.209  3.5299  0.9888 -0.3551
16802TIP3    H271898   5.432   0.050  16.229 -1.7715 -0.3566  0.3557
16803TIP3   OH271899   0.053   4.630   6.385  0.0977 -0.0691 -0.4271
16803TIP3    H171900   0.056   4.592   6.473 -1.0373  0.1449 -0.2816
16803TIP3    H271901   0.145   4.639   6.359  0.4804  0.7715  1.1301
16804TIP3   OH271902   4.829   5.005  16.753 -0.7444  0.7932  0.1577
16804TIP3    H171903   4.906   4.972  16.799 -1.4247 -0.2345  0.5889
16804TIP3    H271904   4.861   5.080  16.703 -0.1971  2.5280  3.0407
16805TIP3   OH271905   2.862   6.185  16.157 -0.2754 -0.1484  0.1088
16805TIP3    H171906   2.799   6.127  16.199 -0.6021 -0.3056 -0.5897
16805TIP3    H271907   2.851   6.269  16.201 -1.1564 -0.1071 -0.1868
16806TIP3   OH271908   1.722   5.671  15.247  0.0531 -0.4441  0.0682
16806TIP3    H171909   1.728   5.763  15.220 -1.7429 -0.8758 -1.9267
16806TIP3    H271910   1.644   5.667  15.302  0.5510 -0.6451  0.7687
16807TIP3   OH271911   3.135   4.270   1.843  0.0028 -0.7583  0.3485
16807TIP3    H171912   3.122   4.192   1.897 -1.6577  0.2878  1.5002
16807TIP3    H271913   3.171   4.335   1.904  1.1904 -0.5533 -0.5605
16808TIP3   OH271914   0.044   1.386  14.473  0.2109 -0.1374  0.1044
16808TIP3    H171915   0.049   1.470  14.429  1.2534 -0.8910 -1.2551
16808TIP3    H271916  -0.025   1.339  14.426  0.0491 -0.2638  0.4691
16809TIP3   OH271917   2.256   0.624   3.772  0.7135 -0.0494 -0.4572
16809TIP3    H171918   2.345   0.624   3.807  0.4800  0.4757  0.1548
16809TIP3    H271919   2.216   0.544   3.807  0.9014 -0.2207 -0.6309
16810TIP3   OH271920   6.222   1.168  12.144  0.0937 -0.1177  0.1817
16810TIP3    H171921   6.140   1.200  12.107  0.1714  1.1091  1.0220
16810TIP3    H271922   6.197   1.117  12.221  0.2033  2.1545  1.7687
16811TIP3   OH271923   1.066   5.902  14.370  0.3193 -0.2744 -0.7575
16811TIP3    H171924   0.984   5.909  14.420  0.1649  1.1355 -1.1868
16811TIP3    H271925   1.106   5.821  14.402 -0.2305  0.1036  0.9854
16812TIP3   OH271926   2.659   3.029   4.777 -0.2787  0.2061 -0.3067
16812TIP3    H171927   2.723   3.100   4.781  0.2066 -0.1348 -1.5051
16812TIP3    H271928   2.682   2.982   4.696 -0.5116 -1.3709  0.5270
16813TIP3   OH271929   0.687   1.582   6.117  0.3231 -0.2502  0.5748
16813TIP3    H171930   0.682   1.490   6.092  0.8832  0.1855 -1.2324
16813TIP3    H271931   0.662   1.583   6.210  0.4123 -2.2195  0.6491
16814TIP3   OH271932   2.187   1.006  12.459 -0.1392  0.4542  0.0374
16814TIP3    H171933   2.141   1.081  12.495 -0.4917  0.7654 -1.0327
16814TIP3    H271934   2.127   0.933  12.471 -0.0109  0.4415  0.6080
16815TIP3   OH271935   1.962   2.032   4.780 -0.1288 -1.2137 -0.6037
16815TIP3    H171936   1.920   2.113   4.809 -0.9445 -0.8423 -2.7201
16815TIP3    H271937   2.019   2.007   4.853 -1.5878  0.0211  0.9924
16816TIP3   OH271938   0.237   2.830   4.687 -0.1029 -0.0490  0.1000
16816TIP3    H171939   0.232   2.742   4.724 -0.8008 -0.3286 -0.6292
16816TIP3    H271940   0.331   2.848   4.678  0.0431 -0.5734  0.5791
16817TIP3   OH271941   0.341   6.043  11.673 -0.1281 -0.0690  0.4950
16817TIP3    H171942   0.397   6.043  11.751 -0.8134  0.9233  0.9949
16817TIP3    H271943   0.252   6.036  11.707 -0.3409 -1.3848 -0.2916
16818TIP3   OH271944   2.828   5.355  13.427  0.3312  0.5668  0.1502
16818TIP3    H171945   2.893   5.424  13.440  1.7900 -0.2875 -2.2247
16818TIP3    H271946   2.878   5.273  13.433 -1.2834 -0.2894  2.4549
16819TIP3   OH271947   2.248   1.285   1.118  0.3318  0.4663  0.0683
16819TIP3    H171948   2.331   1.279   1.071  0.0014 -1.2485 -0.3368
16819TIP3    H271949   2.197   1.210   1.086 -0.8896  0.7807  1.2407
16820TIP3   OH271950   6.126   4.229  11.272 -0.0358 -0.4295  0.1644
16820TIP3    H171951   6.030   4.229  11.264 -0.0662 -0.7795  0.5035
16820TIP3    H271952   6.144   4.298  11.336 -0.0064  0.1701 -0.4809
16821TIP3   OH271953   3.209   4.850  14.718  0.5826  0.0721 -0.1572
16821TIP3    H171954   3.176   4.928  14.674  2.6576  0.0878 -1.7579
16821TIP3    H271955   3.132   4.795  14.731 -0.2551  0.4676 -3.0411
16822TIP3   OH271956   6.378   0.018  15.343 -0.3046 -0.2358  0.1481
16822TIP3    H171957   6.375  -0.027  15.259  2.2824  0.7841 -0.5620
16822TIP3    H271958   6.471   0.024  15.364 -0.7199  2.2145  1.5952
16823TIP3   OH271959   2.071   2.954   5.787 -0.1449  0.1830 -0.1999
16823TIP3    H171960   2.038   2.976   5.874 -0.0356  2.1044 -0.6377
16823TIP3    H271961   2.163   2.932   5.801 -0.2168  0.1500  0.2130
16824TIP3   OH271962   2.817   0.461   4.498  0.2792 -0.2489 -0.1857
16824TIP3    H171963   2.782   0.505   4.420 -2.1557 -1.9450 -0.1196
16824TIP3    H271964   2.902   0.426   4.470 -0.2689 -0.2601 -1.8923
16825TIP3   OH271965   5.822   2.587  12.992 -0.2176 -0.5734  0.4817
16825TIP3    H171966   5.917   2.599  13.002 -0.0146  0.1484 -1.9032
16825TIP3    H271967   5.812   2.559  12.901 -2.2469 -1.4246  0.9519
16826TIP3   OH271968   5.800   0.921  12.997  0.1851  0.0908 -0.0800
16826TIP3    H171969   5.857   0.861  12.948  1.1330  0.8210  0.0945
16826TIP3    H271970   5.860   0.965  13.058 -0.6919  0.4010  0.5585
16827TIP3   OH271971   2.305   0.461   4.093 -0.1581 -0.0736 -0.0395
16827TIP3    H171972   2.400   0.477   4.100 -0.0292 -0.3959 -1.0164
16827TIP3    H271973   2.294   0.421   4.007 -0.9816 -1.5543  0.7528
16828TIP3   OH271974   0.088   2.018  13.929  0.0205  0.0459 -0.1789
16828TIP3    H171975   0.046   2.066  14.000 -1.7596 -2.6225  0.6440
16828TIP3    H271976   0.023   1.954  13.902  0.6721  0.9607 -4.2390
16829TIP3   OH271977   0.373   3.262  14.496 -0.3011 -0.0908  0.0724
16829TIP3    H171978   0.450   3.318  14.488  0.5757 -1.4284 -1.0771
16829TIP3    H271979   0.299   3.322  14.492  0.6475  1.1067  0.1417
16830TIP3   OH271980   6.608   6.200  12.469 -0.2644  0.2570  0.2695
16830TIP3    H171981   6.538   6.266  12.470 -0.0828  0.4869 -1.0881
16830TIP3    H271982   6.681   6.243  12.424  0.1749 -0.5495  0.2078
16831TIP3   OH271983   1.930   5.606  14.416  0.2516 -0.1122  0.3038
16831TIP3    H171984   1.957   5.515  14.430 -1.4438 -0.5422  0.9085
16831TIP3    H271985   1.920   5.642  14.504 -1.1162  0.0383  0.0921
16832TIP3   OH271986   5.968   1.170  13.542  0.1214 -0.0878  0.1440
16832TIP3    H171987   6.027   1.127  13.480 -0.0824 -0.3337  0.1197
16832TIP3    H271988   5.975   1.264  13.522 -0.2981 -0.2063 -0.5619
16833TIP3   OH271989   4.929   5.546  15.769  0.6980  0.2820  0.3483
16833TIP3    H171990   4.912   5.581  15.682 -1.6366 -0.4140  0.4888
16833TIP3    H271991   4.975   5.616  15.815  0.7572  1.1557 -1.0125
16834TIP3   OH271992   0.072   3.385   0.708  0.1735  0.2682  0.6872
16834TIP3    H171993   0.033   3.472   0.705  0.7588  0.5365  0.6837
16834TIP3    H271994  -0.002   3.325   0.711 -0.2390  0.7331 -0.1080
16835TIP3   OH271995   2.416   6.296  15.469  0.3036  0.0054 -0.3335
16835TIP3    H171996   2.410   6.391  15.465  0.1581  0.0691  0.9765
16835TIP3    H271997   2.337   6.270  15.518  1.2675 -0.6285  0.9215
16836TIP3   OH271998   1.638   3.356   5.709  0.2216 -0.3400  0.3214
16836TIP3    H171999   1.692   3.344   5.787 -1.2496  2.2141  1.8160
16836TIP3    H272000   1.548   3.363   5.742 -1.0976 -4.1488 -2.0702
16837TIP3   OH272001   1.366   4.843  16.568 -0.1038 -0.6357 -0.0086
16837TIP3    H172002   1.345   4.789  16.492  2.7069  0.3040 -1.4959
16837TIP3    H272003   1.387   4.929  16.532  0.7850 -0.0410  1.8626
16838TIP3   OH272004   1.493   4.478   5.320 -0.6658 -0.6944  0.2006
16838TIP3    H172005   1.556   4.511   5.256  0.3151 -0.8336  1.0797
16838TIP3    H272006   1.482   4.549   5.382 -0.6687 -0.9992  0.5543
16839TIP3   OH272007   3.934   1.389  12.968  0.2746 -0.0437  0.1941
16839TIP3    H172008   3.848   1.396  13.011  0.1249 -1.3271  0.1068
16839TIP3    H272009   3.986   1.459  13.009  0.0235 -0.9949  2.2399
16840TIP3   OH272010   0.767   0.706  11.279  0.7541 -0.6751 -0.0524
16840TIP3    H172011   0.756   0.673  11.190 -0.9769 -0.3658  0.0163
16840TIP3    H272012   0.801   0.632  11.329  3.1714 -0.4205 -1.2628
16841TIP3   OH272013   2.695   6.734   4.506 -0.0883  0.5915  0.0031
16841TIP3    H172014   2.771   6.791   4.499  1.7569 -1.6825  0.8698
16841TIP3    H272015   2.718   6.656   4.455 -1.2037 -0.7423  1.4527
16842TIP3   OH272016   0.901   2.350   2.305  0.1775 -0.0144  0.3364
16842TIP3    H172017   0.961   2.412   2.262  0.2209 -0.1679  0.1781
16842TIP3    H272018   0.848   2.315   2.234 -0.3593  0.4049  0.5243
16843TIP3   OH272019   3.283   0.326   0.314 -0.0469  0.0979  0.2282
16843TIP3    H172020   3.246   0.359   0.232 -1.3990  0.1901  0.8717
16843TIP3    H272021   3.332   0.401   0.349  1.9757 -0.4469 -1.3128
16844TIP3   OH272022   5.011   0.240   5.409 -0.0771 -0.0089  0.2758
16844TIP3    H172023   5.029   0.190   5.328  1.1426  2.3093 -0.9370
16844TIP3    H272024   5.092   0.289   5.424 -1.2617  1.5878  1.4470
16845TIP3   OH272025   3.544   0.232   3.594 -0.0892 -0.5847  0.2532
16845TIP3    H172026   3.616   0.228   3.531 -0.0868 -1.9523  0.3294
16845TIP3    H272027   3.532   0.141   3.623 -0.8439 -0.1414  1.3708
16846TIP3   OH272028   0.418   4.796  14.790  0.1832 -0.3886  0.7918
16846TIP3    H172029   0.384   4.742  14.861  2.7984 -2.3955  0.5783
16846TIP3    H272030   0.465   4.867  14.834 -0.2449 -0.2710  1.0619
16847TIP3   OH272031   1.147   5.684   2.629  0.6582 -0.0901  0.0677
16847TIP3    H172032   1.118   5.775   2.614 -1.2667 -0.7730 -0.4651
16847TIP3    H272033   1.199   5.663   2.551  1.7238  0.7585  0.5139
16848TIP3   OH272034   4.964   2.838  12.767  0.4593  0.1377 -0.0419
16848TIP3    H172035   4.993   2.785  12.692  0.5991 -0.5076  0.4652
16848TIP3    H272036   4.956   2.775  12.839  1.0408  0.8791  0.6750
16849TIP3   OH272037   6.539   4.677  16.921 -0.3957  0.5514  0.0555
16849TIP3    H172038   6.506   4.736  16.854 -0.7277 -0.2886 -0.5375
16849TIP3    H272039   6.620   4.718  16.953 -0.9322  1.5959  0.0680
16850TIP3   OH272040   1.832   3.822  13.105 -0.1028 -0.2492  0.5808
16850TIP3    H172041   1.808   3.905  13.063 -1.8454 -1.0171  0.0002
16850TIP3    H272042   1.926   3.827  13.117  0.1744  0.7247 -1.8512
16851TIP3   OH272043   1.146   1.367  14.570  0.1210 -0.0084  0.0203
16851TIP3    H172044   1.171   1.364  14.662  0.8189 -1.7466 -0.2050
16851TIP3    H272045   1.219   1.325  14.524 -0.0790  1.1220 -1.3599
16852TIP3   OH272046   0.267   3.846  16.748  0.2511  0.0434 -0.2744
16852TIP3    H172047   0.228   3.764  16.780  0.7552  0.1183  0.5572
16852TIP3    H272048   0.303   3.823  16.662  1.3821 -0.9148  0.4390
16853TIP3   OH272049   1.079   0.842   1.501 -0.0302  0.1852 -0.1679
16853TIP3    H172050   1.066   0.875   1.412 -1.3542 -0.4863 -0.2331
16853TIP3    H272051   0.997   0.863   1.547 -0.4677 -2.0320  0.0927
16854TIP3   OH272052   0.708   6.191  11.855  0.2826 -0.3334  0.4089
16854TIP3    H172053   0.751   6.238  11.926  2.3059  0.5180 -1.3208
16854TIP3    H272054   0.738   6.100  11.866  0.8468 -0.1457  0.4492
16855TIP3   OH272055   1.357   5.125  15.588 -0.1094  0.0077  0.0107
16855TIP3    H172056   1.280   5.139  15.533  0.8488 -2.1696 -1.9889
16855TIP3    H272057   1.351   5.034  15.615  1.0219  0.2306  1.0412
16856TIP3   OH272058   0.654   1.265  16.266 -0.5459 -0.0581 -0.1007
16856TIP3    H172059   0.639   1.180  16.224 -1.9062 -0.6082  1.4607
16856TIP3    H272060   0.735   1.253  16.315  0.0104 -0.0008 -0.9799
16857TIP3   OH272061   3.084   2.314   6.023 -0.0437  0.8487 -0.1818
16857TIP3    H172062   3.093   2.257   5.946  1.4048 -1.1296  1.3972
16857TIP3    H272063   3.047   2.257   6.090  1.2163  1.8290  1.3637
16858TIP3   OH272064   6.125   5.615  11.472 -0.1770 -0.3481 -0.5116
16858TIP3    H172065   6.187   5.569  11.415 -0.6298 -1.5131 -0.0774
16858TIP3    H272066   6.177   5.643  11.547  0.2736  0.5924 -1.1557
16859TIP3   OH272067   0.412   1.824  17.175  0.3561 -0.6901 -0.1809
16859TIP3    H172068   0.427   1.902  17.228  2.0711 -0.3182 -1.1991
16859TIP3    H272069   0.485   1.766  17.195 -0.8057 -1.9938  0.4290
16860TIP3   OH272070   2.382   4.220  17.159  0.0919 -0.2839  0.1680
16860TIP3    H172071   2.465   4.234  17.204  0.4681  1.6857 -1.0616
16860TIP3    H272072   2.406   4.208  17.067 -0.8841 -0.9744  0.0005
16861TIP3   OH272073   0.376   5.777  12.559 -0.1640  0.0596  0.3704
16861TIP3    H172074   0.408   5.865  12.579 -0.5518  0.2391  0.1991
16861TIP3    H272075   0.284   5.778  12.583 -0.1259 -0.3590  0.5438
16862TIP3   OH272076   4.407   6.631   1.279  0.2929  0.3915 -0.0745
16862TIP3    H172077   4.350   6.699   1.315  2.2770  0.2597  3.5489
16862TIP3    H272078   4.381   6.551   1.323  3.6792  0.4715  2.2846
16863TIP3   OH272079   1.830   0.868  12.019  0.0931  0.0361  0.9223
16863TIP3    H172080   1.804   0.780  11.992 -0.5660  0.7331 -0.7208
16863TIP3    H272081   1.748   0.913  12.038  0.3326  0.8874 -0.0620
16864TIP3   OH272082   1.558   4.564  17.255  0.0062 -0.1517  0.6205
16864TIP3    H172083   1.604   4.615  17.188 -0.5983  0.9241  1.0121
16864TIP3    H272084   1.468   4.597  17.254 -0.4288 -1.2997  0.7977
16865TIP3   OH272085   3.174   6.346   5.420 -0.2188  0.6313 -0.0605
16865TIP3    H172086   3.260   6.327   5.457 -0.6553  0.4152  0.8453
16865TIP3    H272087   3.112   6.329   5.491 -1.0102  0.8255 -0.6908
16866TIP3   OH272088   5.388   0.808   0.628  0.1086  0.4438  0.0380
16866TIP3    H172089   5.302   0.841   0.603  0.1584  1.6965  1.4340
16866TIP3    H272090   5.420   0.872   0.693  0.4983 -2.0112  2.3270
16867TIP3   OH272091   6.038   0.385   0.652 -0.3578 -0.3006  0.3177
16867TIP3    H172092   6.132   0.395   0.634 -0.4957  0.7125  0.0966
16867TIP3    H272093   6.030   0.298   0.689  0.2319 -1.7067 -2.6924
16868TIP3   OH272094   6.386   0.110   1.116  0.5956 -0.5348 -0.3405
16868TIP3    H172095   6.466   0.124   1.065  1.7560  0.0919  1.5782
16868TIP3    H272096   6.345   0.196   1.120  0.2590 -0.6826 -0.6205
16869TIP3   OH272097   4.558   3.898   1.288 -0.6095 -0.2642  0.0807
16869TIP3    H172098   4.557   3.990   1.317  0.8595 -0.1766 -0.0755
16869TIP3    H272099   4.651   3.879   1.275 -1.0514 -1.1956 -1.7831
16870TIP3   OH272100   0.161   2.827   1.889  0.2497  0.1129  0.3437
16870TIP3    H172101   0.226   2.763   1.860  0.6376 -0.2341  1.9703
16870TIP3    H272102   0.211   2.907   1.903  0.2423 -0.0218  1.1304
16871TIP3   OH272103   1.617   4.968  13.767  0.4396 -0.2828 -0.6476
16871TIP3    H172104   1.527   4.993  13.789  0.1722 -1.6601 -0.1662
16871TIP3    H272105   1.671   5.023  13.824 -0.0047  2.0861 -2.4276
16872TIP3   OH272106   4.023   4.009  13.958  0.0239 -0.1846  0.2431
16872TIP3    H172107   4.011   3.984  13.866 -0.7396  1.9118 -0.2524
16872TIP3    H272108   3.951   3.966  14.004  0.8057 -1.8220  0.0077
16873TIP3   OH272109   3.206   2.316   3.511  0.1627 -0.3067 -0.9825
16873TIP3    H172110   3.134   2.360   3.465  0.2959  0.2528 -0.6616
16873TIP3    H272111   3.257   2.388   3.549 -0.7410 -0.8169  1.2731
16874TIP3   OH272112   0.395   0.575  17.249 -0.0377 -0.1871 -0.3132
16874TIP3    H172113   0.330   0.642  17.228  1.5344  1.9163  1.2811
16874TIP3    H272114   0.436   0.554  17.165  1.7288  3.3749 -0.4392
16875TIP3   OH272115   0.314   6.424  15.732  0.0079 -0.0695 -0.0985
16875TIP3    H172116   0.327   6.347  15.677 -1.2785  1.1674 -2.2302
16875TIP3    H272117   0.263   6.392  15.807 -1.3703 -1.1294 -1.4442
16876TIP3   OH272118   6.696   2.966   0.127  0.0309  0.0204 -0.2107
16876TIP3    H172119   6.706   3.058   0.104 -0.7479  0.2956  0.5228
16876TIP3    H272120   6.601   2.953   0.134  0.1575 -0.6565  0.3787
16877TIP3   OH272121   0.344   3.088   5.606  0.1298  0.2505 -0.6649
16877TIP3    H172122   0.344   2.993   5.621  0.1231  0.4920  0.8692
16877TIP3    H272123   0.260   3.118   5.640  0.9476  1.0837  0.6650
16878TIP3   OH272124   0.239   3.304   0.505 -0.1697  0.1134  0.3589
16878TIP3    H172125   0.200   3.328   0.589 -0.2530 -1.4790  0.7984
16878TIP3    H272126   0.283   3.383   0.475 -1.4771  1.1657  1.1402
16879TIP3   OH272127   3.256   4.845  15.113 -0.0869  0.3023 -0.1427
16879TIP3    H172128   3.317   4.772  15.109 -2.3114 -1.5873 -0.6811
16879TIP3    H272129   3.171   4.805  15.129 -1.2559  2.8347  0.2481
16880TIP3   OH272130   4.855   6.726   0.876  0.7160  0.3877  0.3009
16880TIP3    H172131   4.835   6.736   0.969  2.1708  1.0230  0.5688
16880TIP3    H272132   4.785   6.670   0.842  1.7781 -2.3830  2.4150
16881TIP3   OH272133   3.633   2.094   0.445 -0.4584  0.0854 -0.2291
16881TIP3    H172134   3.673   2.181   0.444 -2.0413  0.8158 -3.0791
16881TIP3    H272135   3.705   2.035   0.422  0.5084  0.6374  1.2523
16882TIP3   OH272136   2.329   5.493  15.906  0.3416 -0.5348 -0.1334
16882TIP3    H172137   2.362   5.583  15.897  0.9871 -0.7930 -0.3905
16882TIP3    H272138   2.234   5.502  15.906  0.3893  0.3991  2.3470
16883TIP3   OH272139   5.728   4.318  12.682  0.1867  0.4066  0.2561
16883TIP3    H172140   5.802   4.263  12.660  0.6314  0.6024  1.2484
16883TIP3    H272141   5.679   4.326  12.600  1.2369  0.2549 -0.3932
16884TIP3   OH272142   3.440   2.357  14.372 -0.0552 -0.1887 -0.0563
16884TIP3    H172143   3.357   2.310  14.362 -0.4130  0.1683  1.1087
16884TIP3    H272144   3.489   2.306  14.437  0.0550  0.3726  0.3050
16885TIP3   OH272145   0.380   2.314   0.530 -0.2933 -0.4994 -0.2230
16885TIP3    H172146   0.382   2.287   0.439 -1.3252 -1.1970 -0.0552
16885TIP3    H272147   0.296   2.282   0.563  0.4944 -1.1397  1.2336
16886TIP3   OH272148   6.407   5.369  11.904 -0.0605 -0.2602  0.2710
16886TIP3    H172149   6.423   5.391  11.996 -0.9972  1.2771  0.0750
16886TIP3    H272150   6.444   5.281  11.894 -0.9248 -0.8942  2.3932
16887TIP3   OH272151   4.118   0.731   2.779 -0.3710 -0.5250 -0.2546
16887TIP3    H172152   4.122   0.718   2.874 -0.5895  1.4494  0.0460
16887TIP3    H272153   4.149   0.648   2.742 -0.8377 -1.5246  1.5307
16888TIP3   OH272154   2.458   6.564  15.481  0.4668  0.5454  0.7326
16888TIP3    H172155   2.539   6.591  15.439  1.0664 -1.6789  0.3642
16888TIP3    H272156   2.390   6.619  15.441  1.4711  0.7117 -0.7755
16889TIP3   OH272157   5.608   0.747  13.609 -0.0478 -0.0580 -0.3722
16889TIP3    H172158   5.622   0.841  13.607  0.2125 -0.0997 -0.4617
16889TIP3    H272159   5.575   0.725  13.522  0.9005 -0.2083 -0.7027
16890TIP3   OH272160   0.133   0.550   5.609 -0.3480  0.5292 -0.1027
16890TIP3    H172161   0.151   0.466   5.567 -1.1043  0.6534 -0.6865
16890TIP3    H272162   0.147   0.534   5.703  0.8784  0.1235 -0.3517
16891TIP3   OH272163   6.142   3.774   4.582  0.1584 -0.4077  0.1936
16891TIP3    H172164   6.139   3.763   4.677 -2.5531  3.0432  0.6292
16891TIP3    H272165   6.197   3.851   4.568  0.4128 -0.7958 -1.0430
16892TIP3   OH272166   3.808   2.414  14.621  0.1464  0.5142 -0.2540
16892TIP3    H172167   3.796   2.362  14.542 -1.1392  0.1805  0.1522
16892TIP3    H272168   3.866   2.486  14.594 -1.0460  0.9386 -1.7500
16893TIP3   OH272169   6.295   6.150  14.750  0.0163  0.3089  0.1215
16893TIP3    H172170   6.368   6.136  14.809  1.4928 -2.8980 -2.3504
16893TIP3    H272171   6.335   6.174  14.666 -1.7324 -1.5083 -1.2797
16894TIP3   OH272172   4.942   5.308   5.930 -0.0432 -0.0836 -0.3091
16894TIP3    H172173   4.962   5.253   5.855 -0.3438  1.1260 -1.3076
16894TIP3    H272174   5.004   5.281   5.998  0.9581 -0.4545 -1.3536
16895TIP3   OH272175   3.856   5.054  16.537  0.7147 -0.5685  0.5096
16895TIP3    H172176   3.897   5.021  16.457  1.0751 -0.6366  0.7233
16895TIP3    H272177   3.826   5.142  16.514 -1.7338 -1.6319 -0.5792
16896TIP3   OH272178   3.424   2.235  15.020  0.2519 -0.2689 -0.0857
16896TIP3    H172179   3.519   2.221  15.020  1.2259  4.9964 -1.1778
16896TIP3    H272180   3.404   2.263  15.109  0.0851  0.4282 -0.3376
16897TIP3   OH272181   5.344   1.890  17.246 -0.3919 -0.5293  0.1535
16897TIP3    H172182   5.340   1.795  17.257 -1.4333 -0.3152  1.7914
16897TIP3    H272183   5.358   1.925  17.334  0.6327  0.8146 -0.5134
16898TIP3   OH272184   2.710   1.457  17.214 -0.2649  1.1041 -0.2930
16898TIP3    H172185   2.692   1.549  17.194 -2.3959  0.5686 -0.9793
16898TIP3    H272186   2.658   1.409  17.150  0.8614 -0.5778  0.0529
16899TIP3   OH272187   5.305   2.918   5.822  0.1322  0.1048 -0.0620
16899TIP3    H172188   5.346   3.005   5.815  0.4480 -0.0819 -0.5152
16899TIP3    H272189   5.232   2.932   5.883 -0.0744  0.7819 -0.4570
16900TIP3   OH272190   1.263   3.357  10.691 -0.0751 -0.1631  0.3679
16900TIP3    H172191   1.317   3.282  10.667 -0.1380 -0.0436 -0.1539
16900TIP3    H272192   1.173   3.330  10.672 -0.0423  0.2733 -0.4268
16901TIP3   OH272193   2.183   6.076   1.316 -0.1286 -0.4033 -0.4580
16901TIP3    H172194   2.172   6.040   1.228 -0.9539  0.4499 -0.7102
16901TIP3    H272195   2.241   6.152   1.303  0.9342 -1.1214 -0.0474
16902TIP3   OH272196   5.557   3.538   5.832 -0.0510 -0.1288 -0.0265
16902TIP3    H172197   5.616   3.556   5.905  0.4533  1.0898 -0.7061
16902TIP3    H272198   5.471   3.564   5.864 -0.6334 -3.8513  1.7008
16903TIP3   OH272199   6.509   4.031  11.359 -0.3096  0.0197  0.3482
16903TIP3    H172200   6.427   3.987  11.383 -1.5424  1.1358 -1.6475
16903TIP3    H272201   6.488   4.124  11.361  0.5052  0.2589 -1.5282
16904TIP3   OH272202   0.446   3.511  11.940 -0.1797 -0.8251 -0.0063
16904TIP3    H172203   0.505   3.437  11.953 -0.4916 -1.0283  0.2672
16904TIP3    H272204   0.475   3.577  12.003  0.4054 -0.5272 -0.5887
16905TIP3   OH272205   6.649   2.954   4.716 -0.0146  0.1269 -0.1485
16905TIP3    H172206   6.628   2.863   4.738  0.6957  0.0993  0.4234
16905TIP3    H272207   6.662   2.953   4.622 -0.8457 -0.1977 -0.2730
16906TIP3   OH272208   1.782   5.894  16.931  0.0024 -0.2483 -0.3606
16906TIP3    H172209   1.856   5.867  16.985 -0.3377  0.3725  0.4332
16906TIP3    H272210   1.789   5.842  16.851  1.2747 -0.2112 -0.2711
16907TIP3   OH272211   0.712   0.973  11.332  0.3031  0.2877  0.2447
16907TIP3    H172212   0.729   0.883  11.304 -0.1894  0.6927 -1.4355
16907TIP3    H272213   0.796   1.004  11.367  0.7346 -0.5041 -0.0781
16908TIP3   OH272214   2.215   5.633   2.558 -0.6206 -0.2442 -0.1595
16908TIP3    H172215   2.233   5.623   2.464  1.9212  0.9596  0.1408
16908TIP3    H272216   2.271   5.706   2.585 -1.1887 -0.6864  2.3264
16909TIP3   OH272217   3.901   3.589   3.195 -0.2610 -0.0731 -0.6336
16909TIP3    H172218   3.960   3.665   3.195  1.0228 -1.0193 -3.3341
16909TIP3    H272219   3.959   3.514   3.205 -0.9401 -1.0164 -3.2864
16910TIP3   OH272220   3.071   5.701  17.217  0.0526  0.2533  0.5301
16910TIP3    H172221   3.062   5.606  17.208  1.9217  0.2146 -1.6941
16910TIP3    H272222   3.166   5.715  17.222 -0.2438  1.9435  1.6289
16911TIP3   OH272223   3.007   4.126   1.031  0.3438 -0.2883  0.4068
16911TIP3    H172224   2.938   4.068   0.998 -2.1745  2.4017  0.7779
16911TIP3    H272225   3.012   4.107   1.125 -0.9867  0.6103  0.6602
16912TIP3   OH272226   4.842   1.452  16.458  0.2082  0.4131  0.7615
16912TIP3    H172227   4.818   1.545  16.466  0.0367  0.2419  2.3832
16912TIP3    H272228   4.901   1.449  16.383  0.1317  1.8191  0.6318
16913TIP3   OH272229   5.575   2.074  16.501 -0.0255  0.4327 -0.6521
16913TIP3    H172230   5.519   2.006  16.535  0.2739 -0.2065 -1.4187
16913TIP3    H272231   5.660   2.032  16.489  0.0151  0.7816 -1.6585
16914TIP3   OH272232   4.202   6.481  14.156 -0.0441 -0.5468  0.4061
16914TIP3    H172233   4.121   6.510  14.198  1.5111  0.9001  2.5111
16914TIP3    H272234   4.218   6.394  14.194 -0.2598 -0.5313  0.5328
16915TIP3   OH272235   5.607   3.223  11.174 -0.0833  0.1563 -0.3706
16915TIP3    H172236   5.565   3.257  11.253  0.7451  2.7131 -0.9790
16915TIP3    H272237   5.680   3.170  11.207 -0.3141  0.4240  0.5895
16916TIP3   OH272238   1.561   6.712   6.186  0.4645 -0.0171  0.4529
16916TIP3    H172239   1.564   6.781   6.119 -1.6915  0.7788  1.1121
16916TIP3    H272240   1.648   6.672   6.184  0.8767  0.9004 -1.8684
16917TIP3   OH272241   4.907   4.204  15.503 -0.4280 -0.4059 -0.5607
16917TIP3    H172242   4.914   4.207  15.408  0.4516  1.8966 -0.4580
16917TIP3    H272243   4.915   4.111  15.526 -0.1736 -0.9136 -2.6761
16918TIP3   OH272244   2.159   1.109   4.613 -0.2785 -1.0003  0.0336
16918TIP3    H172245   2.092   1.072   4.555  0.2138 -1.5853 -0.1660
16918TIP3    H272246   2.226   1.041   4.618  0.3584 -0.3643  0.1337
16919TIP3   OH272247   5.066   6.725  11.560  0.3724 -0.1447 -0.3360
16919TIP3    H172248   5.058   6.809  11.516 -0.0906  0.0447  0.1069
16919TIP3    H272249   5.157   6.722  11.591 -0.0523  0.8685  1.0155
16920TIP3   OH272250   5.209   2.593  14.028  0.0652  1.0101  0.2834
16920TIP3    H172251   5.284   2.613  13.971  0.2188  0.5158  0.3090
16920TIP3    H272252   5.134   2.594  13.970  0.4665 -1.6161 -0.3798
16921TIP3   OH272253   2.410   1.555   2.457  0.8680 -0.4891 -0.0959
16921TIP3    H172254   2.399   1.647   2.433 -1.1914 -0.9444 -1.0132
16921TIP3    H272255   2.456   1.557   2.541  1.1185  1.3620 -0.2656
16922TIP3   OH272256   0.338   0.222   3.006  0.8955  0.5071  0.1067
16922TIP3    H172257   0.301   0.307   2.983  0.3424 -0.0412 -1.0505
16922TIP3    H272258   0.356   0.180   2.922 -2.8946 -2.2825  0.5437
16923TIP3   OH272259   1.432   3.561   4.543 -0.1757 -0.8525  0.2177
16923TIP3    H172260   1.514   3.513   4.558  0.5857  0.2421 -0.3680
16923TIP3    H272261   1.406   3.591   4.630  1.1470  0.5425  0.1589
16924TIP3   OH272262   2.204   4.280   0.234 -0.4174  0.0077  0.1030
16924TIP3    H172263   2.208   4.355   0.175  0.0840 -0.2703 -0.2194
16924TIP3    H272264   2.273   4.297   0.299 -0.9272  0.2838  0.5811
16925TIP3   OH272265   1.081   1.357   4.262  0.0361  0.2078  0.2493
16925TIP3    H172266   0.999   1.325   4.224 -0.8864  0.9173  1.5812
16925TIP3    H272267   1.064   1.450   4.279  0.1775 -0.2363  2.9699
16926TIP3   OH272268   1.107   1.978   2.062  0.1247  0.3160 -0.1751
16926TIP3    H172269   1.116   1.974   2.158 -0.3498  1.6978 -0.0704
16926TIP3    H272270   1.075   2.066   2.044 -1.4642 -0.5083 -1.4920
16927TIP3   OH272271   1.171   2.052   6.569  0.1608 -0.6474  0.2429
16927TIP3    H172272   1.250   2.043   6.515  1.0633  2.2020  1.0494
16927TIP3    H272273   1.101   2.069   6.506  0.8168  0.4373 -0.1886
16928TIP3   OH272274   4.988   4.962  13.240  0.0170 -0.1078 -0.0278
16928TIP3    H172275   4.997   5.040  13.295  0.6175  0.9724 -1.6186
16928TIP3    H272276   4.994   4.889  13.301  0.1369  1.0722  1.4081
16929TIP3   OH272277   3.546   2.032  14.758 -0.3475 -0.3938  0.1155
16929TIP3    H172278   3.638   2.020  14.781 -0.2872  0.5207  0.3620
16929TIP3    H272279   3.541   2.122  14.728 -1.4302 -0.0174  1.3877
16930TIP3   OH272280   5.775   5.163  11.288  0.2638 -0.2337 -0.1140
16930TIP3    H172281   5.778   5.126  11.376  0.5159 -0.8422 -0.3770
16930TIP3    H272282   5.865   5.159  11.257 -0.0614 -1.3751 -0.9548
16931TIP3   OH272283   3.631   4.386  15.445 -0.6869 -0.2754  0.2386
16931TIP3    H172284   3.616   4.461  15.387 -1.2682 -0.9551 -0.5066
16931TIP3    H272285   3.629   4.310  15.386  0.5277 -0.8199  0.8983
16932TIP3   OH272286   3.513   2.312  14.646  0.4761  0.3048  0.0056
16932TIP3    H172287   3.587   2.372  14.652 -0.9779  2.0366  1.0402
16932TIP3    H272288   3.442   2.356  14.693 -1.2464 -1.2683 -1.0338
16933TIP3   OH272289   3.682   3.021   3.433  0.4337 -0.4105  0.0475
16933TIP3    H172290   3.679   3.034   3.338 -0.2958  1.0185  0.2564
16933TIP3    H272291   3.591   3.026   3.461  0.8430  1.4584  1.1039
16934TIP3   OH272292   1.785   3.012  15.660 -0.6060  0.1969 -0.3554
16934TIP3    H172293   1.788   3.069  15.583 -2.6318 -1.5389 -1.8122
16934TIP3    H272294   1.698   3.027  15.697 -0.7808 -1.1726 -0.1712
16935TIP3   OH272295   1.725   1.869  15.597  0.0419 -0.1084  0.2660
16935TIP3    H172296   1.686   1.938  15.649  1.2541  0.2922  0.6565
16935TIP3    H272297   1.713   1.789  15.649 -1.2229 -0.1824 -0.1210
16936TIP3   OH272298   3.908   3.069  15.165 -0.6257 -0.3241  0.3632
16936TIP3    H172299   4.000   3.072  15.193 -0.4097 -0.8992 -0.2661
16936TIP3    H272300   3.875   2.988  15.202  0.0690 -1.8383 -2.2373
16937TIP3   OH272301   4.654   4.456   2.603  0.3759  0.5927  0.6121
16937TIP3    H172302   4.628   4.491   2.518  0.6401 -1.0693 -0.1764
16937TIP3    H272303   4.590   4.491   2.665 -2.2238 -1.3270 -0.8799
16938TIP3   OH272304   0.731   3.954   4.735 -0.5580  0.1739  0.5954
16938TIP3    H172305   0.798   3.896   4.699  1.2390  2.7316 -0.3409
16938TIP3    H272306   0.658   3.949   4.673 -2.3914 -4.5221  2.8733
16939TIP3   OH272307   6.399   4.811  11.643  0.1760 -0.1258  0.0908
16939TIP3    H172308   6.381   4.741  11.706  0.9135 -0.0530  0.3778
16939TIP3    H272309   6.382   4.770  11.557  2.1987 -1.1652  0.1561
16940TIP3   OH272310   4.576   3.810   0.499 -0.7825 -0.5075 -0.2282
16940TIP3    H172311   4.483   3.787   0.496 -1.5476  2.4194 -0.1680
16940TIP3    H272312   4.577   3.905   0.497  2.2843 -0.5231 -1.3457
16941TIP3   OH272313   1.432   2.838   0.445 -0.2938 -0.1099 -0.2581
16941TIP3    H172314   1.472   2.767   0.495  1.4061  1.8122  1.1636
16941TIP3    H272315   1.487   2.847   0.367 -0.7473 -0.5924 -0.6419
16942TIP3   OH272316   1.086   1.921  16.035 -0.5265  0.1908  0.0905
16942TIP3    H172317   1.111   2.009  16.008  0.6958 -0.6420 -1.5393
16942TIP3    H272318   1.043   1.883  15.959  0.5106 -1.2290  0.1834
16943TIP3   OH272319   3.338   3.535  11.597  0.2453 -0.1912 -0.3618
16943TIP3    H172320   3.394   3.457  11.586  1.6635  0.8823 -0.9244
16943TIP3    H272321   3.399   3.608  11.589 -1.3923  1.0359 -1.7385
16944TIP3   OH272322   3.884   5.018   3.557 -0.3954  0.1665 -0.3381
16944TIP3    H172323   3.821   5.084   3.529  0.0368  0.3926 -0.7755
16944TIP3    H272324   3.883   5.023   3.652 -0.5480  0.6263 -0.3624
16945TIP3   OH272325   0.097   6.032  13.129 -0.4265 -0.4596  0.2866
16945TIP3    H172326   0.186   5.996  13.131  0.1847  0.9831 -0.3824
16945TIP3    H272327   0.049   5.973  13.070  0.3601 -0.6225 -0.1999
16946TIP3   OH272328   2.516   2.336   0.262 -0.0315 -0.1361  0.3727
16946TIP3    H172329   2.495   2.430   0.266  0.1199 -0.0246 -1.1767
16946TIP3    H272330   2.431   2.294   0.247 -0.2638 -0.3623  2.1434
16947TIP3   OH272331   6.358   5.355   0.261 -0.3797  0.3474  0.5681
16947TIP3    H172332   6.316   5.392   0.339 -2.7576  0.3426 -0.6496
16947TIP3    H272333   6.303   5.384   0.188  1.2414 -0.4581 -1.0160
16948TIP3   OH272334   6.304   2.357   5.732 -0.3314 -0.3360  0.4886
16948TIP3    H172335   6.222   2.396   5.763 -0.6658  0.9060 -1.8750
16948TIP3    H272336   6.289   2.263   5.738 -1.4696 -0.1282  1.2360
16949TIP3   OH272337   4.028   4.882  11.614 -0.3516  0.3664 -0.2771
16949TIP3    H172338   3.968   4.879  11.540 -0.7550 -0.5064  0.0816
16949TIP3    H272339   4.070   4.968  11.607 -2.6340  1.5484  0.2645
16950TIP3   OH272340   2.843   1.912   2.117 -0.7402 -0.3743  0.1185
16950TIP3    H172341   2.773   1.864   2.073 -0.2835 -0.6911 -0.2678
16950TIP3    H272342   2.813   1.923   2.207 -0.2969 -2.4957  0.5521
16951TIP3   OH272343   4.086   2.393   0.084  0.2879 -0.0254  0.1175
16951TIP3    H172344   4.148   2.370   0.154  0.3479 -0.4929 -0.0914
16951TIP3    H272345   4.024   2.452   0.126 -1.4952 -2.7063  1.3659
16952TIP3   OH272346   3.533   2.920   0.680 -0.1529 -0.4100  0.2236
16952TIP3    H172347   3.461   2.911   0.742 -0.0352 -2.1012  0.1369
16952TIP3    H272348   3.586   2.992   0.716 -2.3812  1.5102 -0.2535
16953TIP3   OH272349   1.779   6.087  13.663  0.0976 -0.0416  0.2864
16953TIP3    H172350   1.708   6.114  13.721 -0.7665  1.1346 -1.3043
16953TIP3    H272351   1.816   6.169  13.630 -0.0814 -0.6951 -1.6180
16954TIP3   OH272352   6.402   5.020  12.490  0.2163  0.0868 -0.0579
16954TIP3    H172353   6.358   5.055  12.568  1.8282  1.7733  0.1090
16954TIP3    H272354   6.331   5.003  12.428 -0.8226  1.2724  0.7932
16955TIP3   OH272355   6.570   4.517   2.128  0.0100 -0.0424  0.1732
16955TIP3    H172356   6.508   4.547   2.061  1.0423  2.5923  0.3608
16955TIP3    H272357   6.514   4.488   2.201 -1.0314  0.3755 -0.4505
16956TIP3   OH272358   3.446   4.429   3.942  0.4044 -0.0707  0.0189
16956TIP3    H172359   3.377   4.490   3.917 -0.0898 -0.7803 -0.3909
16956TIP3    H272360   3.414   4.386   4.021 -0.8590 -2.3166 -1.6381
16957TIP3   OH272361   0.315   3.247  11.727  0.1499  0.1103  0.1676
16957TIP3    H172362   0.315   3.300  11.648 -1.3439  1.0895  0.8012
16957TIP3    H272363   0.257   3.293  11.787  0.9504 -0.8218  1.7043
16958TIP3   OH272364   6.770   0.173  10.440 -0.4982  0.4059 -0.3420
16958TIP3    H172365   6.698   0.132  10.392  0.9829 -1.7589 -0.7713
16958TIP3    H272366   6.781   0.119  10.519  0.3351  0.9971 -0.0420
16959TIP3   OH272367   6.631   1.252  10.377 -0.2980  0.2240  0.2282
16959TIP3    H172368   6.725   1.263  10.371 -0.2714  0.5966  1.2400
16959TIP3    H272369   6.607   1.200  10.300  0.6699  0.4900 -0.2516
16960TIP3   OH272370   2.060   1.440  15.002  0.2123 -0.1645  0.0127
16960TIP3    H172371   2.069   1.402  15.090 -1.1787  0.4293  0.4351
16960TIP3    H272372   1.969   1.420  14.977  0.4612  0.0730 -1.1040
16961TIP3   OH272373   2.546   3.517  17.221  0.1236 -0.3114  0.6323
16961TIP3    H172374   2.640   3.506  17.237  0.4736  1.5619 -0.0273
16961TIP3    H272375   2.516   3.575  17.290 -0.5975 -1.0036  0.9157
16962TIP3   OH272376   1.212   0.568   5.441  0.0889 -0.0913 -0.3330
16962TIP3    H172377   1.155   0.641   5.465 -1.3464 -1.2154 -0.2118
16962TIP3    H272378   1.217   0.572   5.345  0.7146  0.6679 -0.2708
16963TIP3   OH272379   3.864   1.144  13.129 -0.4364  0.2682 -0.5617
16963TIP3    H172380   3.915   1.200  13.072 -0.8978 -0.1096 -1.3592
16963TIP3    H272381   3.793   1.111  13.073 -1.5260  0.7624  0.5137
16964TIP3   OH272382   4.146   5.077   5.882  0.4645  0.0599 -0.0084
16964TIP3    H172383   4.139   5.086   5.977 -0.2508  1.5057 -0.1892
16964TIP3    H272384   4.131   4.984   5.866 -0.7153  0.0306  1.1734
16965TIP3   OH272385   0.286   2.196  13.826  0.6027 -0.4948 -0.1055
16965TIP3    H172386   0.267   2.181  13.734 -0.0572  2.4156 -0.4938
16965TIP3    H272387   0.221   2.144  13.873 -1.5553  0.9977 -1.3449
16966TIP3   OH272388   4.596   4.623  14.123  0.4023  0.5918  0.5338
16966TIP3    H172389   4.681   4.580  14.121 -0.3624 -1.0860  2.2142
16966TIP3    H272390   4.607   4.696  14.184  0.4980 -0.0227  1.2737
16967TIP3   OH272391   1.742   2.358   6.648 -0.1009 -0.8246  0.3570
16967TIP3    H172392   1.802   2.357   6.722 -0.2858  1.6301  0.5810
16967TIP3    H272393   1.656   2.342   6.687 -0.2514  0.8589  0.7578
16968TIP3   OH272394   3.074   2.821   3.854 -0.0813 -0.1912  0.1411
16968TIP3    H172395   3.066   2.861   3.767 -1.8337 -0.8411 -0.0261
16968TIP3    H272396   2.983   2.815   3.885  0.3381 -2.1192  1.0192
16969TIP3   OH272397   0.266   1.796   3.632  0.3013  0.3990 -0.3319
16969TIP3    H172398   0.267   1.784   3.727  1.3033  1.6676 -0.1667
16969TIP3    H272399   0.343   1.749   3.601 -0.6609 -0.9734 -0.6451
16970TIP3   OH272400   4.194   5.691  11.641  0.7494  0.1055  0.4398
16970TIP3    H172401   4.104   5.677  11.612  0.5440 -0.3985  1.2934
16970TIP3    H272402   4.248   5.670  11.565  0.1225  0.9670 -0.2508
16971TIP3   OH272403   3.428   5.196  15.144 -0.6697 -0.7660  0.7076
16971TIP3    H172404   3.393   5.136  15.078  0.3323 -0.7724  0.1670
16971TIP3    H272405   3.357   5.259  15.159 -0.2943  0.2861 -1.6820
16972TIP3   OH272406   4.518   1.074   5.266  0.4793 -0.2622  0.3397
16972TIP3    H172407   4.555   1.047   5.351  1.6190  0.3007  0.0327
16972TIP3    H272408   4.436   1.117   5.289  0.4165 -0.7736  1.1072
16973TIP3   OH272409   3.532   3.536   0.477 -0.4952 -0.1248  0.5430
16973TIP3    H172410   3.553   3.445   0.453 -3.2859 -0.8243  0.6144
16973TIP3    H272411   3.471   3.528   0.550 -0.1664  1.8435  1.0539
16974TIP3   OH272412   1.600   1.943   2.638 -0.0264 -0.3170  0.2450
16974TIP3    H172413   1.582   2.032   2.668 -2.6437 -0.7080 -0.0644
16974TIP3    H272414   1.589   1.889   2.716 -0.1061 -0.5615  0.0637
16975TIP3   OH272415   5.612   1.770   2.771 -0.5679 -0.2398 -0.1741
16975TIP3    H172416   5.569   1.804   2.850 -2.4297 -0.0377 -1.2539
16975TIP3    H272417   5.570   1.686   2.755 -0.3308 -0.1989 -1.0452
16976TIP3   OH272418   1.336   6.314  12.072 -0.1531  0.3176 -0.4703
16976TIP3    H172419   1.360   6.242  12.131 -3.6128 -1.2183 -0.7998
16976TIP3    H272420   1.419   6.356  12.050  1.7242 -2.1674  1.5363
16977TIP3   OH272421   4.406   6.278   4.167 -0.3851 -0.0695  0.2850
16977TIP3    H172422   4.329   6.224   4.146 -0.2017  0.0150 -0.6302
16977TIP3    H272423   4.478   6.216   4.173 -0.2591  0.0153 -0.3080
16978TIP3   OH272424   4.990   4.846  12.284 -0.5230 -0.1692  0.2836
16978TIP3    H172425   4.978   4.751  12.279 -1.9575  0.0263 -0.4802
16978TIP3    H272426   4.971   4.876  12.195 -1.5831  0.9736  0.8856
16979TIP3   OH272427   5.712   6.626   5.157 -0.0132 -0.2834  0.4398
16979TIP3    H172428   5.771   6.694   5.189  1.6845 -2.0590  1.1700
16979TIP3    H272429   5.671   6.590   5.236 -1.8098  0.6586 -0.0307
16980TIP3   OH272430   2.419   1.070  11.238  0.1110 -0.1995 -0.0839
16980TIP3    H172431   2.368   1.125  11.297 -0.1749 -0.2811 -0.2528
16980TIP3    H272432   2.379   0.983  11.245  1.1556 -0.6133  0.9006
16981TIP3   OH272433   4.308   0.148  12.519  0.0106  0.5410 -0.1626
16981TIP3    H172434   4.247   0.208  12.475 -0.2160  0.7546  0.4294
16981TIP3    H272435   4.252   0.084  12.563  0.1875  1.0412  0.8120
16982TIP3   OH272436   3.716   6.499   2.314 -0.8530  0.3011 -0.0962
16982TIP3    H172437   3.786   6.437   2.331 -0.6476  0.7783  0.7965
16982TIP3    H272438   3.746   6.550   2.238  0.2958  1.2969  1.0129
16983TIP3   OH272439   2.501   0.299   1.135 -0.3018 -0.8228  0.7232
16983TIP3    H172440   2.588   0.263   1.118  0.3490  0.8231  0.4368
16983TIP3    H272441   2.517   0.391   1.156 -2.0140 -0.3990  0.2722
16984TIP3   OH272442   3.577   1.825  11.974  0.1655 -0.3826  0.0923
16984TIP3    H172443   3.654   1.773  11.998  0.4132 -1.3036 -2.5011
16984TIP3    H272444   3.579   1.900  12.033  3.8002  0.2753 -0.7597
16985TIP3   OH272445   6.123   4.922   4.885  0.2026 -0.0105  0.3085
16985TIP3    H172446   6.027   4.920   4.880  0.2365 -0.5411 -0.2748
16985TIP3    H272447   6.146   5.014   4.875 -0.1209 -0.1700 -2.3083
16986TIP3   OH272448   2.304   3.872  17.165 -0.1888 -0.1705  0.4886
16986TIP3    H172449   2.329   3.793  17.213  0.7376  0.0041  0.2914
16986TIP3    H272450   2.297   3.940  17.232  0.6003 -0.0468  0.4470
16987TIP3   OH272451   2.517   5.826  15.135  0.6070  0.2879  0.4789
16987TIP3    H172452   2.583   5.756  15.134 -0.6590 -0.9230  0.6150
16987TIP3    H272453   2.525   5.868  15.050  0.6339 -0.7249 -0.0214
16988TIP3   OH272454   1.217   4.114  15.055 -0.1633  0.2436 -0.2142
16988TIP3    H172455   1.249   4.029  15.084  0.5725 -0.1684 -2.1380
16988TIP3    H272456   1.296   4.165  15.038 -0.5792  0.6106 -1.0743
16989TIP3   OH272457   2.470   3.861  11.759 -0.2648 -0.7950  0.0299
16989TIP3    H172458   2.539   3.808  11.799 -0.4385 -1.2666 -0.2889
16989TIP3    H272459   2.397   3.800  11.748 -0.6815 -0.3339  0.2345
16990TIP3   OH272460   5.306   5.106  10.665 -0.2388  0.0823 -0.1478
16990TIP3    H172461   5.269   5.018  10.672  0.1217 -0.2101 -1.6596
16990TIP3    H272462   5.384   5.104  10.720 -1.5381  0.2131  1.7661
16991TIP3   OH272463   1.591   3.369   1.120 -0.0541 -0.4302 -0.3863
16991TIP3    H172464   1.559   3.334   1.037  1.9913 -0.3965 -1.2330
16991TIP3    H272465   1.643   3.446   1.095  1.6453 -1.1635  0.7889
16992TIP3   OH272466   5.176   1.977   4.093  0.4728  0.2823 -0.3526
16992TIP3    H172467   5.116   2.031   4.144  0.4265 -0.0483 -0.0539
16992TIP3    H272468   5.214   2.037   4.029  0.2964  0.6302 -0.1305
16993TIP3   OH272469   2.878   2.176   3.500 -0.0371  0.1581 -0.1786
16993TIP3    H172470   2.797   2.218   3.471  0.7168  1.8610  0.1141
16993TIP3    H272471   2.924   2.155   3.419  0.5427  1.8472 -0.3031
16994TIP3   OH272472   3.516   6.654  17.042 -0.2413 -0.0108  0.2061
16994TIP3    H172473   3.486   6.742  17.017 -0.4943 -0.3576 -0.7052
16994TIP3    H272474   3.504   6.652  17.137 -1.4989  0.4773  0.0728
16995TIP3   OH272475   1.766   4.161  13.171  1.1425  0.8999  0.2215
16995TIP3    H172476   1.670   4.159  13.170  1.1093  0.7564 -4.1108
16995TIP3    H272477   1.788   4.241  13.219 -1.1584  1.7881 -0.1770
16996TIP3   OH272478   1.646   2.598  13.998  0.1274  0.1545  0.3635
16996TIP3    H172479   1.644   2.678  13.945 -2.5065 -1.1304 -1.5771
16996TIP3    H272480   1.738   2.573  13.999  0.5027  1.2906 -2.0090
16997TIP3   OH272481   2.804   1.288  16.621 -0.2827  0.2847 -0.2041
16997TIP3    H172482   2.821   1.206  16.668 -1.7503 -1.5713 -2.7702
16997TIP3    H272483   2.828   1.268  16.531 -1.4707  2.4406 -1.0091
16998TIP3   OH272484   2.815   2.272   3.835 -0.0026  0.0344 -0.2458
16998TIP3    H172485   2.869   2.338   3.792 -0.6306 -0.1163 -1.2896
16998TIP3    H272486   2.854   2.189   3.810 -0.6958 -0.0729 -0.9674
16999TIP3   OH272487   2.326   1.266  14.052 -0.0685  0.0947  0.1477
16999TIP3    H172488   2.410   1.241  14.013 -0.7735 -0.0535 -1.2860
16999TIP3    H272489   2.277   1.184  14.057 -1.0839  0.5926 -1.3792
17000TIP3   OH272490   0.700   4.036  15.503 -0.0702 -0.7712  0.0423
17000TIP3    H172491   0.787   4.007  15.531  0.3110 -1.0590 -1.3902
17000TIP3    H272492   0.654   3.954  15.483  0.0543 -0.5325 -1.2606
17001TIP3   OH272493   5.644   3.348  11.766 -0.2237 -0.2404  0.0249
17001TIP3    H172494   5.595   3.272  11.733 -0.3617 -0.7476  1.3865
17001TIP3    H272495   5.718   3.356  11.705  0.0793 -1.7826  0.1669
17002TIP3   OH272496   2.303   2.320  13.087  0.2121 -0.1015 -0.0498
17002TIP3    H172497   2.316   2.334  13.181 -2.2235 -0.8905  0.4625
17002TIP3    H272498   2.297   2.225  13.078 -0.6674  0.0204 -0.8256
17003TIP3   OH272499   4.471   3.032  16.031 -0.0370  0.1446  0.1287
17003TIP3    H172500   4.414   3.106  16.012 -0.3488  0.5389  2.3944
17003TIP3    H272501   4.418   2.955  16.011 -0.4838  0.5298 -0.1792
17004TIP3   OH272502   1.027   1.319  10.891  0.0845  0.0024 -0.4531
17004TIP3    H172503   0.945   1.365  10.874  0.4927  0.9690  0.1734
17004TIP3    H272504   1.095   1.381  10.866  0.6395 -0.4642 -0.1170
17005TIP3   OH272505   0.708   5.453  11.167 -0.4774  0.1759  0.3588
17005TIP3    H172506   0.774   5.424  11.230 -1.0761 -0.2705  0.7850
17005TIP3    H272507   0.667   5.372  11.137  0.0680  0.3641 -0.8952
17006TIP3   OH272508   2.892   0.036  12.708  0.3083  0.0161 -0.2825
17006TIP3    H172509   2.829   0.103  12.735  0.7646  0.3066  0.0738
17006TIP3    H272510   2.977   0.072  12.733  0.4815 -1.1774  0.9548
17007TIP3   OH272511   4.660   1.374  15.888  0.0896  0.1327 -0.0794
17007TIP3    H172512   4.707   1.452  15.857  1.1548 -0.1041  0.9288
17007TIP3    H272513   4.583   1.409  15.932  1.2758  0.7008  1.5976
17008TIP3   OH272514   6.391   2.851   2.557  0.5688  0.3747 -0.3356
17008TIP3    H172515   6.438   2.928   2.525  0.5329  0.6785  0.3304
17008TIP3    H272516   6.441   2.823   2.634  0.4648 -0.1467 -0.4546
17009TIP3   OH272517   0.672   5.609   2.806  0.2595 -0.0949  0.1004
17009TIP3    H172518   0.672   5.540   2.872  0.7920 -0.0648  0.1333
17009TIP3    H272519   0.752   5.595   2.756  0.6736  0.8514  0.4838
17010TIP3   OH272520   5.878   0.996  14.964 -0.9167 -0.3289 -0.5514
17010TIP3    H172521   5.822   1.022  15.037 -1.9903 -2.1172 -0.7039
17010TIP3    H272522   5.854   1.054  14.893 -4.0780 -2.3581 -1.2353
17011TIP3   OH272523   1.217   3.809  16.841  0.0293 -0.1388  0.1882
17011TIP3    H172524   1.190   3.773  16.925 -1.1663 -0.2105 -0.2269
17011TIP3    H272525   1.309   3.785  16.833 -0.0315 -0.6980  1.1743
17012TIP3   OH272526   5.133   3.630   3.840 -0.1858  0.2581  0.1396
17012TIP3    H172527   5.202   3.691   3.867  2.9608 -3.1090  0.0329
17012TIP3    H272528   5.072   3.629   3.913  0.0888  2.9019  0.4734
17013TIP3   OH272529   0.041   2.997  12.312  0.0066  0.6942 -0.1445
17013TIP3    H172530   0.045   3.075  12.368  0.1005  2.7073 -2.8320
17013TIP3    H272531   0.037   3.032  12.223 -0.4888 -2.4028 -1.3968
17014TIP3   OH272532   5.988   4.784  12.622 -0.4059  0.2090  0.7170
17014TIP3    H172533   6.007   4.748  12.535 -0.8497 -0.5994  0.9471
17014TIP3    H272534   5.985   4.707  12.679  0.5985  0.8089  1.5814
17015TIP3   OH272535   1.760   2.683  14.538  0.0578 -0.4886  0.1710
17015TIP3    H172536   1.756   2.775  14.564 -3.4515 -0.2093 -1.0664
17015TIP3    H272537   1.731   2.682  14.447 -2.0255 -2.9886  0.7848
17016TIP3   OH272538   4.915   3.844   5.837  0.2936 -0.3056 -0.1663
17016TIP3    H172539   4.914   3.831   5.932  0.6653 -1.7753 -0.3521
17016TIP3    H272540   5.007   3.840   5.813  0.3365  1.6655 -0.3980
17017TIP3   OH272541   4.821   1.376   3.115 -0.3763  0.4649  0.0733
17017TIP3    H172542   4.830   1.415   3.028  0.8045  0.0659  0.0017
17017TIP3    H272543   4.762   1.435   3.162  1.1774  2.2243 -0.1115
17018TIP3   OH272544   2.022   5.990  12.928  0.2261 -0.4471 -0.2442
17018TIP3    H172545   2.085   6.009  12.997  0.2109 -0.1050 -0.3267
17018TIP3    H272546   2.075   5.957  12.855  0.0417 -2.9550  0.7048
17019TIP3   OH272547   0.224   6.062  10.762  0.2055 -0.4421  0.1628
17019TIP3    H172548   0.204   6.121  10.690  0.7588 -2.1013 -1.3816
17019TIP3    H272549   0.140   6.025  10.789 -0.2539  1.6294  1.6934
17020TIP3   OH272550   4.988   5.296   0.080  0.2939  0.3511  0.2986
17020TIP3    H172551   4.896   5.293   0.056  0.1868  2.1564  0.3929
17020TIP3    H272552   4.993   5.366   0.145  2.1092  1.8314 -1.4048
17021TIP3   OH272553   4.809   5.087   4.391  0.3630 -0.5110 -0.3363
17021TIP3    H172554   4.765   5.007   4.364 -1.8207  0.1362  1.1523
17021TIP3    H272555   4.750   5.158   4.363  2.4767  0.6364 -2.0628
17022TIP3   OH272556   4.357   4.204   2.919 -0.2372  0.6374  0.2728
17022TIP3    H172557   4.436   4.248   2.952 -0.6031  0.5458  1.2967
17022TIP3    H272558   4.320   4.162   2.996 -1.3777  0.8180 -0.1700
17023TIP3   OH272559   5.927   2.102   4.597 -0.3203 -0.1560 -0.3477
17023TIP3    H172560   6.014   2.110   4.637  0.5460 -0.2376 -2.1314
17023TIP3    H272561   5.884   2.033   4.647  0.8522 -0.5037  0.2152
17024TIP3   OH272562   0.665   0.387  12.722 -0.4414  0.7498  0.0503
17024TIP3    H172563   0.651   0.423  12.810  0.1656  2.7189 -0.6295
17024TIP3    H272564   0.642   0.294  12.730  0.9648  0.5753  2.6430
17025TIP3   OH272565   4.772   3.048   4.676 -0.2054  0.3232  0.6256
17025TIP3    H172566   4.741   2.964   4.642  1.8908 -0.2647  0.1200
17025TIP3    H272567   4.794   3.029   4.767 -0.1391  0.4458  0.6344
17026TIP3   OH272568   2.721   0.573   4.741  0.0452 -0.7798 -0.1107
17026TIP3    H172569   2.786   0.572   4.810  1.7531  2.7937 -1.5379
17026TIP3    H272570   2.751   0.508   4.678 -1.1562 -3.5521  2.0889
17027TIP3   OH272571   0.914   1.643   2.071  0.3681  0.7489  0.3199
17027TIP3    H172572   0.943   1.553   2.078  0.7872  0.7296 -1.3246
17027TIP3    H272573   0.858   1.644   1.993 -1.0395  1.5468  1.3322
17028TIP3   OH272574   5.275   5.518   2.749 -1.0326 -0.0364 -0.2248
17028TIP3    H172575   5.343   5.579   2.720  0.7299 -1.3104  1.1337
17028TIP3    H272576   5.195   5.570   2.749  0.1636  1.8669 -0.5558
17029TIP3   OH272577   4.063   5.821  16.143 -0.0291  0.0826  0.1047
17029TIP3    H172578   4.125   5.769  16.195 -1.7114 -1.5442  0.5242
17029TIP3    H272579   3.977   5.783  16.162 -1.0477  1.5709 -1.3512
17030TIP3   OH272580   1.005   5.883  12.972  0.0359  0.4035 -0.7981
17030TIP3    H172581   1.029   5.829  13.047 -0.5822  0.6369 -0.4194
17030TIP3    H272582   0.959   5.958  13.011  0.0399  0.7135 -1.3845
17031TIP3   OH272583   0.384   0.517   1.768 -0.6664  0.5221 -0.0190
17031TIP3    H172584   0.414   0.447   1.827  0.2365  1.2569  0.4203
17031TIP3    H272585   0.304   0.483   1.729 -0.6869 -0.4269  0.8134
17032TIP3   OH272586   4.421   0.092   3.006 -0.0416 -0.2103  0.0909
17032TIP3    H172587   4.331   0.071   2.981 -0.7492  0.4938  1.9471
17032TIP3    H272588   4.456   0.140   2.931 -2.1046  1.8918  0.4176
17033TIP3   OH272589   5.301   3.352   5.073 -0.1286  0.4725 -0.4780
17033TIP3    H172590   5.311   3.323   5.164 -3.5940  0.6361  0.0198
17033TIP3    H272591   5.273   3.444   5.081 -1.5728  0.1496 -1.6425
17034TIP3   OH272592   1.513   2.107  14.348 -0.1546 -0.2144 -0.5964
17034TIP3    H172593   1.607   2.091  14.353 -0.0343  0.3613 -0.9068
17034TIP3    H272594   1.506   2.196  14.314 -0.8086 -0.1139 -0.2181
17035TIP3   OH272595   1.228   4.372   4.739 -0.0078 -0.2321  0.3734
17035TIP3    H172596   1.292   4.432   4.777 -0.3282  0.4737 -0.1705
17035TIP3    H272597   1.263   4.285   4.756 -0.6709  0.0061  3.2438
17036TIP3   OH272598   3.442   6.449  11.595 -0.2683  0.2764  0.3827
17036TIP3    H172599   3.463   6.542  11.593  1.4072 -0.0623  1.4568
17036TIP3    H272600   3.485   6.413  11.517 -1.5379  0.5064 -0.4425
17037TIP3   OH272601   1.476   5.474  13.271  0.1347  0.0110 -0.1342
17037TIP3    H172602   1.446   5.446  13.184  1.8623 -1.6137 -0.2552
17037TIP3    H272603   1.423   5.423  13.332  1.1273 -1.2640 -0.3114
17038TIP3   OH272604   4.014   4.136   4.801 -0.3801  0.2934 -0.2346
17038TIP3    H172605   4.033   4.138   4.895  0.6786 -1.7082 -0.3798
17038TIP3    H272606   4.096   4.163   4.759 -0.0093 -1.4136 -0.6478
17039TIP3   OH272607   1.842   0.124   3.128 -0.6892 -0.1508  0.1365
17039TIP3    H172608   1.780   0.160   3.065  0.4650  1.2493 -0.2192
17039TIP3    H272609   1.928   0.149   3.095  0.0720 -1.9655  0.6975
17040TIP3   OH272610   4.605   3.034   1.337 -0.0417  0.2888 -0.9310
17040TIP3    H172611   4.594   2.969   1.268  1.8958  1.6487 -2.5500
17040TIP3    H272612   4.523   3.029   1.387 -0.6018 -2.2027 -2.0111
17041TIP3   OH272613   2.397   3.826   0.130 -0.3599 -0.8727  0.4325
17041TIP3    H172614   2.475   3.840   0.076 -2.0125  2.3820 -1.2723
17041TIP3    H272615   2.395   3.903   0.188 -2.0653 -1.1414  0.7404
17042TIP3   OH272616   1.361   1.683  16.956  0.2234 -0.1957  0.5962
17042TIP3    H172617   1.337   1.744  16.886 -1.8430 -1.8296 -0.1595
17042TIP3    H272618   1.457   1.682  16.954  0.2725  1.9983 -0.2418
17043TIP3   OH272619   3.797   2.199  14.110  0.1570  0.7519  0.1725
17043TIP3    H172620   3.826   2.108  14.113 -0.4235  0.5308 -0.6486
17043TIP3    H272621   3.838   2.235  14.031  2.0090  1.7798  1.5787
17044TIP3   OH272622   3.347   6.063  13.063  0.3856  0.2692 -0.3345
17044TIP3    H172623   3.434   6.037  13.091 -0.0316  0.9260  1.7079
17044TIP3    H272624   3.355   6.157  13.045  0.4962 -0.0220 -1.8158
17045TIP3   OH272625   4.678   5.144   2.710  0.2713 -0.2769  0.0710
17045TIP3    H172626   4.598   5.102   2.678 -0.3701 -1.4421  3.0707
17045TIP3    H272627   4.748   5.102   2.660 -0.8724  0.1188 -1.9522
17046TIP3   OH272628   1.977   5.649   1.657 -0.2039  0.6019 -0.0161
17046TIP3    H172629   1.985   5.553   1.653  3.3297  0.7749  1.0080
17046TIP3    H272630   1.985   5.677   1.565  0.5326  0.0022 -0.1425
17047TIP3   OH272631   2.364   4.375  15.393 -0.6254 -0.1364  0.6432
17047TIP3    H172632   2.421   4.355  15.319 -1.5270 -0.7447  0.1109
17047TIP3    H272633   2.407   4.449  15.437  0.7615 -0.8197  0.4646
17048TIP3   OH272634   1.702   4.950  17.244  0.4686 -0.1013 -0.2863
17048TIP3    H172635   1.663   4.988  17.166  0.6527 -0.2947 -0.4711
17048TIP3    H272636   1.664   4.862  17.250  3.4642 -1.5969 -2.3945
17049TIP3   OH272637   5.489   6.567   1.021 -0.3477  0.2813  0.3539
17049TIP3    H172638   5.560   6.602   1.075 -0.4249  1.2815 -0.1717
17049TIP3    H272639   5.533   6.534   0.943 -0.0692 -2.6056  1.6883
17050TIP3   OH272640   2.934   3.174  15.988 -0.7063  0.3194 -0.1130
17050TIP3    H172641   2.912   3.105  15.926  0.7299  0.8801 -1.2883
17050TIP3    H272642   2.991   3.233  15.939 -1.5956  2.1368  0.9871
17051TIP3   OH272643   6.469   2.848  16.123 -0.7450  0.5491  0.7854
17051TIP3    H172644   6.518   2.773  16.089 -3.0915 -0.0635 -1.4017
17051TIP3    H272645   6.528   2.923  16.111  0.0861 -0.3312 -0.7693
17052TIP3   OH272646   6.702   5.641   1.721 -0.2166  0.0292  0.0810
17052TIP3    H172647   6.719   5.717   1.776 -2.2202  1.2978 -1.0102
17052TIP3    H272648   6.663   5.577   1.781 -2.0324  1.2671  0.2709
17053TIP3   OH272649   4.472   0.429   0.413 -0.1390 -0.1937 -0.4680
17053TIP3    H172650   4.415   0.503   0.432  0.9217  0.4290  0.3698
17053TIP3    H272651   4.434   0.355   0.460  0.6378  0.5929  1.4591
17054TIP3   OH272652   2.125   4.835   3.394  0.7247 -0.5791  0.1649
17054TIP3    H172653   2.155   4.757   3.347 -0.2975 -1.8882  1.6367
17054TIP3    H272654   2.143   4.816   3.486 -2.3637 -0.4444  0.8743
17055TIP3   OH272655   1.591   2.238  15.921 -0.4072  0.4862  0.3609
17055TIP3    H172656   1.526   2.296  15.962 -0.5210  0.5243  0.1271
17055TIP3    H272657   1.589   2.159  15.974  0.6484  1.1689  1.4347
17056TIP3   OH272658   6.188   5.385   6.412 -0.0057 -0.3260 -0.1871
17056TIP3    H172659   6.249   5.313   6.426  0.4921  0.4915  2.0114
17056TIP3    H272660   6.242   5.464   6.421 -0.6377  0.3577 -2.0734
17057TIP3   OH272661   0.344   5.059   3.022  0.2025  0.0627 -0.5992
17057TIP3    H172662   0.352   5.094   3.111 -1.3580  2.2545 -1.2776
17057TIP3    H272663   0.418   4.999   3.014  1.8166  1.6719  1.3449
17058TIP3   OH272664   4.872   3.807   3.152  0.0217 -0.0530  0.2578
17058TIP3    H172665   4.800   3.789   3.092  1.6635 -2.0078 -1.1420
17058TIP3    H272666   4.874   3.732   3.211  0.9604 -0.0277  0.2624
17059TIP3   OH272667   2.599   2.371  12.356 -0.1837 -0.4857  0.3030
17059TIP3    H172668   2.686   2.334  12.363  0.1924  0.5154  1.0750
17059TIP3    H272669   2.556   2.348  12.438 -0.0697  0.4302  0.6350
17060TIP3   OH272670   0.621   1.665  15.093 -0.5857  0.5931 -0.0143
17060TIP3    H172671   0.637   1.752  15.056 -1.0989 -0.0039 -1.6452
17060TIP3    H272672   0.702   1.644  15.139  0.6902  0.6232 -2.2168
17061TIP3   OH272673   3.428   2.513   5.900 -0.0116 -0.0510  0.4405
17061TIP3    H172674   3.335   2.536   5.889 -0.0775 -0.5418 -0.0354
17061TIP3    H272675   3.429   2.456   5.977 -0.2693 -1.0496 -0.2933
17062TIP3   OH272676   2.299   1.398   5.063  0.1052 -0.0048 -0.2635
17062TIP3    H172677   2.353   1.351   4.999  0.8795 -0.1989  0.5207
17062TIP3    H272678   2.225   1.340   5.080 -0.9344  0.7310 -2.1619
17063TIP3   OH272679   6.270   1.559  16.310 -0.0240  0.3540 -0.5987
17063TIP3    H172680   6.300   1.650  16.301 -0.1841  0.2773 -1.9776
17063TIP3    H272681   6.350   1.508  16.322  0.1094  0.6062 -0.4113
17064TIP3   OH272682   5.718   1.412  14.946 -0.1980 -0.1818  0.2548
17064TIP3    H172683   5.624   1.426  14.932 -0.6904 -1.6544  2.0123
17064TIP3    H272684   5.753   1.500  14.956 -1.2182  0.4465 -1.3182
17065TIP3   OH272685   2.015   3.191   2.760  0.2221  0.4386  0.3770
17065TIP3    H172686   1.943   3.177   2.821 -1.4508  1.8580 -1.2081
17065TIP3    H272687   2.007   3.119   2.697  0.8550 -0.0139  0.8108
17066TIP3   OH272688   4.675   1.728   0.239  0.5804 -0.1650 -0.0375
17066TIP3    H172689   4.673   1.693   0.150 -2.3770  1.5575 -0.7190
17066TIP3    H272690   4.631   1.661   0.292  1.2133 -0.6263 -0.0955
17067TIP3   OH272691   5.784   2.244  11.414  0.3146  0.1430 -0.5917
17067TIP3    H172692   5.725   2.191  11.468  0.3384  0.3643 -0.3458
17067TIP3    H272693   5.764   2.219  11.324  0.2958 -0.2540 -0.4804
17068TIP3   OH272694   6.040   1.074  11.118 -0.6799 -0.0211  0.0432
17068TIP3    H172695   6.055   1.133  11.045  1.7037 -2.1201 -1.2413
17068TIP3    H272696   6.009   0.993  11.078 -2.7742 -0.0829  1.6812
17069TIP3   OH272697   4.783   0.855   5.095  0.1779  0.1029  0.1947
17069TIP3    H172698   4.715   0.920   5.079  0.2213  0.5413  1.7338
17069TIP3    H272699   4.804   0.864   5.188  1.5393 -0.7997 -0.0096
17070TIP3   OH272700   0.694   2.206  11.736  0.0004 -0.3722 -0.1921
17070TIP3    H172701   0.711   2.282  11.793  0.3479 -0.4848 -0.1449
17070TIP3    H272702   0.697   2.131  11.795 -2.8940 -0.2091  0.2190
17071TIP3   OH272703   6.022   3.916  13.925 -0.3148 -0.4781  0.5197
17071TIP3    H172704   6.041   3.823  13.917  2.0299 -0.1378  1.8170
17071TIP3    H272705   6.107   3.958  13.930 -1.3531  1.6904  0.5889
17072TIP3   OH272706   0.336   5.274   3.968 -0.2894 -0.2470 -0.4260
17072TIP3    H172707   0.331   5.226   3.885 -1.0007 -3.7347  1.5417
17072TIP3    H272708   0.256   5.326   3.970  0.4511  1.0687 -2.5684
17073TIP3   OH272709   0.021   4.810  11.449 -0.8296  0.5161  0.4036
17073TIP3    H172710   0.039   4.904  11.452 -0.5234  0.4795 -0.2589
17073TIP3    H272711  -0.041   4.800  11.377 -0.0842  0.0914 -0.1834
17074TIP3   OH272712   1.242   5.844   4.235 -0.9294 -0.1062 -0.3047
17074TIP3    H172713   1.200   5.773   4.187  1.0021 -1.5250  0.0252
17074TIP3    H272714   1.238   5.817   4.327  1.9078 -0.9812 -0.3875
17075TIP3   OH272715   2.936   5.091  13.177 -0.0197 -0.3598 -0.2372
17075TIP3    H172716   2.879   5.150  13.127  0.4223 -0.7291 -1.1917
17075TIP3    H272717   2.945   5.133  13.262 -0.6910  0.3413 -0.5040
17076TIP3   OH272718   5.497   6.779   1.335  0.1122  0.3518 -0.1492
17076TIP3    H172719   5.527   6.866   1.362 -0.1828  0.6374 -0.7198
17076TIP3    H272720   5.431   6.797   1.267 -0.2836 -0.3026  0.0599
17077TIP3   OH272721   0.615   5.273   1.676 -0.4422  0.6837 -0.0146
17077TIP3    H172722   0.694   5.327   1.669  0.8363 -1.1396 -0.1472
17077TIP3    H272723   0.543   5.334   1.665  0.9564  2.3881  0.0396
17078TIP3   OH272724   3.562   5.341  16.526 -0.2165 -0.0283  0.5280
17078TIP3    H172725   3.536   5.333  16.618  0.1158  1.2998  0.7391
17078TIP3    H272726   3.656   5.355  16.529 -0.7254  3.8391  0.1894
17079TIP3   OH272727   5.490   0.584  12.485 -0.6894  0.6010 -0.6175
17079TIP3    H172728   5.440   0.596  12.566  0.4000  2.1287 -0.1306
17079TIP3    H272729   5.445   0.514  12.439 -0.0210 -1.8837  2.3403
17080TIP3   OH272730   5.432   6.254  12.693  0.7930  0.3766  0.6093
17080TIP3    H172731   5.409   6.265  12.601 -1.2918  0.5229  1.1268
17080TIP3    H272732   5.350   6.228  12.735  1.9383 -0.5977  2.2664
17081TIP3   OH272733   5.017   5.133  13.472  0.2622  0.6162 -0.1441
17081TIP3    H172734   5.052   5.214  13.508 -0.9187  0.5445  1.2161
17081TIP3    H272735   4.924   5.151  13.460 -0.1941 -0.8414  1.0914
17082TIP3   OH272736   5.000   3.676  16.864 -0.4966  0.2419  0.3104
17082TIP3    H172737   5.071   3.720  16.911 -2.1066  1.6257  1.5145
17082TIP3    H272738   5.043   3.603  16.819  1.7911  1.4639  0.4349
17083TIP3   OH272739   5.313   5.465   0.445  0.5856  0.1429 -0.4963
17083TIP3    H172740   5.378   5.424   0.502 -0.8917 -0.2288  0.9703
17083TIP3    H272741   5.279   5.538   0.496 -1.4803 -0.8059 -0.4645
17084TIP3   OH272742   5.751   3.804   3.971  0.2190 -0.3231 -0.1853
17084TIP3    H172743   5.661   3.775   3.952 -0.5622  2.1233 -0.4259
17084TIP3    H272744   5.755   3.810   4.066  0.6127 -1.8112 -0.0876
17085TIP3   OH272745   0.905   5.122  14.306 -0.5143 -0.0166 -0.8390
17085TIP3    H172746   0.959   5.066  14.362 -0.5610  0.8273  0.0583
17085TIP3    H272747   0.815   5.098  14.329 -0.5541  1.3277  0.4974
17086TIP3   OH272748   3.546   6.077  12.662 -0.9426 -0.0518  0.0587
17086TIP3    H172749   3.552   6.027  12.743  0.8590 -0.0100 -0.0275
17086TIP3    H272750   3.602   6.153  12.676  0.3453 -0.6385 -1.6172
17087TIP3   OH272751   6.516   5.013  16.039 -0.3497 -0.6082 -0.3651
17087TIP3    H172752   6.492   5.083  15.978 -1.7130  0.6259  1.5350
17087TIP3    H272753   6.455   5.023  16.112  2.2954 -0.9827  1.9763
17088TIP3   OH272754   4.860   5.140  17.144 -0.4907  0.2999  0.4968
17088TIP3    H172755   4.802   5.161  17.218 -0.1755  0.9028  0.5689
17088TIP3    H272756   4.866   5.221  17.094  0.5590  0.3318  0.6702
17089TIP3   OH272757   0.165   6.133   2.808 -0.0936 -0.2149  0.2096
17089TIP3    H172758   0.080   6.122   2.852 -0.7284  0.8036 -0.7351
17089TIP3    H272759   0.215   6.191   2.865 -0.0968 -0.6696  0.6772
17090TIP3   OH272760   2.013   2.446  15.908 -0.4164  0.1013  0.0920
17090TIP3    H172761   2.104   2.474  15.898 -0.3122 -0.1229  0.3968
17090TIP3    H272762   2.001   2.438  16.003 -0.5365 -0.6038  0.0150
17091TIP3   OH272763   1.530   5.170   5.112 -0.2196 -0.3578  0.4964
17091TIP3    H172764   1.549   5.155   5.205 -1.0613 -1.4218  0.5062
17091TIP3    H272765   1.460   5.108   5.091  1.4446 -1.6683 -1.3835
17092TIP3   OH272766   2.020   6.263   0.791  0.0687  0.1461  0.0877
17092TIP3    H172767   2.069   6.231   0.715  0.2331  0.5354  0.0233
17092TIP3    H272768   1.966   6.334   0.756  1.1369  1.2172  0.5723
17093TIP3   OH272769   3.034   6.804  17.178  0.8663 -0.4854 -0.4737
17093TIP3    H172770   3.033   6.775  17.269  1.8605  0.3753 -0.1747
17093TIP3    H272771   2.959   6.761  17.138  0.7558 -1.3241  0.6142
17094TIP3   OH272772   0.994   3.487   3.875  0.3244 -0.4451  0.7571
17094TIP3    H172773   0.985   3.394   3.854 -0.3417 -0.5024  1.2577
17094TIP3    H272774   1.041   3.488   3.958  0.6943 -0.3201  0.5455
17095TIP3   OH272775   1.886   5.855  15.455  0.0808 -0.3187  0.1860
17095TIP3    H172776   1.797   5.835  15.485  0.4064 -1.7401  0.2215
17095TIP3    H272777   1.902   5.944  15.486 -0.0864 -1.2489  3.1041
17096TIP3   OH272778   5.575   2.403   4.902  0.2819  0.4820  0.1461
17096TIP3    H172779   5.626   2.464   4.955 -1.0748 -0.0195  2.0816
17096TIP3    H272780   5.609   2.317   4.925  1.1383  0.3773 -1.4260
17097TIP3   OH272781   5.981   3.717  11.756  0.4642  0.0894  0.1537
17097TIP3    H172782   5.898   3.682  11.790  0.4536  0.8555  0.9195
17097TIP3    H272783   6.011   3.779  11.823  0.4456  1.6271 -1.2265
17098TIP3   OH272784   0.949   2.233  11.436 -0.8339  0.3040  0.4483
17098TIP3    H172785   0.911   2.178  11.368 -0.7653 -0.4613  1.0151
17098TIP3    H272786   0.901   2.316  11.431 -0.4805  0.4354 -0.8595
17099TIP3   OH272787   5.470   1.919   0.217  0.4992 -0.2775 -0.0291
17099TIP3    H172788   5.502   1.994   0.166  0.5896 -0.4006 -0.1537
17099TIP3    H272789   5.545   1.860   0.221  0.6111 -0.0997  0.5710
17100TIP3   OH272790   5.457   6.457  12.039  0.3240  0.6178 -1.0342
17100TIP3    H172791   5.441   6.391  11.972  0.5139  0.2736 -0.7460
17100TIP3    H272792   5.544   6.436  12.073 -0.2823  0.0351  0.1763
17101TIP3   OH272793   4.894   2.052  15.976 -0.3451 -0.3465 -0.3637
17101TIP3    H172794   4.838   1.990  15.930 -0.9800  0.8224 -1.1893
17101TIP3    H272795   4.859   2.054  16.065  0.8253 -2.5319  0.2085
17102TIP3   OH272796   4.759   1.388   4.463 -0.2980 -0.3256 -0.2636
17102TIP3    H172797   4.685   1.383   4.524 -1.8189  2.1701 -1.8198
17102TIP3    H272798   4.723   1.358   4.379  0.8244 -0.3649 -0.7355
17103TIP3   OH272799   4.803   2.193  10.469 -0.4146 -1.0854 -0.3918
17103TIP3    H172800   4.795   2.236  10.554  1.6370 -2.8892  0.7885
17103TIP3    H272801   4.850   2.255  10.414 -0.2837 -0.5623  0.3123
17104TIP3   OH272802   3.348   0.187  14.118 -0.0671  0.2217  0.2454
17104TIP3    H172803   3.358   0.230  14.033 -0.4482  1.3944  0.7831
17104TIP3    H272804   3.434   0.150  14.137 -0.4494 -1.5890 -1.4607
17105TIP3   OH272805   0.943   3.002   5.438  0.2247 -0.0922  0.4131
17105TIP3    H172806   0.904   2.939   5.498  0.0930  0.4087  0.8582
17105TIP3    H272807   1.014   3.042   5.488  2.8943 -2.6991 -1.1679
17106TIP3   OH272808   1.251   6.294   5.536 -0.4611 -0.7593 -0.3494
17106TIP3    H172809   1.284   6.363   5.479  0.2778 -0.1072  0.8442
17106TIP3    H272810   1.327   6.236   5.550 -0.9612 -1.5723 -1.0012
17107TIP3   OH272811   2.107   3.673  14.918 -0.1663 -0.3272 -0.2434
17107TIP3    H172812   2.092   3.597  14.974  1.4001 -0.1388  0.4597
17107TIP3    H272813   2.200   3.670  14.898 -0.2862  0.8526 -1.0400
17108TIP3   OH272814   5.279   4.790  14.557 -0.0987  0.2214  0.8630
17108TIP3    H172815   5.190   4.797  14.590 -0.1578  1.4007  0.4973
17108TIP3    H272816   5.312   4.707  14.592 -1.3535 -0.2458  0.9411
17109TIP3   OH272817   5.386   1.204   5.044 -0.0536 -0.7354 -0.0306
17109TIP3    H172818   5.427   1.278   5.001  0.8183 -0.6810  0.8611
17109TIP3    H272819   5.294   1.208   5.018 -0.2303  1.2371  0.8032
17110TIP3   OH272820   6.432   4.554   3.351  0.1228 -0.1311 -0.0124
17110TIP3    H172821   6.528   4.554   3.344 -0.0109  1.3890 -2.6754
17110TIP3    H272822   6.411   4.471   3.394  2.5975 -0.7408  0.1148
17111TIP3   OH272823   5.037   0.417  13.196  0.2709 -0.4574  0.7123
17111TIP3    H172824   5.130   0.421  13.221  0.5247 -1.5892 -0.0137
17111TIP3    H272825   5.036   0.445  13.104 -0.4194  1.8721  1.4053
17112TIP3   OH272826   3.074   3.200   5.068 -0.4025 -0.2332  0.0027
17112TIP3    H172827   3.134   3.221   4.997 -0.9852 -0.3318 -0.5281
17112TIP3    H272828   3.010   3.272   5.068  0.4611  0.5491  1.4105
17113TIP3   OH272829   6.218   5.212   4.549  0.3993 -0.0532  0.3374
17113TIP3    H172830   6.144   5.161   4.515  0.2595  0.5976 -0.3565
17113TIP3    H272831   6.291   5.150   4.552  0.3382 -0.1986 -0.8812
17114TIP3   OH272832   1.417   6.387   3.778  0.4622  0.2826  0.2042
17114TIP3    H172833   1.492   6.428   3.823  0.0258  0.6023  0.6433
17114TIP3    H272834   1.374   6.336   3.846  0.8099 -0.6523 -0.2672
17115TIP3   OH272835   2.954   0.064   3.584 -0.3946 -0.5578  0.1602
17115TIP3    H172836   3.009   0.086   3.659  2.1756 -1.5508 -1.3431
17115TIP3    H272837   2.919  -0.023   3.605 -2.1928  0.4881  1.5495
17116TIP3   OH272838   5.948   2.509   5.564 -0.2759 -0.1959  0.8679
17116TIP3    H172839   5.925   2.416   5.568  0.5982 -0.3781  2.0907
17116TIP3    H272840   5.875   2.553   5.608 -0.6515 -0.3090  0.3630
17117TIP3   OH272841   4.899   1.378   2.438  0.4944 -0.0742 -0.5079
17117TIP3    H172842   4.909   1.457   2.384  0.1532  0.0931 -0.3310
17117TIP3    H272843   4.908   1.305   2.377 -1.2245  0.1316 -1.0152
17118TIP3   OH272844   6.320   6.327   5.969 -0.2844 -0.3664  0.1880
17118TIP3    H172845   6.265   6.327   6.047  0.7047 -0.7101  0.9065
17118TIP3    H272846   6.409   6.338   6.003  0.2587 -1.5648 -0.8156
17119TIP3   OH272847   2.414   2.721  11.515 -0.3397 -0.0865 -0.3175
17119TIP3    H172848   2.348   2.702  11.582 -1.4597 -0.8613 -1.6058
17119TIP3    H272849   2.498   2.707  11.559 -1.0677 -2.0721  0.5105
17120TIP3   OH272850   3.928   5.984  12.988  0.2631 -0.6261  0.2718
17120TIP3    H172851   4.022   5.970  12.995  0.1453 -1.8497 -0.3327
17120TIP3    H272852   3.910   6.061  13.043  1.3174 -1.5852  2.0057
17121TIP3   OH272853   1.042   2.959  11.105 -0.1629  0.0190  0.0976
17121TIP3    H172854   1.021   2.894  11.172  0.2952  0.0597  0.2811
17121TIP3    H272855   1.081   3.032  11.154 -0.4446  0.3326 -0.1356
17122TIP3   OH272856   1.272   2.128   4.330 -0.2397  0.3671  0.4842
17122TIP3    H172857   1.356   2.112   4.288 -0.4197 -0.1106  0.3015
17122TIP3    H272858   1.285   2.100   4.421 -0.4521 -0.5161  0.2474
17123TIP3   OH272859   4.411   2.027   0.979 -0.3936  0.2796 -0.4971
17123TIP3    H172860   4.431   1.978   1.059 -1.3329  3.8903  2.1137
17123TIP3    H272861   4.496   2.057   0.948 -0.2565  1.4005  0.9103
17124TIP3   OH272862   2.854   2.976  13.989 -0.3095  0.1370  0.3352
17124TIP3    H172863   2.803   2.923  13.928 -0.0162  2.0178 -1.6159
17124TIP3    H272864   2.928   2.921  14.015  0.9404  0.1606 -2.9955
17125TIP3   OH272865   1.335   1.490  15.193  0.1902 -0.8248  0.0773
17125TIP3    H172866   1.401   1.544  15.150 -0.5850  0.2680  0.2463
17125TIP3    H272867   1.298   1.437  15.123  0.0646 -0.2177 -0.3181
17126TIP3   OH272868   6.349   3.704  14.231  0.1063  0.4856  0.0163
17126TIP3    H172869   6.254   3.715  14.235 -0.1799 -0.7285 -2.3715
17126TIP3    H272870   6.366   3.625  14.282 -0.2764  0.1966 -0.2982
17127TIP3   OH272871   0.493   4.899  13.929 -0.1620 -0.2544  0.0114
17127TIP3    H172872   0.514   4.906  13.836 -0.3852  1.0776  0.0639
17127TIP3    H272873   0.549   4.963  13.972  0.0052 -0.9271  0.8152
17128TIP3   OH272874   3.413   4.135   5.817  0.3083  0.0818 -0.2199
17128TIP3    H172875   3.461   4.057   5.791  2.3018  1.4026 -0.6755
17128TIP3    H272876   3.357   4.107   5.889  1.2774 -1.6768 -0.1369
17129TIP3   OH272877   6.017   1.628   5.844  0.3248  0.2800 -0.4029
17129TIP3    H172878   6.002   1.574   5.922 -2.7469 -0.2040 -1.2371
17129TIP3    H272879   6.105   1.605   5.815  0.7264 -1.0417  1.7484
17130TIP3   OH272880   0.042   5.832   1.386  0.2180 -0.4066  0.3510
17130TIP3    H172881  -0.052   5.842   1.370  0.5074  0.5604 -0.8356
17130TIP3    H272882   0.055   5.738   1.394 -0.6640 -0.6399 -0.8056
17131TIP3   OH272883   6.005   5.498   3.847  0.1705 -0.2692  0.0993
17131TIP3    H172884   6.048   5.438   3.908 -0.5195 -1.5876 -0.7022
17131TIP3    H272885   6.077   5.549   3.809  0.7445 -0.4695  0.9023
17132TIP3   OH272886   4.221   4.913   2.123  0.9553  0.1382  0.1429
17132TIP3    H172887   4.302   4.950   2.159  0.5650  1.0348  0.0940
17132TIP3    H272888   4.197   4.844   2.185  1.9371 -0.3649 -0.0201
17133TIP3   OH272889   5.158   3.003  13.946  0.5389  0.2628 -0.4534
17133TIP3    H172890   5.178   2.987  13.854  2.4157 -0.7890  0.0996
17133TIP3    H272891   5.088   2.942  13.967  1.2078 -0.6200 -0.7755
17134TIP3   OH272892   1.444   0.855   2.420 -0.4863 -0.5023  0.1042
17134TIP3    H172893   1.459   0.919   2.351  1.6437 -1.5535 -0.4458
17134TIP3    H272894   1.352   0.867   2.444 -1.1053  0.2861 -2.5002
17135TIP3   OH272895   2.284   4.241   3.772  0.3598 -0.2879  0.5113
17135TIP3    H172896   2.335   4.172   3.814 -1.8285 -2.1108  0.3159
17135TIP3    H272897   2.199   4.238   3.818 -0.7362  0.3246 -1.4179
17136TIP3   OH272898   1.813   6.508  14.535 -0.0302  0.2361  0.2020
17136TIP3    H172899   1.796   6.430  14.589  1.1223 -0.6119 -0.6192
17136TIP3    H272900   1.755   6.499  14.460 -0.2475  0.4103  0.3517
17137TIP3   OH272901   6.048   3.793  12.794  0.5119 -0.1408  0.0347
17137TIP3    H172902   5.986   3.726  12.822 -0.7858  1.7377  1.8283
17137TIP3    H272903   6.021   3.816  12.706 -0.8009  0.0131  0.4717
17138TIP3   OH272904   0.347   0.140   6.025  0.2807 -0.1397 -0.0376
17138TIP3    H172905   0.422   0.139   5.967 -0.9198  2.0322 -1.6906
17138TIP3    H272906   0.378   0.183   6.105  0.4007  2.1647 -1.3010
17139TIP3   OH272907   5.743   0.779   5.109 -0.2448 -0.0282  0.7599
17139TIP3    H172908   5.791   0.768   5.027  1.5019  2.1923  1.4490
17139TIP3    H272909   5.781   0.715   5.168 -0.1322 -0.2425  0.4571
17140TIP3   OH272910   2.709   6.434  15.228  0.5668 -0.0285  0.3210
17140TIP3    H172911   2.758   6.353  15.245 -0.0652 -0.8471 -1.6828
17140TIP3    H272912   2.747   6.497  15.289  1.8379 -1.5337  1.1329
17141TIP3   OH272913   1.117   4.920   3.653 -0.6012  0.0657  0.2442
17141TIP3    H172914   1.037   4.972   3.659 -2.1607 -2.3322  1.2631
17141TIP3    H272915   1.117   4.868   3.734  2.1682  0.2401  0.4023
17142TIP3   OH272916   6.575   0.953   4.573 -0.9997  0.4550 -0.1337
17142TIP3    H172917   6.642   1.021   4.583 -1.2405  0.5162  1.2191
17142TIP3    H272918   6.558   0.949   4.479  1.1409  0.1921 -0.5310
17143TIP3   OH272919   2.535   1.052  16.398 -0.2675  0.4631  0.4651
17143TIP3    H172920   2.618   1.097  16.383  0.6913 -0.6716  2.1334
17143TIP3    H272921   2.554   0.991  16.470 -2.0944 -1.0285 -0.2783
17144TIP3   OH272922   0.761   6.590  16.370  0.3183  0.9351  0.5476
17144TIP3    H172923   0.756   6.625  16.281 -0.2740  0.5793  0.4421
17144TIP3    H272924   0.698   6.519  16.371  1.3874 -0.0172  0.8200
17145TIP3   OH272925   3.225   1.920  15.705 -0.2645  0.8637 -0.2605
17145TIP3    H172926   3.177   1.924  15.622  1.6157 -1.4940 -1.5294
17145TIP3    H272927   3.281   1.997  15.704 -0.4185  0.9685 -1.0832
17146TIP3   OH272928   0.016   0.482  15.951  0.2035 -0.0426  0.5026
17146TIP3    H172929  -0.025   0.468  15.865 -0.3701 -0.9964  0.9227
17146TIP3    H272930  -0.029   0.559  15.986  0.3306  0.2571  0.0066
17147TIP3   OH272931   6.592   3.790   2.965 -0.0592  0.1228 -0.3577
17147TIP3    H172932   6.566   3.883   2.967 -1.5389 -0.2857  0.7955
17147TIP3    H272933   6.660   3.783   3.032  0.6584  0.5405 -1.0386
17148TIP3   OH272934   6.574   4.352  13.613  0.2510  0.0590 -0.0175
17148TIP3    H172935   6.544   4.437  13.582 -2.1925 -0.8903 -0.3828
17148TIP3    H272936   6.638   4.323  13.547 -1.0160  0.3543 -1.3928
17149TIP3   OH272937   4.973   3.584   3.334 -0.2312 -0.7296 -0.2996
17149TIP3    H172938   4.981   3.494   3.303  4.0765 -0.9849  1.1593
17149TIP3    H272939   4.999   3.580   3.426 -1.3146  1.7938  0.1564
17150TIP3   OH272940   5.104   2.593  16.075 -0.3220  0.3890 -0.2709
17150TIP3    H172941   5.064   2.518  16.031 -2.5243  0.5714  1.3398
17150TIP3    H272942   5.197   2.586  16.054 -0.4248 -3.0359  0.1345
17151TIP3   OH272943   2.324   3.649  15.941  0.1212  0.1590  0.1054
17151TIP3    H172944   2.388   3.578  15.951  1.5172  1.1997 -1.2008
17151TIP3    H272945   2.244   3.605  15.911  1.1768 -0.7871 -1.3724
17152TIP3   OH272946   1.886   2.439  16.164  0.1696  0.0402  0.5509
17152TIP3    H172947   1.828   2.374  16.205  1.5428 -1.1655  0.6180
17152TIP3    H272948   1.870   2.519  16.213  0.9393 -1.0909  2.7057
17153TIP3   OH272949   4.143   6.758  12.929  0.0281  0.0102 -0.0191
17153TIP3    H172950   4.086   6.821  12.973 -1.1988 -0.6098 -0.7013
17153TIP3    H272951   4.113   6.673  12.959  1.6526 -0.2792  0.8601
17154TIP3   OH272952   6.192   0.593   0.492 -0.3500 -0.0398  0.6671
17154TIP3    H172953   6.253   0.555   0.556  0.2927 -0.1702 -0.0181
17154TIP3    H272954   6.222   0.684   0.483  0.6649 -0.4936 -0.7577
17155TIP3   OH272955   4.160   3.793   5.347 -0.1871  0.5423  0.0634
17155TIP3    H172956   4.170   3.824   5.257 -0.3227  2.1941  0.6057
17155TIP3    H272957   4.074   3.826   5.374  0.3374  1.0349  1.1720
17156TIP3   OH272958   5.433   4.594  14.734  0.0859  0.2247 -0.0581
17156TIP3    H172959   5.490   4.581  14.658  0.2485 -0.9958  0.2699
17156TIP3    H272960   5.493   4.614  14.806  0.2364 -2.5406  0.6230
17157TIP3   OH272961   1.902   4.241   1.587  0.1579  0.1819  0.5334
17157TIP3    H172962   1.970   4.307   1.585 -1.6334  2.0585 -0.3549
17157TIP3    H272963   1.907   4.199   1.501 -0.0811  0.5967  0.3184
17158TIP3   OH272964   5.319   0.463  16.640 -0.2804  0.0813 -0.0050
17158TIP3    H172965   5.227   0.474  16.661 -0.1343 -2.3210  2.0535
17158TIP3    H272966   5.320   0.397  16.571 -0.3054  3.1140 -3.0507
17159TIP3   OH272967   2.636   6.700  13.029  0.3788 -0.4857  0.1860
17159TIP3    H172968   2.651   6.617  13.073 -0.3665 -0.6622  0.1246
17159TIP3    H272969   2.670   6.686  12.940  0.5982 -0.6004  0.2880
17160TIP3   OH272970   6.667   2.475  11.104 -0.3964 -0.2975  0.2270
17160TIP3    H172971   6.641   2.566  11.107 -1.0103 -0.3632 -2.1783
17160TIP3    H272972   6.634   2.443  11.020  0.6679 -2.4592  0.5941
17161TIP3   OH272973   4.145   1.018  15.728  0.3723  0.1921  0.3128
17161TIP3    H172974   4.055   0.986  15.729  0.6617 -0.7826 -1.9681
17161TIP3    H272975   4.177   1.003  15.817 -0.5726 -2.8414  0.1973
17162TIP3   OH272976   2.823   2.285  16.878 -0.1779 -1.1002 -0.5383
17162TIP3    H172977   2.889   2.223  16.909 -0.4170 -1.2104 -0.2559
17162TIP3    H272978   2.750   2.276  16.939  0.2095  0.2111  0.1330
17163TIP3   OH272979   3.449   2.636  14.419 -0.1926  0.2318 -0.6157
17163TIP3    H172980   3.539   2.660  14.442  0.6454  0.0900 -3.5648
17163TIP3    H272981   3.454   2.543  14.398 -1.3666 -0.1304  0.6115
17164TIP3   OH272982   5.993   3.711   3.879 -0.2305  0.6518 -0.0299
17164TIP3    H172983   6.080   3.742   3.906 -0.2915 -0.3364  1.3939
17164TIP3    H272984   5.932   3.775   3.917 -0.1674  0.8189 -0.2119
17165TIP3   OH272985   5.280   5.557   1.265 -0.1778  0.0490  0.2572
17165TIP3    H172986   5.204   5.594   1.219 -0.0619  2.6355  2.0163
17165TIP3    H272987   5.281   5.603   1.349  2.5177 -0.9865  0.8203
17166TIP3   OH272988   0.253   2.394   4.170 -0.4670  0.2891 -0.1472
17166TIP3    H172989   0.176   2.409   4.225  0.6174 -0.7384  1.7051
17166TIP3    H272990   0.251   2.300   4.152  0.3567  0.2516 -0.0549
17167TIP3   OH272991   5.776   6.124  11.896  0.2203  0.5738  0.0278
17167TIP3    H172992   5.792   6.093  11.985  0.5010 -0.3124 -0.3297
17167TIP3    H272993   5.750   6.046  11.847 -1.3983  1.3068 -0.3300
17168TIP3   OH272994   2.320   3.557  12.418 -0.3128 -0.2947  0.9377
17168TIP3    H172995   2.287   3.506  12.344 -0.3536 -0.8332  1.3242
17168TIP3    H272996   2.381   3.619  12.379  0.5153 -1.3209  0.5822
17169TIP3   OH272997   2.158   1.685   6.704  0.2001 -0.4384  0.3499
17169TIP3    H172998   2.091   1.653   6.764  0.2788  0.1754  0.7732
17169TIP3    H272999   2.111   1.747   6.647 -0.1487 -1.9400 -1.0431
17170TIP3   OH273000   1.228   2.512  12.220 -0.5977 -0.0848  0.1403
17170TIP3    H173001   1.244   2.601  12.189 -3.1884  0.0322 -1.0171
17170TIP3    H273002   1.296   2.459  12.177  0.6642  1.2515  0.4706
17171TIP3   OH273003   6.003   2.086   3.745  0.0034 -0.0938  0.1384
17171TIP3    H173004   6.020   2.024   3.674  1.1917  0.3062  0.0668
17171TIP3    H273005   6.034   2.041   3.823 -0.0890 -0.0059  0.2243
17172TIP3   OH273006   2.233   3.831   2.338 -0.1411 -0.3203  0.1975
17172TIP3    H173007   2.271   3.798   2.257  0.2857 -0.3555  0.4095
17172TIP3    H273008   2.194   3.753   2.379 -0.9139 -0.1890 -0.2713
17173TIP3   OH273009   4.711   2.543  11.427 -0.2622  0.6691  0.0221
17173TIP3    H173010   4.705   2.594  11.508 -2.2577 -0.5202  0.6565
17173TIP3    H273011   4.805   2.528  11.415  0.0164 -0.0844  2.7375
17174TIP3   OH273012   5.771   6.660  13.292 -0.5098  0.1573  0.0186
17174TIP3    H173013   5.788   6.656  13.198 -1.2225  0.8725 -0.1435
17174TIP3    H273014   5.754   6.569  13.317 -0.4526 -0.0167 -0.5706
17175TIP3   OH273015   4.047   1.184   6.161  0.1679 -0.1112 -0.2881
17175TIP3    H173016   4.109   1.126   6.205 -0.8921 -1.0709 -0.0344
17175TIP3    H273017   4.005   1.232   6.232 -0.5917 -0.7006 -0.3288
17176TIP3   OH273018   3.578   1.448  17.188  0.1510 -0.3790  0.5681
17176TIP3    H173019   3.511   1.481  17.129  3.1804  1.3371 -2.0386
17176TIP3    H273020   3.627   1.384  17.136  2.4595  0.6800  1.3759
17177TIP3   OH273021   5.613   2.181   1.833 -0.1932 -0.8217 -0.1559
17177TIP3    H173022   5.678   2.251   1.827  0.2402 -1.1783  0.3408
17177TIP3    H273023   5.530   2.226   1.851  0.3935 -0.5570  2.0100
17178TIP3   OH273024   1.104   4.711   3.418 -0.8024 -0.2431  0.6373
17178TIP3    H173025   1.121   4.782   3.480 -1.7191  0.4391  0.1272
17178TIP3    H273026   1.136   4.745   3.334  0.1094 -1.0224  0.6584
17179TIP3   OH273027   1.999   5.087  16.282  0.5158 -0.1786  0.0348
17179TIP3    H173028   1.959   5.074  16.368  2.0314 -1.0332  0.6208
17179TIP3    H273029   1.982   5.005  16.236  1.5909 -0.5419  0.2858
17180TIP3   OH273030   2.960   5.198   4.168 -0.1562  0.1699  0.2368
17180TIP3    H173031   2.959   5.232   4.078 -1.2162 -0.8244 -0.1433
17180TIP3    H273032   2.976   5.275   4.222 -0.7397  0.9921 -0.7306
17181TIP3   OH273033   5.165   5.039  15.324 -0.2627 -0.3099 -0.1615
17181TIP3    H173034   5.231   5.107  15.315  0.4097 -0.9631 -0.1820
17181TIP3    H273035   5.214   4.957  15.322 -0.9662 -0.7660  0.9076
17182TIP3   OH273036   3.322   2.736  12.595  0.2836 -0.1059 -0.6514
17182TIP3    H173037   3.308   2.715  12.687 -0.5064  2.1117 -0.2513
17182TIP3    H273038   3.396   2.795  12.594 -0.1319  0.4124 -1.3808
17183TIP3   OH273039   5.310   4.867   2.977 -0.2991  0.5490  0.3469
17183TIP3    H173040   5.324   4.950   2.931  0.5813  1.0638  1.5431
17183TIP3    H273041   5.355   4.802   2.923 -3.8465  0.2434 -2.4710
17184TIP3   OH273042   4.254   2.261  16.389  0.1918  0.0439  0.3200
17184TIP3    H173043   4.237   2.306  16.307  0.3119 -2.2602 -1.0120
17184TIP3    H273044   4.204   2.179  16.382  1.2217 -0.7474  1.9876
17185TIP3   OH273045   6.343   2.848  16.876  0.5801 -0.2309 -0.8637
17185TIP3    H173046   6.378   2.934  16.854 -0.8870  0.0880 -2.0052
17185TIP3    H273047   6.377   2.789  16.808  1.2066 -0.4838 -0.3440
17186TIP3   OH273048   3.743   5.050   3.209 -0.7236  0.3789 -0.8180
17186TIP3    H173049   3.724   5.114   3.278 -0.1187  1.3213 -1.5100
17186TIP3    H273050   3.721   4.966   3.248 -0.7071  0.9294  0.4134
17187TIP3   OH273051   3.428   1.022   4.358 -0.4348 -0.0817  0.1178
17187TIP3    H173052   3.385   1.099   4.395  0.4783  0.4101  0.1766
17187TIP3    H273053   3.509   1.012   4.409 -0.5317 -1.0678  0.1001
17188TIP3   OH273054   1.162   0.738  13.065 -0.1115  0.5111  0.1119
17188TIP3    H173055   1.139   0.828  13.090 -0.0078 -0.3390  3.5291
17188TIP3    H273056   1.256   0.742  13.045 -0.1236  1.1773  0.1724
17189TIP3   OH273057   2.211   0.088   4.218 -0.1122  0.1913 -0.3152
17189TIP3    H173058   2.135   0.030   4.207 -0.8315  1.1537 -0.4389
17189TIP3    H273059   2.273   0.037   4.271 -1.0466 -0.3985  0.2143
17190TIP3   OH273060   3.617   1.771  12.686  0.4243 -0.1338 -0.0427
17190TIP3    H173061   3.582   1.784  12.598  1.6770  1.1846 -0.3893
17190TIP3    H273062   3.565   1.830  12.742 -0.7870 -1.4382  0.2224
17191TIP3   OH273063   2.102   3.423  11.387 -0.2385  0.1709 -0.1255
17191TIP3    H173064   2.165   3.488  11.418 -1.8016  0.5716  2.3550
17191TIP3    H273065   2.120   3.345  11.439 -1.2216  0.0101 -0.0162
17192TIP3   OH273066   5.306   0.860   2.790  0.4409 -0.1860  0.0641
17192TIP3    H173067   5.355   0.817   2.721  1.5546 -0.1567  0.8343
17192TIP3    H273068   5.298   0.794   2.859  1.7135  0.6646  1.0365
17193TIP3   OH273069   0.319   1.908   0.352 -0.2557 -0.3088 -0.8824
17193TIP3    H173070   0.258   1.835   0.356 -0.9175  0.2381 -0.8664
17193TIP3    H273071   0.331   1.934   0.443  1.0209 -1.2454 -0.7762
17194TIP3   OH273072   1.313   2.147  14.026 -0.0089 -0.1471 -0.2757
17194TIP3    H173073   1.355   2.202  14.093 -1.1497 -2.1442  2.1453
17194TIP3    H273074   1.362   2.065  14.029 -1.2153 -0.8853 -0.5962
17195TIP3   OH273075   1.358   1.073   5.100  1.0788 -0.3591 -0.4359
17195TIP3    H173076   1.384   1.018   5.026 -1.3548 -0.2765 -1.3975
17195TIP3    H273077   1.307   1.144   5.060 -2.0361 -1.4492  1.4887
17196TIP3   OH273078   4.384   1.659  14.319  0.1225 -0.0830 -0.2901
17196TIP3    H173079   4.424   1.700  14.396  0.4913 -0.7940 -0.1007
17196TIP3    H273080   4.318   1.722  14.289 -0.3262  0.0042  0.8624
17197TIP3   OH273081   6.627   2.798  12.333 -0.1117  0.4680  0.2511
17197TIP3    H173082   6.689   2.867  12.308  2.0097 -1.4830 -0.0406
17197TIP3    H273083   6.655   2.770  12.420 -1.4017  0.4295  0.6735
17198TIP3   OH273084   0.787   2.997   2.220 -0.4970  0.0679 -0.5826
17198TIP3    H173085   0.793   2.927   2.155 -0.0569 -0.1047 -0.3535
17198TIP3    H273086   0.696   3.027   2.214 -0.9753 -1.2173  0.0415
17199TIP3   OH273087   1.696   3.558   4.984 -0.0782  0.1466 -0.3840
17199TIP3    H173088   1.726   3.544   4.895  2.1974 -1.4039  0.5860
17199TIP3    H273089   1.689   3.471   5.022  1.1894  0.8756  1.6373
17200TIP3   OH273090   0.185   1.644  12.962  0.0118  0.2944  0.3856
17200TIP3    H173091   0.091   1.654  12.976  0.2253  1.9964  0.7316
17200TIP3    H273092   0.192   1.601  12.877 -1.0688  1.1050 -0.1285
17201TIP3   OH273093   4.033   1.704   2.492 -0.1443  0.4315  0.8179
17201TIP3    H173094   3.988   1.640   2.436  0.0496  0.7443  0.2968
17201TIP3    H273095   4.017   1.788   2.450 -0.1943  0.6944  1.3701
17202TIP3   OH273096   2.817   2.707   4.124  0.0636 -0.0864  0.6694
17202TIP3    H173097   2.790   2.615   4.121 -1.5105  0.3764  0.2145
17202TIP3    H273098   2.837   2.722   4.216  0.5519 -0.9409  0.7126
17203TIP3   OH273099   3.870   1.103   3.582 -0.0260 -0.1484  0.2403
17203TIP3    H173100   3.812   1.060   3.644 -0.5521 -0.3431 -0.3708
17203TIP3    H273101   3.846   1.195   3.586  0.8824  0.0467  1.3184
17204TIP3   OH273102   5.172   2.146  12.690 -0.4344 -0.0250  0.3454
17204TIP3    H173103   5.164   2.241  12.693 -1.5662 -0.1667  3.0673
17204TIP3    H273104   5.084   2.113  12.704  0.4735 -1.4734  2.9830
17205TIP3   OH273105   5.662   1.257  12.067 -0.4948  0.0675  0.4488
17205TIP3    H173106   5.746   1.266  12.021  0.6970 -1.4348  2.2394
17205TIP3    H273107   5.626   1.174  12.036 -1.4676  0.8249 -0.4947
17206TIP3   OH273108   5.688   3.827  11.544  0.3217  0.4901 -0.5082
17206TIP3    H173109   5.705   3.767  11.617 -0.4696  0.5075 -0.3073
17206TIP3    H273110   5.659   3.908  11.586 -0.3447  0.4323 -0.8522
17207TIP3   OH273111   2.554   1.153   1.675  0.6250 -0.2953  0.0422
17207TIP3    H173112   2.632   1.099   1.687 -0.4188 -1.7325  0.4789
17207TIP3    H273113   2.480   1.092   1.682 -0.4958  0.7190 -2.2752
17208TIP3   OH273114   2.336   0.167   5.765  0.2609 -0.1426 -0.8377
17208TIP3    H173115   2.249   0.148   5.730  0.8435 -1.7084 -1.4742
17208TIP3    H273116   2.352   0.096   5.828  0.3273  1.1634  0.6578
17209TIP3   OH273117   0.603   0.724   5.775 -0.7631 -0.6421 -0.6248
17209TIP3    H173118   0.518   0.761   5.798 -0.6718 -0.5624 -0.4076
17209TIP3    H273119   0.589   0.630   5.775 -0.7748 -0.6431 -0.2649
17210TIP3   OH273120   1.960   2.106   1.880 -0.2131  0.6002  0.3359
17210TIP3    H173121   1.895   2.129   1.813 -0.3233  1.8470  0.8599
17210TIP3    H273122   1.934   2.156   1.957  0.5577  0.0137  0.9865
17211TIP3   OH273123   1.148   0.199   2.924  0.3380 -0.1926 -0.5421
17211TIP3    H173124   1.242   0.216   2.914  0.6589 -1.1348  0.6531
17211TIP3    H273125   1.134   0.199   3.019 -0.8583 -0.1262 -0.7130
17212TIP3   OH273126   3.564   1.003   6.159 -0.3699  0.6144 -0.1021
17212TIP3    H173127   3.566   1.079   6.102 -0.4463  1.1447  0.5919
17212TIP3    H273128   3.528   0.933   6.105 -0.1071  1.0180 -0.8011
17213TIP3   OH273129   4.332   4.647  12.074 -0.4456  0.6015 -0.4585
17213TIP3    H173130   4.263   4.591  12.110 -0.4028  0.4415 -0.6188
17213TIP3    H273131   4.287   4.709  12.018 -0.5067  0.8069 -0.1812
17214TIP3   OH273132   6.512   1.530  14.886  0.0062 -0.1896 -0.1102
17214TIP3    H173133   6.448   1.576  14.832  0.4926 -0.3710 -0.8414
17214TIP3    H273134   6.467   1.450  14.915 -1.6750  1.8163  3.0959
17215TIP3   OH273135   4.742   4.651  15.330 -0.3479 -0.4664  0.7197
17215TIP3    H173136   4.811   4.706  15.294  1.3156 -1.7098  1.9945
17215TIP3    H273137   4.737   4.674  15.422 -1.3854 -0.6620  0.7271
17216TIP3   OH273138   0.960   6.139  14.664  0.6522  0.2424 -0.1482
17216TIP3    H173139   1.002   6.224  14.678 -0.5465  0.8074  0.0994
17216TIP3    H273140   0.922   6.146  14.576 -2.2280  1.1850  1.1107
17217TIP3   OH273141   1.083   5.332  11.951  0.1061 -0.5442  0.7118
17217TIP3    H173142   1.080   5.241  11.921  0.8462 -0.8632  1.6010
17217TIP3    H273143   1.171   5.343  11.987  0.1912  0.6709  0.1565
17218TIP3   OH273144   2.686   3.350  12.224  0.1202 -0.0407  0.3751
17218TIP3    H173145   2.679   3.255  12.208 -0.6024  0.2289 -1.0574
17218TIP3    H273146   2.746   3.381  12.156 -0.9623  0.7630 -0.2497
17219TIP3   OH273147   3.643   4.562  13.826  0.7213 -0.1585  0.3345
17219TIP3    H173148   3.710   4.498  13.802  0.9639 -0.6126  2.1508
17219TIP3    H273149   3.565   4.533  13.779  1.0153 -1.3950  0.5926
17220TIP3   OH273150   4.348   0.564  12.890 -0.0157 -0.2193 -0.1816
17220TIP3    H173151   4.397   0.606  12.820 -0.7121  1.1226  0.1297
17220TIP3    H273152   4.404   0.491  12.917  1.2014  0.4912 -0.7248
17221TIP3   OH273153   5.435   5.374   2.535 -0.4816 -0.1192  0.0640
17221TIP3    H173154   5.419   5.298   2.479 -1.4965  0.8525 -1.0030
17221TIP3    H273155   5.348   5.403   2.561 -0.1338  1.1457 -0.1668
17222TIP3   OH273156   2.943   2.332  14.136 -0.1970 -0.2272  0.1195
17222TIP3    H173157   2.953   2.377  14.220 -0.5634 -0.2749  0.1879
17222TIP3    H273158   2.987   2.389  14.073 -0.7423  0.2697  0.1883
17223TIP3   OH273159   4.368   0.457   2.877  0.5630 -0.1001 -0.0174
17223TIP3    H173160   4.355   0.534   2.821 -0.3253  0.9237  1.5508
17223TIP3    H273161   4.428   0.401   2.827  0.3435  1.0945 -1.6752
17224TIP3   OH273162   4.437   2.688   4.633  0.0004 -0.0159 -0.4051
17224TIP3    H173163   4.369   2.706   4.698  0.0179  0.3959 -0.5029
17224TIP3    H273164   4.460   2.596   4.647  0.3613  0.2126  0.5028
17225TIP3   OH273165   2.556   1.505  16.877  0.4274 -0.6279  0.4152
17225TIP3    H173166   2.567   1.500  16.782 -0.6094 -1.8102  0.3418
17225TIP3    H273167   2.607   1.432  16.911 -0.0854 -0.8709  0.6819
17226TIP3   OH273168   6.734   6.167  10.985 -0.1017 -0.0962 -0.2251
17226TIP3    H173169   6.745   6.242  11.042  1.8858  0.2874 -1.0723
17226TIP3    H273170   6.795   6.101  11.019 -1.3941 -1.1270  0.1527
17227TIP3   OH273171   4.351   6.201  14.225  0.5070 -0.2683  0.6551
17227TIP3    H173172   4.333   6.127  14.283  0.2393 -1.1708 -0.5710
17227TIP3    H273173   4.442   6.224  14.244  0.5365 -0.7876  1.1678
17228TIP3   OH273174   6.398   1.415   5.969 -0.2297  0.6415 -0.0210
17228TIP3    H173175   6.405   1.454   6.056 -0.4723  0.4162  0.0974
17228TIP3    H273176   6.314   1.370   5.969 -0.3505  0.8651 -0.4612
17229TIP3   OH273177   4.953   3.346  14.618 -0.1378 -0.2119  0.2609
17229TIP3    H173178   5.033   3.300  14.642 -0.2778 -0.6534 -0.1289
17229TIP3    H273179   4.982   3.421  14.566  0.0383 -0.2305  0.3359
17230TIP3   OH273180   3.152   6.164  13.357  0.4347 -0.1420  0.7967
17230TIP3    H173181   3.093   6.221  13.406 -0.3203  0.3228 -0.6367
17230TIP3    H273182   3.204   6.223  13.302 -0.0502 -0.7788 -0.3701
17231TIP3   OH273183   0.302   6.799  12.071  0.4000  0.3508 -0.3344
17231TIP3    H173184   0.225   6.782  12.017  0.4402 -0.0563 -0.2653
17231TIP3    H273185   0.356   6.859  12.019  0.9189 -0.8428 -1.1838
17232TIP3   OH273186   2.564   4.230   5.313 -0.8236 -0.3806 -0.1786
17232TIP3    H173187   2.537   4.233   5.405 -0.2153 -0.6488  0.0098
17232TIP3    H273188   2.508   4.162   5.274 -1.5040  0.1636 -0.1467
17233TIP3   OH273189   0.052   3.932  15.380  0.6770  0.2242 -0.0750
17233TIP3    H173190   0.114   3.904  15.312 -0.1176 -0.2088 -0.6249
17233TIP3    H273191  -0.022   3.872  15.372  0.4139  0.4005  0.9377
17234TIP3   OH273192   4.085   5.208   1.379 -0.6909  0.4105 -0.1096
17234TIP3    H173193   4.163   5.157   1.397  0.6921  2.2895 -0.6343
17234TIP3    H273194   4.013   5.146   1.391  0.7279 -0.8876  2.1691
17235TIP3   OH273195   4.911   4.960   1.750  0.0962 -0.2423 -0.1351
17235TIP3    H173196   4.836   4.901   1.759  0.0150 -0.3021 -1.2366
17235TIP3    H273197   4.881   5.028   1.690  0.5428  0.3706  0.3222
17236TIP3   OH273198   0.203   0.961  16.966  0.0771  0.8584 -0.2107
17236TIP3    H173199   0.177   1.027  16.901  1.3222  0.9691 -0.6221
17236TIP3    H273200   0.250   0.895  16.916  0.8025  0.7965  0.5362
17237TIP3   OH273201   1.179   1.710  11.666  0.0550  0.3313 -0.1731
17237TIP3    H173202   1.253   1.691  11.724 -0.4730 -0.2901  0.3026
17237TIP3    H273203   1.166   1.630  11.616 -0.8865  0.1197  0.4012
17238TIP3   OH273204   3.182   1.332   2.796 -0.3997 -0.0000  0.3974
17238TIP3    H173205   3.271   1.306   2.820 -0.9421 -0.7025  1.6942
17238TIP3    H273206   3.127   1.299   2.867 -1.7488  0.0814 -0.5769
17239TIP3   OH273207   6.000   2.322  13.997  0.3311 -0.3320  0.4251
17239TIP3    H173208   5.916   2.338  13.953  1.1617 -1.2436 -1.5757
17239TIP3    H273209   6.065   2.361  13.939  1.1804  2.3104  3.0490
17240TIP3   OH273210   6.458   6.006   4.997 -0.3430 -0.0810  0.0232
17240TIP3    H173211   6.457   5.990   5.091  3.5661  0.3034  0.2166
17240TIP3    H273212   6.460   6.101   4.989 -0.4696 -0.1152 -0.4378
17241TIP3   OH273213   0.464   6.308   2.427  0.0379 -0.3401 -0.1178
17241TIP3    H173214   0.533   6.350   2.477 -0.7523  0.2623  0.4771
17241TIP3    H273215   0.404   6.379   2.403 -1.8770 -1.2483  1.8159
17242TIP3   OH273216   5.609   4.287   4.251 -0.2431  0.5059  0.2932
17242TIP3    H173217   5.571   4.340   4.321 -1.1468  0.1400  0.0745
17242TIP3    H273218   5.550   4.212   4.242 -0.0365  0.4641 -0.7487
17243TIP3   OH273219   5.070   1.055   2.523  0.5475 -0.1699  0.0176
17243TIP3    H173220   5.008   1.068   2.451 -1.7012 -0.8387  1.7622
17243TIP3    H273221   5.107   1.142   2.538  0.1754  0.2072 -1.2044
17244TIP3   OH273222   5.746   6.154   0.644  0.0183  0.1728 -0.0997
17244TIP3    H173223   5.669   6.200   0.675 -0.1857  0.2157 -0.6642
17244TIP3    H273224   5.720   6.062   0.641  1.1479 -0.3213  3.2796
17245TIP3   OH273225   3.159   2.189   4.782  0.1805 -0.3464  0.6110
17245TIP3    H173226   3.192   2.255   4.721  1.1859 -0.5368  0.9252
17245TIP3    H273227   3.157   2.108   4.730 -0.4460 -0.1986  0.4022
17246TIP3   OH273228   0.666   0.017   6.095 -0.1360 -0.1909 -0.2618
17246TIP3    H173229   0.655   0.059   6.180 -0.1460 -1.5107  0.4157
17246TIP3    H273230   0.597  -0.049   6.092 -0.3982  0.1237 -1.4771
17247TIP3   OH273231   6.596   5.921  14.668  0.3402  0.2429  0.7155
17247TIP3    H173232   6.517   5.867  14.672 -0.3418  1.2450  0.8836
17247TIP3    H273233   6.618   5.939  14.759 -0.0541  1.1396  0.6389
17248TIP3   OH273234   6.480   5.826  14.968 -0.1701 -0.3015  0.0173
17248TIP3    H173235   6.568   5.790  14.959  0.5484  1.7330 -1.3711
17248TIP3    H273236   6.432   5.792  14.892 -0.0904 -0.0692 -0.1394
17249TIP3   OH273237   1.245   6.466   5.122 -0.8227  0.6227  0.0276
17249TIP3    H173238   1.319   6.511   5.081 -0.6407  1.4857  1.2726
17249TIP3    H273239   1.170   6.485   5.065 -0.3818  0.9994 -0.4298
17250TIP3   OH273240   3.663   5.453   5.128  0.0432  0.0689 -0.4612
17250TIP3    H173241   3.758   5.461   5.135  0.1960 -1.2989 -0.7903
17250TIP3    H273242   3.641   5.501   5.048  0.9753 -2.9108 -2.6287
17251TIP3   OH273243   1.794   0.028   6.667 -0.5133  0.1863 -0.4081
17251TIP3    H173244   1.709  -0.012   6.653 -0.4755 -0.0085 -0.0770
17251TIP3    H273245   1.776   0.104   6.723 -0.3007 -0.6153  0.7851
17252TIP3   OH273246   3.012   5.740   1.104  0.1994 -0.7175 -0.4752
17252TIP3    H173247   2.972   5.653   1.107 -1.0576 -0.0852  1.4917
17252TIP3    H273248   3.003   5.766   1.012 -1.2758 -1.8142 -0.6710
17253TIP3   OH273249   5.427   3.480  11.487 -0.0426 -0.0047  0.1441
17253TIP3    H173250   5.396   3.567  11.514  0.3664  0.4781 -0.9127
17253TIP3    H273251   5.514   3.496  11.452  0.7759 -1.1191  1.5939
17254TIP3   OH273252   2.230   2.922   3.370  0.2291 -0.0597  0.3457
17254TIP3    H173253   2.212   2.893   3.459  0.2314 -1.3945 -0.0760
17254TIP3    H273254   2.321   2.897   3.355  0.2435  0.2051 -0.0094
17255TIP3   OH273255   2.914   3.336  12.047 -0.3886 -0.5121  0.0717
17255TIP3    H173256   2.871   3.269  11.993 -0.2619  0.6012 -1.4485
17255TIP3    H273257   2.983   3.371  11.991  0.4942 -0.1149  1.3806
17256TIP3   OH273258   2.712   4.982   1.032 -0.6223  0.0044  0.1025
17256TIP3    H173259   2.674   5.018   1.112  2.2393  0.2267  1.4119
17256TIP3    H273260   2.695   5.049   0.966 -0.3869  1.1715  1.2078
17257TIP3   OH273261   0.649   4.197  14.993  0.4265  0.6313 -0.0133
17257TIP3    H173262   0.580   4.257  15.020 -0.2352 -0.7048  1.3493
17257TIP3    H273263   0.617   4.157  14.913 -0.0182  0.6167  0.1722
17258TIP3   OH273264   5.842   1.706  11.256 -0.2462  0.0320 -0.6093
17258TIP3    H173265   5.750   1.699  11.279  0.1087 -0.5324  0.6825
17258TIP3    H273266   5.865   1.797  11.276 -0.7837  0.4907 -1.9926
17259TIP3   OH273267   3.626   3.738   2.882  0.6440  0.3372  0.0429
17259TIP3    H173268   3.585   3.706   2.962  0.7476  0.7493  0.2649
17259TIP3    H273269   3.562   3.800   2.846  1.4597  1.7016  0.8892
17260TIP3   OH273270   5.603   6.726  13.571 -0.0725  0.0118  0.1509
17260TIP3    H173271   5.585   6.654  13.511 -0.5986  2.0003 -2.1543
17260TIP3    H273272   5.534   6.720  13.637 -1.5295 -0.1818 -1.3699
17261TIP3   OH273273   3.290   6.101   6.332 -0.4238 -0.0561 -0.0191
17261TIP3    H173274   3.359   6.151   6.376  0.1011  0.5473 -1.5125
17261TIP3    H273275   3.247   6.164   6.275 -0.9079 -0.9070 -0.6065
17262TIP3   OH273276   0.813   3.128  11.300  0.2084 -0.5518 -0.0941
17262TIP3    H173277   0.835   3.035  11.310 -0.6509 -0.7322  0.2187
17262TIP3    H273278   0.735   3.127  11.244 -1.6146 -0.2056  2.3935
17263TIP3   OH273279   1.658   0.058   5.408 -0.5034  0.3437  0.2162
17263TIP3    H173280   1.631   0.054   5.500 -2.2769 -0.6081 -0.3166
17263TIP3    H273281   1.714   0.135   5.403 -1.7687  1.4097  1.7590
17264TIP3   OH273282   1.777   6.023   5.374  0.6111 -0.4439 -0.2320
17264TIP3    H173283   1.769   6.056   5.464  0.7152 -3.0925  0.7875
17264TIP3    H273284   1.687   5.998   5.350  0.6560 -0.1518 -0.7155
17265TIP3   OH273285   5.331   3.809   1.741  0.4207 -0.3436  0.5825
17265TIP3    H173286   5.361   3.861   1.666 -1.3508 -0.2736 -0.1122
17265TIP3    H273287   5.409   3.795   1.794  1.3306  1.2559 -0.3003
17266TIP3   OH273288   4.385   0.072   3.957  0.1142 -0.4775  0.1151
17266TIP3    H173289   4.329   0.089   3.882  0.5231  2.3792  0.3927
17266TIP3    H273290   4.468   0.045   3.920  0.0482  0.0761 -0.4349
17267TIP3   OH273291   4.489   5.139  15.881 -0.2381 -0.4414 -0.6589
17267TIP3    H173292   4.570   5.089  15.870  0.1623  0.2506 -0.9124
17267TIP3    H273293   4.509   5.225  15.843 -1.4407 -0.6044 -1.7077
17268TIP3   OH273294   1.818   0.808  10.694  0.3385  0.2224 -0.1108
17268TIP3    H173295   1.824   0.717  10.721  1.4650 -0.1111 -1.4077
17268TIP3    H273296   1.727   0.819  10.665  0.1203 -0.3880  0.3417
17269TIP3   OH273297   3.261   6.715   6.326  0.0331 -0.5282  0.1522
17269TIP3    H173298   3.281   6.725   6.419  1.0817 -0.9390 -0.0229
17269TIP3    H273299   3.253   6.805   6.294 -0.1165 -0.3831  0.5998
17270TIP3   OH273300   3.114   5.934   5.390  0.4049  0.0750 -0.5771
17270TIP3    H173301   3.065   6.006   5.351 -0.9201  0.0140  0.9286
17270TIP3    H273302   3.137   5.878   5.316 -1.5729  0.2502 -1.3567
17271TIP3   OH273303   2.304   1.144  16.081 -0.2531  0.0206 -0.8354
17271TIP3    H173304   2.281   1.110  15.995 -2.0532 -0.4868 -0.1825
17271TIP3    H273305   2.345   1.071  16.126 -0.7160 -0.1835 -0.7395
17272TIP3   OH273306   3.211   1.208   5.624  0.5931 -0.0441 -0.1019
17272TIP3    H173307   3.164   1.188   5.704 -1.5110  0.8602 -1.0768
17272TIP3    H273308   3.303   1.186   5.643 -0.1989 -1.7952  1.8334
17273TIP3   OH273309   2.753   1.423   2.910 -0.4962 -0.2302 -0.0495
17273TIP3    H173310   2.831   1.460   2.951  0.5945 -0.8529 -1.4622
17273TIP3    H273311   2.780   1.334   2.884 -1.0889  0.1595 -2.1386
17274TIP3   OH273312   1.179   1.153   2.107 -0.2902 -0.5209  0.3286
17274TIP3    H173313   1.260   1.183   2.067  0.7017 -1.9422  1.2276
17274TIP3    H273314   1.117   1.224   2.092  1.2537  0.7908  0.0565
17275TIP3   OH273315   3.795   0.142   0.434 -0.1990  0.1987 -0.0152
17275TIP3    H173316   3.760   0.138   0.522  1.9546 -0.9184  0.8283
17275TIP3    H273317   3.880   0.097   0.439  0.0515  0.2646 -2.5959
17276TIP3   OH273318   4.494   5.913  12.301  0.0047  0.8200 -0.0257
17276TIP3    H173319   4.564   5.898  12.364 -0.4587  1.8592  0.7537
17276TIP3    H273320   4.533   5.890  12.216  0.6431 -0.5207  0.6265
17277TIP3   OH273321   1.176   2.299   2.220 -0.2898 -0.4646 -0.1784
17277TIP3    H173322   1.111   2.245   2.265  0.2802 -1.2444 -0.2764
17277TIP3    H273323   1.186   2.377   2.275 -3.8619  1.3255 -1.8857
17278TIP3   OH273324   1.550   1.736  11.600 -0.3143 -0.4561 -0.3585
17278TIP3    H173325   1.535   1.671  11.531  2.4053 -1.2338 -0.2782
17278TIP3    H273326   1.641   1.722  11.626  0.2705  3.2518 -0.1869
17279TIP3   OH273327   0.906   3.889   5.616 -0.3249  0.1442  0.0792
17279TIP3    H173328   0.816   3.898   5.646 -0.7947 -2.7577 -0.3121
17279TIP3    H273329   0.912   3.949   5.541 -2.8580 -1.8412 -1.7967
17280TIP3   OH273330   2.682   3.767  13.952 -0.2221  0.5170  0.3050
17280TIP3    H173331   2.595   3.803  13.965 -1.1714 -1.5121 -0.3091
17280TIP3    H273332   2.687   3.750  13.858  1.6628  2.6450 -0.0277
17281TIP3   OH273333   6.472   6.751   1.512 -0.3907  0.0050  0.2819
17281TIP3    H173334   6.508   6.794   1.434  0.5006  0.4712  0.9486
17281TIP3    H273335   6.470   6.658   1.489  0.8196  0.0287  0.0760
17282TIP3   OH273336   5.812   2.332  16.916 -0.0208  0.2843 -0.1717
17282TIP3    H173337   5.887   2.272  16.920 -0.3535 -0.1238  0.0474
17282TIP3    H273338   5.773   2.315  16.830 -0.4078 -0.1778  0.0899
17283TIP3   OH273339   4.219   2.497  14.784 -0.0855 -0.3128 -0.0453
17283TIP3    H173340   4.170   2.420  14.756  0.4769 -0.1731 -1.4803
17283TIP3    H273341   4.157   2.547  14.837 -1.7221  0.1657 -2.3382
17284TIP3   OH273342   4.027   0.373  11.119  0.1102 -0.1298 -0.2736
17284TIP3    H173343   4.111   0.385  11.074 -0.4244 -0.5077 -1.3945
17284TIP3    H273344   4.041   0.298  11.177  0.2077 -0.9580 -1.3418
17285TIP3   OH273345   1.419   6.118  16.076 -0.1220  0.1760 -0.5200
17285TIP3    H173346   1.513   6.100  16.069  0.2327  1.6455  0.1773
17285TIP3    H273347   1.384   6.044  16.125  0.7112 -0.2404 -0.5414
17286TIP3   OH273348   5.571   0.572   1.764 -0.0139  0.0312  0.4422
17286TIP3    H173349   5.599   0.539   1.850 -0.5707  1.0280  1.0129
17286TIP3    H273350   5.628   0.648   1.749  0.2787 -0.3118 -0.2117
17287TIP3   OH273351   0.932   1.939   3.949 -0.7825  0.3565  0.1110
17287TIP3    H173352   1.023   1.945   3.978  0.0839 -1.9485 -1.9808
17287TIP3    H273353   0.893   2.022   3.976  1.6393  0.9324  2.0175
17288TIP3   OH273354   6.119   3.203  15.364  0.9018  0.2159  0.4006
17288TIP3    H173355   6.168   3.159  15.434 -0.3374  0.4203  1.4251
17288TIP3    H273356   6.036   3.228  15.405  0.6098  1.3577 -0.8416
17289TIP3   OH273357   3.539   2.012   1.313 -0.0122 -0.3129  0.8025
17289TIP3    H173358   3.630   1.998   1.341  0.3482  1.6105  0.6130
17289TIP3    H273359   3.496   1.927   1.329  1.3883 -0.7241  2.5221
17290TIP3   OH273360   6.394   1.099   3.414 -0.3663  0.2089 -0.1731
17290TIP3    H173361   6.434   1.044   3.347  2.3062  0.1714  1.3813
17290TIP3    H273362   6.315   1.051   3.441  1.2784 -2.3254  0.3213
17291TIP3   OH273363   4.309   2.747  17.014  0.3160 -0.1714  0.0490
17291TIP3    H173364   4.271   2.678  16.959  1.1605 -0.2244 -0.4810
17291TIP3    H273365   4.278   2.727  17.102  0.5536 -1.2392 -0.0985
17292TIP3   OH273366   1.198   4.205  16.559 -0.3790 -0.1691  0.1071
17292TIP3    H173367   1.265   4.241  16.618  0.4548 -0.7468 -0.4944
17292TIP3    H273368   1.244   4.141  16.505 -1.2284  0.0677 -0.9192
17293TIP3   OH273369   5.282   6.512  13.777  0.4856 -0.0876  0.0618
17293TIP3    H173370   5.308   6.580  13.716 -0.2647  0.9758  0.8914
17293TIP3    H273371   5.226   6.557  13.841  0.8836 -1.2463  1.2685
17294TIP3   OH273372   4.968   2.797  16.726  0.1433  0.9413 -0.8485
17294TIP3    H173373   4.981   2.891  16.740  0.8912  0.4461  2.1206
17294TIP3    H273374   5.037   2.755  16.778 -2.4334 -1.3193  0.8854
17295TIP3   OH273375   4.673   4.649   4.504 -0.2104 -0.5515 -0.1455
17295TIP3    H173376   4.697   4.566   4.546  1.7938 -0.9050 -1.8852
17295TIP3    H273377   4.673   4.713   4.575 -0.2270 -1.7434  0.9551
17296TIP3   OH273378   2.677   3.364   6.253 -0.1948  0.1043 -0.1905
17296TIP3    H173379   2.653   3.271   6.252  0.3494 -0.0393 -1.4016
17296TIP3    H273380   2.771   3.363   6.271  0.0340  0.3434 -1.2936
17297TIP3   OH273381   0.543   3.232   3.637 -0.3688  0.5523 -0.6146
17297TIP3    H173382   0.463   3.250   3.686  0.1420  0.8369  0.1193
17297TIP3    H273383   0.612   3.231   3.703  0.2927  0.7393 -1.3004
17298TIP3   OH273384   4.226   3.459   4.525 -0.2203 -0.0509  0.5000
17298TIP3    H173385   4.309   3.441   4.569  0.4058  0.9468 -0.2486
17298TIP3    H273386   4.216   3.388   4.462  0.1140 -0.1205  0.5259
17299TIP3   OH273387   0.348   1.258   2.599 -0.4552  0.1145  0.5862
17299TIP3    H173388   0.305   1.259   2.684 -1.8584 -0.0364 -0.1032
17299TIP3    H273389   0.317   1.336   2.554 -0.1839 -0.1053 -0.0002
17300TIP3   OH273390   0.070   5.193  15.068  0.3972  0.3482  0.3804
17300TIP3    H173391   0.085   5.115  15.015 -0.0476  0.8045 -0.4231
17300TIP3    H273392   0.092   5.267  15.011 -1.2477  0.8821  0.4120
17301TIP3   OH273393   5.780   3.807  11.115  0.6251 -0.0417 -0.4545
17301TIP3    H173394   5.868   3.808  11.077  0.5992 -0.6001 -0.5459
17301TIP3    H273395   5.735   3.738  11.067  0.1771  0.1614 -0.3214
17302TIP3   OH273396   5.392   4.932  13.626  0.1133  0.4806 -0.0760
17302TIP3    H173397   5.365   4.984  13.551  1.1560  0.7984 -0.2481
17302TIP3    H273398   5.444   4.861  13.588 -0.7081 -0.2765  0.2148
17303TIP3   OH273399   4.674   6.203   0.228  0.3166 -0.7189 -0.0382
17303TIP3    H173400   4.671   6.248   0.312  0.7610 -0.8123  0.0316
17303TIP3    H273401   4.731   6.127   0.243 -0.0514 -1.0408 -0.2772
17304TIP3   OH273402   1.426   1.109   5.428  0.0185 -0.0397 -0.0664
17304TIP3    H173403   1.434   1.189   5.377 -1.3640  1.0990  1.4598
17304TIP3    H273404   1.395   1.043   5.366  3.0712  0.0582 -1.7994
17305TIP3   OH273405   2.104   6.131  15.026  0.3048 -0.2811 -0.0494
17305TIP3    H173406   2.155   6.091  14.955  0.1534 -1.4409  0.4777
17305TIP3    H273407   2.078   6.216  14.992 -0.2093 -1.0352 -1.6061
17306TIP3   OH273408   3.291   6.056  12.046  0.0531 -0.4467 -0.1643
17306TIP3    H173409   3.371   6.091  12.086 -2.1737  0.2838  3.7965
17306TIP3    H273410   3.246   6.133  12.012  0.0372 -0.6407 -0.5862
17307TIP3   OH273411   5.200   4.240  11.924  0.0439  0.0118  0.1140
17307TIP3    H173412   5.120   4.267  11.970 -0.0324  0.5242 -0.3137
17307TIP3    H273413   5.262   4.221  11.994 -0.5539 -0.7164  0.4573
17308TIP3   OH273414   5.054   0.126  15.674  0.1331  0.2743  0.5350
17308TIP3    H173415   5.063   0.035  15.703 -0.0518  0.1485  0.1929
17308TIP3    H273416   5.138   0.166  15.695  0.5808 -0.2375 -0.2767
17309TIP3   OH273417   1.774   3.535  10.664 -0.5670 -0.6324  0.1576
17309TIP3    H173418   1.700   3.597  10.664 -0.6050 -0.6545  1.1851
17309TIP3    H273419   1.735   3.452  10.637 -0.8607 -0.5726  0.3861
17310TIP3   OH273420   4.741   5.008  12.070  0.0153  0.3514 -0.6673
17310TIP3    H173421   4.807   4.961  12.018 -0.2746  0.6586 -1.3211
17310TIP3    H273422   4.788   5.082  12.107  0.2336  0.1123 -0.4664
17311TIP3   OH273423   6.664   6.633   3.252 -0.4460 -0.2306 -0.8432
17311TIP3    H173424   6.693   6.551   3.292 -0.4667  0.3032  0.2807
17311TIP3    H273425   6.703   6.701   3.306  0.4410  0.5264 -2.4004
17312TIP3   OH273426   0.972   6.661   0.997 -0.1454 -0.1831 -0.2042
17312TIP3    H173427   1.062   6.674   0.967 -0.5620 -1.0102 -1.8610
17312TIP3    H273428   0.921   6.726   0.948 -0.9996 -2.2923 -2.1827
17313TIP3   OH273429   1.412   1.404  17.110 -0.0884  0.1076 -0.1529
17313TIP3    H173430   1.436   1.496  17.116  1.7444 -0.3657 -0.0615
17313TIP3    H273431   1.400   1.376  17.201  1.2628 -0.2309 -0.0748
17314TIP3   OH273432   6.371   3.403  13.893 -0.7277  0.0284 -0.6685
17314TIP3    H173433   6.374   3.393  13.797  1.5835  2.3494 -0.8774
17314TIP3    H273434   6.290   3.452  13.909 -1.2422 -0.5642 -1.3939
17315TIP3   OH273435   5.558   2.415   3.270 -0.3559 -0.4811  0.2691
17315TIP3    H173436   5.652   2.400   3.281 -0.4203 -0.8633  0.3126
17315TIP3    H273437   5.530   2.345   3.210  0.0212  1.5907 -2.4283
17316TIP3   OH273438   6.629   3.670  11.506 -0.2914 -0.1273 -0.0242
17316TIP3    H173439   6.610   3.658  11.599 -0.1024  1.6248  0.2503
17316TIP3    H273440   6.545   3.694  11.467 -0.6162 -1.9862 -0.5356
17317TIP3   OH273441   5.377   3.696  11.645 -0.5171 -0.1660 -0.1808
17317TIP3    H173442   5.338   3.729  11.725  2.0843  0.7878  0.7668
17317TIP3    H273443   5.381   3.773  11.587  3.9736  0.9723  1.4022
17318TIP3   OH273444   0.587   0.716   3.889  0.0706  0.0342 -0.1051
17318TIP3    H173445   0.606   0.787   3.950 -1.0259  0.6945 -0.5202
17318TIP3    H273446   0.644   0.732   3.814  1.4620 -0.8091  0.7532
17319TIP3   OH273447   6.717   0.488   1.561 -0.3947 -0.5402 -0.4065
17319TIP3    H173448   6.669   0.428   1.504 -0.9967  1.1090 -1.6691
17319TIP3    H273449   6.714   0.572   1.515 -0.3270  0.6674  1.7378
17320TIP3   OH273450   1.724   0.625   4.312 -0.5388 -0.2545 -0.0601
17320TIP3    H173451   1.718   0.621   4.216  0.5064  0.0174 -0.1495
17320TIP3    H273452   1.802   0.678   4.328  0.4168 -1.9078  0.9105
17321TIP3   OH273453   2.264   0.989   5.287 -0.2860 -0.0001  0.4256
17321TIP3    H173454   2.290   1.034   5.368 -0.5019 -1.1965  1.1760
17321TIP3    H273455   2.337   0.932   5.267 -1.1562 -1.3449  1.0133
17322TIP3   OH273456   4.525   0.325   3.214  0.6715  0.3270  0.1282
17322TIP3    H173457   4.570   0.247   3.181  0.5569  0.3114  0.0110
17322TIP3    H273458   4.574   0.398   3.176  0.2797  0.3059 -0.4181
17323TIP3   OH273459   1.370   2.170   1.179  0.0211 -0.6510  0.0366
17323TIP3    H173460   1.387   2.090   1.230 -0.5286  0.4434  2.0033
17323TIP3    H273461   1.286   2.201   1.213  0.2817  0.8080 -0.6593
17324TIP3   OH273462   3.461   0.231   2.394  0.2495  0.5232  0.2238
17324TIP3    H173463   3.508   0.150   2.415  0.5731  0.7707  0.4551
17324TIP3    H273464   3.369   0.204   2.385  0.6894 -0.2805 -2.0928
17325TIP3   OH273465   3.645   4.537  10.636  0.1213 -0.4852 -0.4197
17325TIP3    H173466   3.678   4.463  10.687 -0.7997 -1.0768 -0.6794
17325TIP3    H273467   3.661   4.512  10.545 -0.4910 -0.5092 -0.5196
17326TIP3   OH273468   3.757   1.760  13.125  0.3617  0.6055 -0.1098
17326TIP3    H173469   3.734   1.832  13.066  1.0494  1.5153  0.7107
17326TIP3    H273470   3.767   1.802  13.210 -0.1225 -0.6176  0.5538
17327TIP3   OH273471   4.132   6.417   4.542 -0.4054 -0.4139  0.0751
17327TIP3    H173472   4.128   6.435   4.449  0.4533 -0.2311  0.0622
17327TIP3    H273473   4.158   6.325   4.548 -2.1889 -0.9284  0.1392
17328TIP3   OH273474   2.992   4.216   4.993  0.1315  0.0019  0.7765
17328TIP3    H173475   2.907   4.175   4.979  0.5602 -0.7475  0.3326
17328TIP3    H273476   2.979   4.307   4.967 -0.1719 -0.4268 -0.6393
17329TIP3   OH273477   1.583   6.587   2.890 -0.2012  0.3006  0.3066
17329TIP3    H173478   1.588   6.546   2.976  0.8273 -1.0758 -0.3813
17329TIP3    H273479   1.499   6.558   2.854 -1.2108  1.9122  1.3443
17330TIP3   OH273480   2.315   1.544   1.016  0.1784 -0.3368  0.1426
17330TIP3    H173481   2.400   1.500   1.009 -0.5856 -1.5101 -2.1676
17330TIP3    H273482   2.253   1.473   1.033 -0.6644  0.1985 -0.6569
17331TIP3   OH273483   1.351   3.834   0.247 -0.0572 -0.6669  0.5792
17331TIP3    H173484   1.326   3.873   0.164 -1.8323 -1.3883  0.7695
17331TIP3    H273485   1.379   3.909   0.301 -0.5666 -0.0053 -0.0672
17332TIP3   OH273486   3.514   6.425   1.026 -0.0277 -0.2245 -0.0165
17332TIP3    H173487   3.434   6.471   1.003  0.0554 -0.1935 -0.2423
17332TIP3    H273488   3.570   6.434   0.949  0.6304  0.7330  0.5586
17333TIP3   OH273489   3.082   1.382  14.830  0.5535  0.5171 -0.3185
17333TIP3    H173490   3.144   1.416  14.766 -0.2622  1.1372 -0.7899
17333TIP3    H273491   3.007   1.442  14.825 -1.1593 -1.6583 -1.5578
17334TIP3   OH273492   0.412   6.459   5.469  0.6333  0.1552 -0.0857
17334TIP3    H173493   0.482   6.500   5.419  0.2735  1.9033  0.7993
17334TIP3    H273494   0.375   6.394   5.410  0.7826  1.5738 -1.7892
17335TIP3   OH273495   4.438   0.371   1.858 -0.4665  0.2953  0.5626
17335TIP3    H173496   4.493   0.395   1.784 -0.0769  2.6008  1.5428
17335TIP3    H273497   4.497   0.328   1.919 -0.3131  0.3622  0.4626
17336TIP3   OH273498   3.256   1.519  14.051 -0.3931 -0.6085 -0.0732
17336TIP3    H173499   3.260   1.559  14.139 -0.1776 -0.0321 -0.3425
17336TIP3    H273500   3.344   1.530  14.015 -0.8539  0.4430 -0.9137
17337TIP3   OH273501   1.941   3.942  11.750  0.8319  0.3145  0.2522
17337TIP3    H173502   1.956   3.975  11.838  2.5547 -1.0339  0.4908
17337TIP3    H273503   1.896   4.014  11.704 -1.6478  0.3841  2.6682
17338TIP3   OH273504   5.157   6.746  13.937  0.1001 -0.2851  0.0260
17338TIP3    H173505   5.216   6.821  13.944 -1.3102  1.0292 -1.6612
17338TIP3    H273506   5.083   6.769  13.993 -0.3183 -0.3977 -0.4741
17339TIP3   OH273507   5.065   5.585   0.315  0.2451 -0.7368  0.1398
17339TIP3    H173508   5.000   5.649   0.288  1.5214  0.7808  0.5683
17339TIP3    H273509   5.049   5.573   0.409  1.6736  0.9554  0.6151
17340TIP3   OH273510   2.739   6.751   2.579  0.3796  0.3284  0.3439
17340TIP3    H173511   2.782   6.673   2.544 -0.9091 -1.0074  1.6728
17340TIP3    H273512   2.738   6.739   2.674 -2.7215  0.3623  0.3921
17341TIP3   OH273513   2.330   2.976  16.296 -0.1956 -0.0261 -0.2008
17341TIP3    H173514   2.388   2.982  16.372  0.2530  0.5571 -0.5832
17341TIP3    H273515   2.286   3.061  16.292 -0.9309 -0.3942 -0.0344
17342TIP3   OH273516   1.656   3.549  15.274 -0.0313  0.1680  0.4241
17342TIP3    H173517   1.720   3.478  15.267 -1.0463 -0.8094  0.8028
17342TIP3    H273518   1.652   3.587  15.186  0.2365 -0.5105  0.1135
17343TIP3   OH273519   4.727   4.138   2.025 -0.0996  0.6202 -0.9202
17343TIP3    H173520   4.686   4.053   2.040  0.8097  0.4116  0.5272
17343TIP3    H273521   4.665   4.201   2.061  1.3407  0.2238  2.4339
17344TIP3   OH273522   3.019   6.313  13.543  0.6920  0.2321  0.0570
17344TIP3    H173523   2.981   6.401  13.548  0.6200  0.1852  0.3652
17344TIP3    H273524   2.976   6.265  13.614 -0.3800 -0.4774 -1.0771
17345TIP3   OH273525   1.279   2.903  14.416  0.4518  0.1435 -0.1969
17345TIP3    H173526   1.216   2.974  14.408 -0.2143 -0.5160 -0.9128
17345TIP3    H273527   1.228   2.824  14.400  1.2029 -0.4974  0.4954
17346TIP3   OH273528   3.991   3.775   2.130 -0.8750 -0.4380  0.3804
17346TIP3    H173529   3.942   3.757   2.050  1.9952  0.4726 -1.6467
17346TIP3    H273530   4.013   3.688   2.165 -2.2077 -0.8309  0.2580
17347TIP3   OH273531   4.165   0.124  11.184 -0.0095  0.0738 -0.2940
17347TIP3    H173532   4.186   0.054  11.246  1.4585  0.4258 -0.3619
17347TIP3    H273533   4.088   0.092  11.137  1.9296 -2.5125 -1.8523
17348TIP3   OH273534   3.877   0.501  11.964  0.0195 -0.1632  0.1468
17348TIP3    H173535   3.871   0.477  11.872  0.0894 -0.4141  0.2080
17348TIP3    H273536   3.811   0.569  11.975  1.3631  1.2782 -0.5402
17349TIP3   OH273537   3.020   0.583  14.222 -0.3259  0.6467 -0.0344
17349TIP3    H173538   2.973   0.511  14.263 -1.0500  0.0689 -1.8454
17349TIP3    H273539   2.961   0.658  14.232 -1.2792  0.1194 -1.5174
17350TIP3   OH273540   2.759   6.630  14.738  0.2434 -0.0641 -0.1759
17350TIP3    H173541   2.814   6.552  14.730 -1.1747 -0.9601 -1.5605
17350TIP3    H273542   2.804   6.696  14.684 -1.2305 -1.5214 -3.3309
17351TIP3   OH273543   4.432   6.293   5.550  0.0217 -0.2330  0.0279
17351TIP3    H173544   4.365   6.351   5.585  0.4481  0.7151 -0.6930
17351TIP3    H273545   4.408   6.281   5.459  0.3578 -0.5875 -0.0142
17352TIP3   OH273546   2.321   2.923   3.655  0.5290  0.2444  0.5192
17352TIP3    H173547   2.258   2.864   3.696 -0.6881  2.0036  1.1758
17352TIP3    H273548   2.404   2.901   3.698  0.5145 -2.3622 -0.6432
17353TIP3   OH273549   3.885   5.095   3.828 -0.5886 -0.4926 -0.1281
17353TIP3    H173550   3.922   5.163   3.884  1.8444 -3.0048  1.4777
17353TIP3    H273551   3.800   5.075   3.867 -0.9625  1.0630 -0.1360
17354TIP3   OH273552   5.711   3.082  12.738  0.3792  0.3586  0.1996
17354TIP3    H173553   5.646   3.112  12.674  2.0473 -1.3259 -2.3505
17354TIP3    H273554   5.784   3.143  12.728  0.5204  0.2690  0.7113
17355TIP3   OH273555   6.306   1.617   4.109 -0.2007  0.6269  0.6294
17355TIP3    H173556   6.342   1.572   4.186 -2.2663 -0.3023  1.0738
17355TIP3    H273557   6.215   1.588   4.104 -0.4535  1.6824 -1.4293
17356TIP3   OH273558   0.392   0.490   4.442 -0.0418  0.0722 -0.6058
17356TIP3    H173559   0.485   0.475   4.455  0.6152  3.6090 -0.6413
17356TIP3    H273560   0.380   0.485   4.347 -0.4127 -2.8016 -0.4526
17357TIP3   OH273561   2.823   6.622   6.394  0.2499  0.5893  0.3937
17357TIP3    H173562   2.744   6.568   6.401 -1.9314  3.5133 -0.7968
17357TIP3    H273563   2.819   6.680   6.469  1.0046  1.0637  0.0671
17358TIP3   OH273564   1.988   5.341  17.240  0.1128 -0.4099  0.2098
17358TIP3    H173565   2.010   5.388  17.159 -2.3809 -3.1800 -2.2110
17358TIP3    H273566   1.911   5.386  17.274  0.0725 -0.3594  0.0525
17359TIP3   OH273567   0.702   6.019  16.288  0.5204 -0.0883 -0.0393
17359TIP3    H173568   0.632   5.980  16.341  0.1516 -1.0177 -1.2188
17359TIP3    H273569   0.762   5.947  16.269  0.9432  0.3641 -0.4448
17360TIP3   OH273570   1.386   6.538  11.283  0.0941 -0.0052  0.1989
17360TIP3    H173571   1.451   6.491  11.231  1.1594 -0.7677  2.1662
17360TIP3    H273572   1.305   6.531  11.233  0.6120 -2.4993 -0.3380
17361TIP3   OH273573   3.673   6.452  14.526  0.0787 -0.5464  0.3576
17361TIP3    H173574   3.717   6.369  14.544  2.1530  0.3936 -0.2458
17361TIP3    H273575   3.581   6.427  14.511  0.8005 -2.8285 -0.6077
17362TIP3   OH273576   1.588   3.035  13.941 -0.0809 -0.3415  0.1040
17362TIP3    H173577   1.573   3.115  13.990  1.6674  2.0534 -3.0972
17362TIP3    H273578   1.513   2.979  13.962 -1.4955  2.2637  2.1223
17363TIP3   OH273579   2.134   6.416  12.421  0.7080 -0.5536 -0.3349
17363TIP3    H173580   2.151   6.505  12.391 -1.8282  0.4530  1.1032
17363TIP3    H273581   2.200   6.401  12.489  0.5959  0.5465  0.0246
17364TIP3   OH273582   4.332   0.278   3.682  0.6041 -0.1057 -0.1987
17364TIP3    H173583   4.388   0.310   3.612 -0.1184 -0.8303 -1.1151
17364TIP3    H273584   4.305   0.191   3.653 -2.9517  1.1840 -0.9122
17365TIP3   OH273585   5.550   1.658   4.241 -0.0592  0.1009 -0.0410
17365TIP3    H173586   5.467   1.706   4.230 -0.4836 -1.0719 -2.1204
17365TIP3    H273587   5.527   1.566   4.228  1.2717 -0.4200  1.1249
17366TIP3   OH273588   4.395   0.962   3.371  0.2962  0.2237 -0.2424
17366TIP3    H173589   4.359   0.874   3.355 -0.6640  0.4227  0.7153
17366TIP3    H273590   4.322   1.011   3.409  1.2974  0.9314  0.8268
17367TIP3   OH273591   1.140   3.604  12.417 -0.4987 -0.2683  0.5613
17367TIP3    H173592   1.121   3.683  12.467 -0.8003 -0.6187  1.0059
17367TIP3    H273593   1.056   3.579  12.378  0.1855  1.3078 -2.0438
17368TIP3   OH273594   2.616   4.308  10.910 -0.3751  0.2832  0.0458
17368TIP3    H173595   2.654   4.281  10.826 -0.4302 -0.8746  0.3910
17368TIP3    H273596   2.523   4.319  10.891 -0.3035  0.5391 -0.1687
17369TIP3   OH273597   1.368   4.702   5.484  0.3956 -0.3683  0.1206
17369TIP3    H173598   1.360   4.794   5.507 -0.3799 -0.4807  0.3260
17369TIP3    H273599   1.313   4.692   5.406 -0.1177 -0.8076  0.5343
17370TIP3   OH273600   4.620   4.773  14.457  0.0924 -0.9278  0.3352
17370TIP3    H173601   4.647   4.839  14.393 -1.1354  0.3819  1.1307
17370TIP3    H273602   4.659   4.802  14.539  0.8982 -2.0932  0.3692
17371TIP3   OH273603   0.982   0.961  14.628 -0.0601 -0.3174  0.0871
17371TIP3    H173604   0.917   1.022  14.663  1.1688  0.5848  0.8534
17371TIP3    H273605   1.037   1.014  14.570  0.9578 -0.7053  0.6746
17372TIP3   OH273606   4.554   6.034   3.670  0.0917 -0.4133  0.4246
17372TIP3    H173607   4.586   5.999   3.587 -0.2573  1.4714 -0.5311
17372TIP3    H273608   4.624   6.016   3.732  1.5464  0.5579 -0.8840
17373TIP3   OH273609   5.156   0.344  13.461  1.2076 -0.3211 -0.3642
17373TIP3    H173610   5.069   0.356  13.423  1.3794  1.4082 -0.2408
17373TIP3    H273611   5.155   0.254  13.494 -2.1310  0.9701  3.6135
17374TIP3   OH273612   2.729   3.480   1.019 -0.1164  0.3275 -0.5284
17374TIP3    H173613   2.759   3.412   0.959  2.0017  0.1766  0.6531
17374TIP3    H273614   2.703   3.433   1.098  0.3639  0.7954 -0.0859
17375TIP3   OH273615   0.899   4.877  11.734  0.0700 -0.6558  0.2725
17375TIP3    H173616   0.907   4.890  11.828  0.1482 -0.2056  0.2048
17375TIP3    H273617   0.811   4.908  11.713 -0.5142 -2.1547  0.4260
17376TIP3   OH273618   6.392   2.415   3.836  0.0811 -0.3713  0.2977
17376TIP3    H173619   6.307   2.441   3.801  0.3125 -1.1568 -0.8719
17376TIP3    H273620   6.456   2.462   3.783  0.3841  0.8927  1.7310
17377TIP3   OH273621   6.408   0.753   2.678  0.1496  0.1285  0.1201
17377TIP3    H173622   6.469   0.683   2.704 -1.1998 -0.8478  0.6850
17377TIP3    H273623   6.380   0.730   2.590 -1.5548 -0.9484  0.9178
17378TIP3   OH273624   5.957   2.357  17.280 -0.5652  0.5846  0.2815
17378TIP3    H173625   5.906   2.285  17.317  0.8243 -0.7724 -0.3710
17378TIP3    H273626   5.964   2.336  17.187  1.0886  0.7982  0.3489
17379TIP3   OH273627   4.047   1.526   3.216 -0.5101 -0.1152 -0.0709
17379TIP3    H173628   3.993   1.447   3.221  0.2695 -0.7230 -1.1910
17379TIP3    H273629   3.985   1.597   3.200 -1.0273 -0.7325 -0.7956
17380TIP3   OH273630   5.824   4.339   2.135  0.2839 -0.4862  0.0097
17380TIP3    H173631   5.760   4.278   2.170  0.8436 -0.7471  0.5798
17380TIP3    H273632   5.869   4.374   2.212 -0.6589  1.3572 -0.2292
17381TIP3   OH273633   0.437   6.500  17.279  0.6750  0.2006 -0.0274
17381TIP3    H173634   0.425   6.482  17.186  0.6629  0.2327 -0.0324
17381TIP3    H273635   0.363   6.455  17.321  1.0672 -0.4016  0.0289
17382TIP3   OH273636   3.486   5.865   5.051  0.1500  0.0533 -0.2057
17382TIP3    H173637   3.552   5.911   5.102 -0.1982 -0.6579  0.9262
17382TIP3    H273638   3.434   5.934   5.009  0.5299  0.6469  0.3035
17383TIP3   OH273639   3.470   3.255  13.749 -0.2897 -0.1655 -0.1065
17383TIP3    H173640   3.539   3.189  13.762 -2.3998 -2.0819  1.8290
17383TIP3    H273641   3.437   3.236  13.661  0.7556 -0.0955 -0.5241
17384TIP3   OH273642   4.406   6.584   3.307 -0.3097 -0.3560 -0.2957
17384TIP3    H173643   4.439   6.514   3.250 -2.1502 -0.9980 -0.6234
17384TIP3    H273644   4.466   6.657   3.293  1.3384 -1.6969 -0.3559
17385TIP3   OH273645   6.784   6.224   5.101 -0.4338 -0.3622  0.5062
17385TIP3    H173646   6.703   6.247   5.148 -0.9545  1.3713 -1.1651
17385TIP3    H273647   6.854   6.261   5.155 -0.9568  0.7470  0.4388
17386TIP3   OH273648   0.560   6.106  14.243 -0.0175  0.2377  0.0020
17386TIP3    H173649   0.465   6.115  14.236 -0.2440 -2.5083 -0.8318
17386TIP3    H273650   0.595   6.158  14.171 -0.9515 -0.1966 -0.7645
17387TIP3   OH273651   2.243   1.891  14.134 -0.0381  0.4325  0.0476
17387TIP3    H173652   2.243   1.796  14.139 -1.0884  0.3947 -0.4806
17387TIP3    H273653   2.268   1.921  14.221 -0.1661 -0.3164  0.3371
17388TIP3   OH273654   0.208   5.232  11.831  0.3706 -0.0978  0.1139
17388TIP3    H173655   0.203   5.223  11.736  2.5127  3.0317 -0.3706
17388TIP3    H273656   0.279   5.173  11.857  0.0774 -0.6206 -0.2507
17389TIP3   OH273657   4.222   4.505  14.538 -0.4492 -0.5616 -0.3800
17389TIP3    H173658   4.297   4.562  14.522 -1.7391  1.5076  0.6987
17389TIP3    H273659   4.221   4.445  14.463  1.5930  0.1165 -0.9811
17390TIP3   OH273660   4.026   5.963  16.952  0.0396  0.3194  0.5913
17390TIP3    H173661   3.994   5.881  16.915 -0.8747  0.1721  1.6734
17390TIP3    H273662   4.068   6.008  16.879 -2.7590  0.5796 -0.9224
17391TIP3   OH273663   2.714   4.039   2.906  0.0270  0.0831 -0.6130
17391TIP3    H173664   2.671   3.976   2.964  1.2640 -0.7547 -0.5899
17391TIP3    H273665   2.668   4.030   2.822 -1.2061  0.6924 -0.0051
17392TIP3   OH273666   1.166   1.660  12.708  0.5654  0.3817  0.2255
17392TIP3    H173667   1.188   1.750  12.731  0.0504  0.0661  2.0298
17392TIP3    H273668   1.085   1.642  12.755  0.5847 -0.9792 -0.2446
17393TIP3   OH273669   1.587   0.951  14.474 -0.4230 -0.3547  0.3046
17393TIP3    H173670   1.604   1.045  14.468 -2.1810  0.0028  0.7844
17393TIP3    H273671   1.492   0.944  14.485 -0.4201 -2.2338 -0.6988
17394TIP3   OH273672   5.602   2.697  13.977  0.1504 -0.1786  0.1566
17394TIP3    H173673   5.539   2.719  14.046  1.0560  1.3145  0.5355
17394TIP3    H273674   5.673   2.651  14.023 -0.8888 -2.3417 -0.3500
17395TIP3   OH273675   1.999   5.505   3.712  0.3291  0.3835  0.2775
17395TIP3    H173676   1.940   5.578   3.693  1.0908  0.5628 -1.5250
17395TIP3    H273677   1.952   5.428   3.679  0.6801  0.4087 -0.2909
17396TIP3   OH273678   4.937   4.637  14.926  0.0392  0.4822  0.1602
17396TIP3    H173679   4.932   4.577  15.000 -0.7571  0.6140  0.2191
17396TIP3    H273680   4.985   4.588  14.859 -1.5252 -0.6425 -0.1697
17397TIP3   OH273681   6.180   6.347  12.796  0.3395  0.2266  0.1250
17397TIP3    H173682   6.226   6.342  12.879 -1.6854 -1.1593  1.2044
17397TIP3    H273683   6.215   6.275  12.744  0.3528 -0.0039  0.4527
17398TIP3   OH273684   1.523   3.218  13.438  0.4956  0.3881  0.0598
17398TIP3    H173685   1.507   3.227  13.532 -1.1806 -1.5059 -0.0170
17398TIP3    H273686   1.590   3.150  13.431 -0.3663 -0.4583 -0.1472
17399TIP3   OH273687   1.494   0.753  16.322 -0.4983 -0.2041  0.4713
17399TIP3    H173688   1.456   0.666  16.310  0.5421 -0.4116 -1.5587
17399TIP3    H273689   1.516   0.782  16.233  2.4412  0.6223  1.3986
17400TIP3   OH273690   5.085   0.794   0.546  0.3805 -0.4412  0.2119
17400TIP3    H173691   5.116   0.721   0.599 -0.0631 -0.5241  0.3592
17400TIP3    H273692   4.996   0.809   0.576  0.3737 -0.0256 -0.0190
17401TIP3   OH273693   5.561   5.968  16.734 -0.3996 -0.0470  0.3270
17401TIP3    H173694   5.625   5.938  16.669 -0.5615 -1.3689  0.7537
17401TIP3    H273695   5.494   5.900  16.734 -1.9467  1.4462 -0.2851
17402TIP3   OH273696   2.928   0.051   4.063 -0.2580  0.4258  0.2398
17402TIP3    H173697   2.875   0.042   4.141 -0.4295  0.7843  0.1649
17402TIP3    H273698   2.881   0.114   4.008 -0.3478 -0.1217 -0.3257
17403TIP3   OH273699   0.119   4.797  16.615 -0.8537  0.6165 -0.5849
17403TIP3    H173700   0.119   4.836  16.702 -0.2205  2.7989 -1.5481
17403TIP3    H273701   0.040   4.742  16.614  0.6258 -1.7751  2.3436
17404TIP3   OH273702   5.543   0.277   2.374 -0.2501  0.1455  0.3682
17404TIP3    H173703   5.614   0.341   2.374 -1.3882  1.4398  1.2778
17404TIP3    H273704   5.465   0.327   2.348 -0.9573 -1.1057  0.0429
17405TIP3   OH273705   3.391   4.870   3.107  0.3300  0.6086 -0.0231
17405TIP3    H173706   3.395   4.804   3.038 -0.8388  0.6322 -0.1124
17405TIP3    H273707   3.346   4.827   3.179 -0.0637  1.1700  0.0706
17406TIP3   OH273708   0.928   5.206  16.090  0.0215 -0.0227 -0.1467
17406TIP3    H173709   0.988   5.278  16.071 -0.6713  0.7685  0.6277
17406TIP3    H273710   0.970   5.158  16.161  0.0287  0.1632 -0.0271
17407TIP3   OH273711   3.955   0.179   4.795 -0.1503  0.0873 -0.0082
17407TIP3    H173712   4.043   0.145   4.781  0.0190 -0.8146  3.1151
17407TIP3    H273713   3.897   0.117   4.750  0.4004 -2.5708  2.8347
17408TIP3   OH273714   5.414   5.961  13.823 -0.3010 -0.1324 -0.0081
17408TIP3    H173715   5.447   6.036  13.872 -1.8166  0.9292 -0.5865
17408TIP3    H273716   5.449   5.885  13.870 -1.1736  0.8633  2.3318
17409TIP3   OH273717   5.223   0.743   5.238 -0.2707  0.2379 -0.0098
17409TIP3    H173718   5.310   0.703   5.237 -0.4484 -0.2327  2.1073
17409TIP3    H273719   5.164   0.672   5.211 -0.1187  0.2587 -0.3979
17410TIP3   OH273720   4.520   4.302   1.814 -0.4750  0.1314  0.0861
17410TIP3    H173721   4.575   4.330   1.887 -1.2130 -1.0539  1.1240
17410TIP3    H273722   4.523   4.374   1.752 -0.4800  1.5188  1.6562
17411TIP3   OH273723   5.074   0.450   3.015 -0.6681 -0.4901  0.8106
17411TIP3    H173724   4.989   0.487   3.038  0.2242  0.7117  2.2486
17411TIP3    H273725   5.105   0.504   2.942 -0.4568  0.0472  1.2975
17412TIP3   OH273726   1.476   1.444   1.763  0.3837 -0.5320  0.3646
17412TIP3    H173727   1.566   1.446   1.732  0.2897 -0.2215  0.1115
17412TIP3    H273728   1.476   1.496   1.843  0.1941  0.4599 -0.2643
17413TIP3   OH273729   4.862   5.734   5.674  0.7345  0.0290  0.4741
17413TIP3    H173730   4.768   5.746   5.688  0.6227 -0.4986  0.2031
17413TIP3    H273731   4.879   5.644   5.703  1.1007  0.0263  0.2562
17414TIP3   OH273732   5.597   4.861  16.787 -0.2266  0.1226  0.2655
17414TIP3    H173733   5.637   4.781  16.821 -0.1009  0.5388  1.0782
17414TIP3    H273734   5.583   4.916  16.863 -2.8755 -0.2446  0.0938
17415TIP3   OH273735   2.151   2.117   2.826 -0.1842 -0.6544  0.1418
17415TIP3    H173736   2.222   2.165   2.869 -0.5038 -0.2918  0.2664
17415TIP3    H273737   2.184   2.100   2.738 -0.3747  0.4680 -0.1466
17416TIP3   OH273738   3.922   1.321   4.201 -0.3837 -0.0070  1.3216
17416TIP3    H173739   3.913   1.227   4.189  1.2940 -0.1447  0.9163
17416TIP3    H273740   4.009   1.332   4.240 -0.3898  1.3988  0.9825
17417TIP3   OH273741   5.719   6.084   1.357 -0.5323 -0.1767  0.0738
17417TIP3    H173742   5.737   6.133   1.438  0.5172 -0.5270  0.0682
17417TIP3    H273743   5.786   6.114   1.296 -1.7085  0.5357 -0.8712
17418TIP3   OH273744   0.019   3.054  10.591  0.0049  0.5340  0.4599
17418TIP3    H173745   0.091   2.993  10.609 -0.4154 -0.2631 -0.4912
17418TIP3    H273746   0.022   3.117  10.663  1.3773  0.2546  0.6715
17419TIP3   OH273747   3.670   3.295   5.293 -0.7361 -0.0143 -0.0370
17419TIP3    H173748   3.585   3.324   5.259 -0.4870  0.5602 -0.1853
17419TIP3    H273749   3.733   3.333   5.232 -0.3310  0.2716  0.5578
17420TIP3   OH273750   2.057   5.139   5.103  0.3634 -0.1579 -0.2935
17420TIP3    H173751   2.013   5.101   5.028  1.3298  0.1069 -1.0064
17420TIP3    H273752   2.136   5.086   5.115  0.2778 -0.1287  0.4654
17421TIP3   OH273753   1.700   4.158  12.329 -0.0579  0.5559 -0.2854
17421TIP3    H173754   1.714   4.064  12.342 -0.1710  0.2119 -2.4305
17421TIP3    H273755   1.786   4.197  12.342  0.1661  0.0459 -0.2070
17422TIP3   OH273756   1.586   5.441   5.099 -0.0265  0.0048 -0.0508
17422TIP3    H173757   1.549   5.354   5.085  0.7088 -0.2470 -0.4339
17422TIP3    H273758   1.606   5.473   5.011  2.7287 -0.7598  0.2415
17423TIP3   OH273759   5.239   3.577   1.535 -0.0215 -0.2523 -0.5920
17423TIP3    H173760   5.212   3.667   1.515  0.3850  0.0139  0.0656
17423TIP3    H273761   5.310   3.587   1.598  1.4075 -0.9570 -2.0392
17424TIP3   OH273762   1.848   0.061   6.112 -0.1938  0.0737  0.4115
17424TIP3    H173763   1.943   0.064   6.115 -0.2080  0.0376  0.9095
17424TIP3    H273764   1.826  -0.029   6.139 -0.3643  0.0434  0.1765
17425TIP3   OH273765   3.888   5.487  13.110  0.4186 -0.0964  0.0369
17425TIP3    H173766   3.801   5.453  13.130  0.6939 -0.6022  0.3939
17425TIP3    H273767   3.884   5.513  13.018 -0.5693  1.3114  0.4815
17426TIP3   OH273768   5.187   4.127  11.067  0.9114 -0.9541 -0.1604
17426TIP3    H173769   5.281   4.125  11.086  0.6699 -1.0188  1.0172
17426TIP3    H273770   5.160   4.036  11.068  1.2794 -1.1584 -2.8443
17427TIP3   OH273771   6.658   4.215  12.610 -0.5575 -0.8313  0.9853
17427TIP3    H173772   6.748   4.192  12.591  0.7127  1.7298  3.5474
17427TIP3    H273773   6.645   4.189  12.702 -1.0728  2.5661  1.9265
17428TIP3   OH273774   6.087   3.561   3.660 -0.1283  0.4396  0.1920
17428TIP3    H173775   6.028   3.485   3.661 -0.7701  0.9469  0.9629
17428TIP3    H273776   6.061   3.612   3.737  0.5806  1.2288 -0.0970
17429TIP3   OH273777   5.584   6.488   1.943  0.0699  0.3213 -0.8910
17429TIP3    H173778   5.677   6.470   1.929 -0.1262 -1.5698  0.1315
17429TIP3    H273779   5.538   6.421   1.894 -0.7492  0.6808 -0.6346
17430TIP3   OH273780   0.805   0.724   2.259 -0.4732 -0.4256 -0.0473
17430TIP3    H173781   0.755   0.655   2.214 -1.8917 -0.8890  2.1605
17430TIP3    H273782   0.762   0.805   2.235 -1.2861 -0.6808  0.5353
17431TIP3   OH273783   2.587   1.601   4.894  0.1919 -0.0503  0.4336
17431TIP3    H173784   2.541   1.518   4.891 -1.3726  0.8298 -0.1383
17431TIP3    H273785   2.657   1.587   4.959  1.0281 -2.3250 -0.8964
17432TIP3   OH273786   4.713   4.610  14.795 -0.0009 -0.5272 -0.5416
17432TIP3    H173787   4.780   4.627  14.861  0.1618 -0.6605 -0.6731
17432TIP3    H273788   4.690   4.697  14.762 -0.2117 -0.4475 -0.1817
17433TIP3   OH273789   1.312   6.743   2.280  0.2591 -0.5834  0.2677
17433TIP3    H173790   1.369   6.819   2.293  0.0179 -0.1679 -1.1106
17433TIP3    H273791   1.227   6.772   2.314  0.4782 -0.6740  0.9022
17434TIP3   OH273792   0.134   0.071  12.909 -0.3116  0.2024  0.0830
17434TIP3    H173793   0.046   0.036  12.894  0.3061 -0.8259 -1.3138
17434TIP3    H273794   0.144   0.140  12.843 -0.4722  1.0859  0.9731
17435TIP3   OH273795   6.024   6.435  15.609 -0.8992  0.0012 -0.6885
17435TIP3    H173796   6.091   6.421  15.542  0.3239  0.2944  0.4594
17435TIP3    H273797   5.991   6.347  15.629  0.8821 -0.4134  0.5031
17436TIP3   OH273798   1.213   2.340   0.023 -0.4084  0.8042 -0.2625
17436TIP3    H173799   1.276   2.405  -0.009 -0.2971 -0.2147 -2.1757
17436TIP3    H273800   1.238   2.259  -0.021 -1.3045 -0.2588  1.1648
17437TIP3   OH273801   0.500   0.339  17.095  0.6891  0.1104  0.5252
17437TIP3    H173802   0.547   0.293  17.165  0.0100  1.4231  1.8700
17437TIP3    H273803   0.441   0.272  17.059 -0.0161 -0.2138  2.2085
17438TIP3   OH273804   0.905   4.468  13.251  0.0901 -0.1151  0.1802
17438TIP3    H173805   0.950   4.390  13.219 -0.5183 -0.7605  0.8590
17438TIP3    H273806   0.919   4.534  13.183 -0.9755 -1.3692 -1.2846
17439TIP3   OH273807   2.530   3.866  11.232 -0.1841  0.1096  0.2489
17439TIP3    H173808   2.526   3.900  11.322 -0.0255 -1.0490  0.7166
17439TIP3    H273809   2.541   3.943  11.177  0.2644  0.7922  1.2739
17440TIP3   OH273810   1.957   4.966  10.665  0.7493  0.3829  0.1150
17440TIP3    H173811   1.918   4.971  10.577 -0.4531  0.9061  0.6658
17440TIP3    H273812   2.051   4.980  10.651  0.8237 -1.2762 -1.2918
17441TIP3   OH273813   2.013   3.819   5.667  0.9184 -0.1704  0.1737
17441TIP3    H173814   1.970   3.736   5.687 -1.1192  0.4024 -1.6352
17441TIP3    H273815   1.962   3.855   5.594  3.1332  1.6184 -0.5246
17442TIP3   OH273816   6.015   1.396  12.773 -0.1779 -0.1130 -0.4204
17442TIP3    H173817   6.062   1.343  12.708 -1.7006 -1.4524 -0.4557
17442TIP3    H273818   5.934   1.422  12.729 -0.2845  0.7000  0.2467
17443TIP3   OH273819   4.471   6.540   3.794 -0.3166 -0.0734 -0.2376
17443TIP3    H173820   4.505   6.625   3.820 -2.7248  1.0651 -0.7258
17443TIP3    H273821   4.421   6.557   3.714 -0.5426 -1.9937 -0.5308
17444TIP3   OH273822   4.247   6.463  16.054  0.0879 -0.0423 -0.2879
17444TIP3    H173823   4.314   6.511  16.103 -1.9917  1.7664  0.8643
17444TIP3    H273824   4.186   6.530  16.025 -1.5516 -1.7295 -0.8258
17445TIP3   OH273825   6.738   5.475   2.200  0.1332  0.1149  0.5572
17445TIP3    H173826   6.802   5.533   2.159  1.0732 -0.6683  0.9024
17445TIP3    H273827   6.696   5.431   2.127  0.1015  0.5023  0.3367
17446TIP3   OH273828   0.513   0.983   4.827  0.1732  0.3314  0.1044
17446TIP3    H173829   0.422   0.977   4.855  0.7774  0.4112  2.0998
17446TIP3    H273830   0.560   0.921   4.881  0.9829 -1.4057 -2.4980
17447TIP3   OH273831   0.218   3.794   0.848 -0.0618  0.5148  0.0701
17447TIP3    H173832   0.294   3.813   0.903 -0.7683 -0.4145  1.4038
17447TIP3    H273833   0.143   3.811   0.905 -0.8674  1.5973 -1.2903
17448TIP3   OH273834   5.238   2.762   0.338 -0.0605  0.2808  0.1064
17448TIP3    H173835   5.185   2.830   0.297 -0.5588  0.3231  0.8148
17448TIP3    H273836   5.328   2.795   0.335 -0.3750  1.2429  1.0002
17449TIP3   OH273837   0.729   4.735   0.025 -0.5058 -0.1627 -0.3601
17449TIP3    H173838   0.717   4.752  -0.069 -0.2360  0.5199 -0.2800
17449TIP3    H273839   0.803   4.791   0.049  0.9834 -2.1536 -0.2446
17450TIP3   OH273840   6.308   4.577  17.122  0.2974  0.1927 -0.1012
17450TIP3    H173841   6.372   4.621  17.065  1.0955  0.3709  0.9291
17450TIP3    H273842   6.291   4.493  17.078  1.6442 -0.0842 -0.1227
17451TIP3   OH273843   1.772   6.105  13.023  0.2558  0.2842 -0.6152
17451TIP3    H173844   1.765   6.027  12.969  1.1989 -1.2460  1.3844
17451TIP3    H273845   1.845   6.154  12.986 -0.0866  0.0248 -1.6413
17452TIP3   OH273846   0.497   4.441   1.604  0.2102 -0.2251 -0.1480
17452TIP3    H173847   0.429   4.410   1.545  1.5690 -1.1377 -1.2545
17452TIP3    H273848   0.529   4.522   1.564  0.3649 -0.2559 -0.0888
17453TIP3   OH273849   3.399   4.784   2.470  0.0858 -0.2843 -0.4701
17453TIP3    H173850   3.326   4.725   2.490  0.7419 -0.9675 -0.0623
17453TIP3    H273851   3.438   4.804   2.555  0.3840  0.0647 -0.6873
17454TIP3   OH273852   6.606   5.441   3.163  0.5324  0.0539  0.5272
17454TIP3    H173853   6.687   5.468   3.205  1.6261 -0.9260 -0.8769
17454TIP3    H273854   6.554   5.402   3.233  1.5501  0.1094  1.3236
17455TIP3   OH273855   5.844   4.972   4.791  0.0903 -0.2436 -0.0352
17455TIP3    H173856   5.781   5.002   4.855 -0.9218 -1.0708 -0.6327
17455TIP3    H273857   5.895   5.050   4.768 -1.3180  0.6154 -0.2373
17456TIP3   OH273858   4.477   1.720  16.496  0.2530 -0.3772  0.4081
17456TIP3    H173859   4.408   1.695  16.557 -0.3070 -0.4504 -0.2551
17456TIP3    H273860   4.468   1.815  16.487  0.7976 -0.2635  0.9961
17457TIP3   OH273861   6.044   1.542   4.096  0.1526 -0.2769  0.1420
17457TIP3    H173862   6.054   1.519   4.189 -1.6722  0.2698  0.5009
17457TIP3    H273863   6.002   1.465   4.057  0.6930 -0.4100 -0.1688
17458TIP3   OH273864   2.633   3.309  15.102  0.3176  0.3698 -0.1213
17458TIP3    H173865   2.615   3.220  15.131  0.0226  0.2177 -0.7531
17458TIP3    H273866   2.683   3.348  15.173 -1.4378  0.3954  1.1425
17459TIP3   OH273867   0.957   3.812  14.385  0.1096 -0.3205  0.7269
17459TIP3    H173868   0.980   3.750  14.455  0.0914  0.3307  1.3158
17459TIP3    H273869   0.989   3.897  14.417 -0.2425  0.0454  0.1131
17460TIP3   OH273870   0.924   1.352  13.619  0.5907  0.3219  0.2912
17460TIP3    H173871   0.975   1.286  13.665  1.2500  0.5033 -0.1745
17460TIP3    H273872   0.926   1.429  13.677  1.7632  0.6857 -0.2116
17461TIP3   OH273873   1.684   1.626   6.606 -0.4154 -0.1001  1.0782
17461TIP3    H173874   1.726   1.704   6.641 -0.1331  0.2447 -0.0088
17461TIP3    H273875   1.741   1.598   6.534 -0.8503 -0.9368  1.0482
17462TIP3   OH273876   4.209   2.186  11.887  0.7616  0.0969 -0.1624
17462TIP3    H173877   4.163   2.252  11.939 -0.0273  0.3657 -1.1866
17462TIP3    H273878   4.171   2.103  11.915 -1.2796  0.4108 -1.9189
17463TIP3   OH273879   4.370   2.514   1.237 -0.0761 -0.3612  0.2832
17463TIP3    H173880   4.340   2.427   1.212  1.0392 -1.2446  1.8804
17463TIP3    H273881   4.292   2.569   1.233 -0.8547 -1.5139 -0.4401
17464TIP3   OH273882   4.893   0.185   4.231 -0.1676 -0.4677 -0.6207
17464TIP3    H173883   4.946   0.136   4.294 -1.6847  0.4235  1.4346
17464TIP3    H273884   4.842   0.245   4.285  1.0695  2.8625 -3.0185
17465TIP3   OH273885   3.878   5.466  14.962 -0.4100 -0.3198 -0.2971
17465TIP3    H173886   3.938   5.400  14.998 -1.5499 -0.2930  1.7019
17465TIP3    H273887   3.861   5.437  14.873  1.9815 -0.7397 -0.6533
17466TIP3   OH273888   2.618   5.217   0.860  0.5671 -0.3655 -0.1910
17466TIP3    H173889   2.654   5.275   0.927  0.7647 -0.8859  0.1490
17466TIP3    H273890   2.694   5.194   0.806  0.5700 -0.6753 -0.0540
17467TIP3   OH273891   6.049   4.237   1.943  0.4720 -0.7736 -0.5363
17467TIP3    H173892   5.978   4.245   2.007 -0.0131 -2.0484 -0.8969
17467TIP3    H273893   6.112   4.178   1.985  1.4855  0.6357 -0.0731
17468TIP3   OH273894   2.153   5.436  14.641  0.1808  0.5395  0.4672
17468TIP3    H173895   2.217   5.477  14.582 -0.2882  0.3409 -0.1831
17468TIP3    H273896   2.091   5.393  14.583  0.0622 -0.1911  1.1216
17469TIP3   OH273897   0.285   5.272  10.540 -0.2058  0.0993  0.3485
17469TIP3    H173898   0.195   5.287  10.569  0.2769  1.4291  1.2214
17469TIP3    H273899   0.324   5.359  10.536  1.0711 -0.4646  0.0726
17470TIP3   OH273900   2.070   6.602  13.948 -0.4004 -0.4928 -0.6731
17470TIP3    H173901   2.013   6.610  13.871 -4.0103 -0.9179  1.8105
17470TIP3    H273902   2.065   6.688  13.991 -0.9912 -1.2103  0.7407
17471TIP3   OH273903   6.050   4.766  10.441  0.3207  0.2595  0.2687
17471TIP3    H173904   5.973   4.761  10.386 -0.9772 -1.8710  2.2052
17471TIP3    H273905   6.021   4.813  10.520  1.0495 -0.3015  0.8861
17472TIP3   OH273906   0.965   3.034  15.691 -0.0533 -0.0608 -0.2357
17472TIP3    H173907   1.027   3.102  15.666  0.0700 -0.7964 -2.0342
17472TIP3    H273908   0.879   3.075  15.679  0.0564  0.4006  0.5634
17473TIP3   OH273909   2.574   3.554  13.158 -0.0687 -0.2236 -0.1913
17473TIP3    H173910   2.558   3.465  13.126 -0.0887 -0.6660  1.0234
17473TIP3    H273911   2.512   3.608  13.109 -0.1559 -0.8950 -0.8316
17474TIP3   OH273912   6.270   1.008  12.750  0.5319  0.2027  0.3808
17474TIP3    H173913   6.344   0.996  12.809  0.9648 -0.5636 -0.3122
17474TIP3    H273914   6.285   0.945  12.679  0.0298  1.1217 -0.5601
17475TIP3   OH273915   4.853   5.770   4.030 -0.3599 -0.1774 -0.2949
17475TIP3    H173916   4.850   5.675   4.017 -2.9515  0.2735 -3.4845
17475TIP3    H273917   4.942   5.794   4.006  0.4166 -1.7979  0.8389
17476TIP3   OH273918   3.734   3.807   0.853 -0.3112 -0.5129 -0.0456
17476TIP3    H173919   3.784   3.727   0.867 -0.2414 -0.2434  1.3902
17476TIP3    H273920   3.647   3.777   0.828  0.1919 -1.0060 -1.1862
17477TIP3   OH273921   3.809   2.574  16.189  0.0675  0.3253  0.3003
17477TIP3    H173922   3.719   2.596  16.213 -0.0434  1.5668 -1.1847
17477TIP3    H273923   3.846   2.534  16.268 -1.6903  0.0501  1.0135
17478TIP3   OH273924   2.553   2.565   3.829  1.2447 -0.1402 -0.5504
17478TIP3    H173925   2.546   2.660   3.841 -0.7117 -0.1079 -1.7829
17478TIP3    H273926   2.596   2.534   3.909  1.1786  1.6962  0.2164
17479TIP3   OH273927   2.811   0.874   2.872  0.0599 -0.4677  0.2001
17479TIP3    H173928   2.856   0.902   2.792  1.9255 -0.2097  1.3064
17479TIP3    H273929   2.747   0.943   2.889  1.8308  1.0897  0.6615
17480TIP3   OH273930   6.664   0.080  13.750 -0.0966 -0.0253 -0.4390
17480TIP3    H173931   6.687  -0.008  13.723  0.9211 -0.5512  1.9892
17480TIP3    H273932   6.738   0.134  13.724 -0.8050  0.1714 -2.1004
17481TIP3   OH273933   4.221   0.900   1.352 -0.2090 -0.2008  0.2947
17481TIP3    H173934   4.128   0.890   1.329 -0.2481  0.3921  0.1783
17481TIP3    H273935   4.235   0.995   1.351  1.3584 -0.3772 -3.5642
17482TIP3   OH273936   5.335   0.575  15.943 -0.3900 -0.3765 -0.1274
17482TIP3    H173937   5.355   0.517  16.016 -1.1302  0.9848  1.1781
17482TIP3    H273938   5.404   0.642  15.947 -1.0901  0.3502  0.0599
17483TIP3   OH273939   4.703   4.061   4.281 -0.6913  0.4136 -0.1961
17483TIP3    H173940   4.777   4.086   4.226  0.1329  1.2315  1.2487
17483TIP3    H273941   4.720   3.971   4.306 -1.1088  0.0135 -1.3284
17484TIP3   OH273942   5.757   4.287  13.378 -0.4754  0.2137  0.1787
17484TIP3    H173943   5.784   4.231  13.451  0.9050  0.2551 -0.2760
17484TIP3    H273944   5.830   4.281  13.316 -0.9319  1.4308 -0.4805
17485TIP3   OH273945   0.298   2.620  11.598  0.1919  0.0686 -0.6167
17485TIP3    H173946   0.215   2.667  11.607 -0.8220 -1.4626 -1.6128
17485TIP3    H273947   0.272   2.528  11.591  1.8712 -0.2882 -2.4586
17486TIP3   OH273948   2.924   1.943   1.390  0.2597 -0.1566 -0.0440
17486TIP3    H173949   2.908   1.989   1.472 -2.8031  0.7203 -1.0992
17486TIP3    H273950   2.951   1.855   1.417  1.2495  0.6975  1.8896
17487TIP3   OH273951   1.096   6.764   6.339 -0.6454 -0.6366 -0.4623
17487TIP3    H173952   1.168   6.825   6.325 -1.2569  0.4911  1.1176
17487TIP3    H273953   1.100   6.704   6.265  1.9136 -0.5940 -0.3915
17488TIP3   OH273954   5.403   4.141   4.669  0.1243  0.4362 -0.3222
17488TIP3    H173955   5.369   4.193   4.596 -0.8259  0.3796  0.0658
17488TIP3    H273956   5.397   4.050   4.639  1.4656  0.5216 -0.8701
17489TIP3   OH273957   3.712   1.296  16.971 -0.0940 -0.3210 -0.1752
17489TIP3    H173958   3.670   1.298  16.885  0.2120 -0.6762 -0.3331
17489TIP3    H273959   3.731   1.204  16.987 -0.1957 -0.2627  0.2979
17490TIP3   OH273960   4.614   3.997   2.858  0.6502  0.0643 -0.5808
17490TIP3    H173961   4.633   3.967   2.769  2.8239  0.2439 -0.2263
17490TIP3    H273962   4.585   4.088   2.847  1.1369  0.1626 -1.1030
17491TIP3   OH273963   4.591   4.184  15.768 -0.1104 -0.2810 -0.0011
17491TIP3    H173964   4.683   4.177  15.745 -0.2920  0.2800 -0.8878
17491TIP3    H273965   4.576   4.277  15.781 -0.1601 -0.5129  1.8006
17492TIP3   OH273966   5.369   6.626   1.510  0.4161  0.1319  0.2548
17492TIP3    H173967   5.407   6.680   1.441 -0.5398 -0.6774 -0.9209
17492TIP3    H273968   5.410   6.658   1.590  1.7438  0.9010 -0.7077
17493TIP3   OH273969   4.153   5.366   4.387 -0.4211 -0.0664 -0.0918
17493TIP3    H173970   4.166   5.277   4.354  2.2104  0.6926 -1.1819
17493TIP3    H273971   4.195   5.366   4.473 -1.0171 -0.0416  0.2053
17494TIP3   OH273972   1.678   1.297   5.657  0.5964 -0.1931  0.1943
17494TIP3    H173973   1.636   1.380   5.678  0.3694 -0.4506  0.7695
17494TIP3    H273974   1.637   1.233   5.716  1.8911 -0.4200  0.8823
17495TIP3   OH273975   1.664   1.597   5.494  0.6788 -0.1879  0.7122
17495TIP3    H173976   1.736   1.534   5.485 -1.6072 -3.0004  1.1507
17495TIP3    H273977   1.622   1.598   5.408 -0.7447 -1.1377  1.3796
17496TIP3   OH273978   0.694   2.881   4.481  0.8312 -0.4403  0.2397
17496TIP3    H173979   0.780   2.914   4.506  0.4647 -0.2823  1.3167
17496TIP3    H273980   0.700   2.786   4.494  1.1610 -0.5470 -0.6661
17497TIP3   OH273981   3.720   2.298  13.507  0.5025  0.0047  0.2359
17497TIP3    H173982   3.758   2.214  13.534 -0.1356 -0.6780 -0.9728
17497TIP3    H273983   3.795   2.349  13.476  0.5985 -0.9437 -1.1304
17498TIP3   OH273984   2.827   2.342  15.607 -0.1891  0.0318  0.1630
17498TIP3    H173985   2.757   2.373  15.551  0.0318 -2.5776 -1.6834
17498TIP3    H273986   2.785   2.325  15.692 -1.3279  0.4691 -0.3117
17499TIP3   OH273987   1.110   5.035   1.916  0.2213 -0.1328 -0.0267
17499TIP3    H173988   1.101   5.130   1.914  0.5327 -0.0901  0.4410
17499TIP3    H273989   1.027   5.004   1.953 -0.7791 -0.1920 -2.2625
17500TIP3   OH273990   1.234   4.709   6.373 -0.0952  0.0524  0.9925
17500TIP3    H173991   1.315   4.748   6.340  0.7393 -2.2042  0.2376
17500TIP3    H273992   1.172   4.718   6.301 -0.5677  1.9045  1.6201
17501TIP3   OH273993   0.742   4.343  14.114 -0.4808 -0.3092  0.3496
17501TIP3    H173994   0.780   4.403  14.050 -2.0053  2.2333  1.7653
17501TIP3    H273995   0.818   4.302  14.156  0.6052  1.2041 -0.1027
17502TIP3   OH273996   6.716   0.880  13.351  0.4610  0.5182  0.1535
17502TIP3    H173997   6.768   0.840  13.421  0.8308 -0.3256 -0.5972
17502TIP3    H273998   6.693   0.967  13.385  0.9947  0.2778  1.1479
17503TIP3   OH273999   0.907   6.603   3.538 -0.2123 -0.4558  0.1498
17503TIP3    H174000   0.896   6.697   3.554  0.6255 -0.3967  0.3839
17503TIP3    H274001   0.939   6.568   3.622 -1.2923 -1.0886  0.3118
17504TIP3   OH274002   3.891   3.816  11.863 -0.1293  0.1184 -0.3508
17504TIP3    H174003   3.928   3.836  11.949 -1.5318  2.9325 -0.3378
17504TIP3    H274004   3.947   3.747  11.828  1.1699 -0.2587  2.3270
17505TIP3   OH274005   6.279   3.920   2.803 -0.1404 -0.7110  0.3761
17505TIP3    H174006   6.301   4.012   2.819  0.1455 -0.5713 -0.7927
17505TIP3    H274007   6.183   3.919   2.796 -0.1397 -0.4881  0.3198
17506TIP3   OH274008   2.759   2.068   4.147  0.4234  0.3021 -0.9016
17506TIP3    H174009   2.734   2.044   4.237  0.7683 -1.5172 -1.2606
17506TIP3    H274010   2.825   2.137   4.158 -0.9608  1.4810  0.1798
17507TIP3   OH274011   4.337   3.591   1.138 -0.6396  0.1024 -0.1492
17507TIP3    H174012   4.290   3.637   1.068  0.4043 -0.1338 -1.0220
17507TIP3    H274013   4.283   3.514   1.155  0.0092 -0.8002 -1.9976
17508TIP3   OH274014   0.020   5.822   0.214  0.1974 -0.6144 -0.4903
17508TIP3    H174015  -0.061   5.829   0.163  0.3877 -0.4263 -0.7659
17508TIP3    H274016   0.002   5.754   0.279 -0.1739 -0.5896 -0.5668
17509TIP3   OH274017   2.380   0.809  14.641  0.2144  0.0843  0.0906
17509TIP3    H174018   2.394   0.724  14.683  0.4038 -0.3318 -0.8071
17509TIP3    H274019   2.286   0.821  14.643  0.0976 -0.6551 -0.7713
17510TIP3   OH274020   3.361   0.607   4.143  0.0921  0.0148  0.3501
17510TIP3    H174021   3.359   0.589   4.049 -0.6602 -1.2293  0.5870
17510TIP3    H274022   3.332   0.698   4.151 -1.1843 -0.3071 -0.5350
17511TIP3   OH274023   2.098   5.001   4.847 -0.0806  0.5535  0.6207
17511TIP3    H174024   2.068   4.983   4.759 -1.0847  0.0441  1.0645
17511TIP3    H274025   2.169   5.065   4.836 -0.3682  0.6754 -0.5244
17512TIP3   OH274026   4.550   5.950  14.940  0.0201  0.5926 -0.0608
17512TIP3    H174027   4.603   6.003  14.879  0.3147  0.8174  0.3870
17512TIP3    H274028   4.460   5.958  14.907  0.4105 -0.7682 -1.5310
17513TIP3   OH274029   3.425   4.728   1.165  0.5777 -0.0951 -0.3471
17513TIP3    H174030   3.433   4.801   1.226  2.3199 -0.4866 -0.0652
17513TIP3    H274031   3.364   4.759   1.098 -1.5206  0.2399  1.6947
17514TIP3   OH274032   4.624   4.088   0.412  0.1470  0.1781  0.0010
17514TIP3    H174033   4.688   4.142   0.458 -0.5022 -0.4645  1.7146
17514TIP3    H274034   4.546   4.143   0.405 -1.9651 -1.7908  5.4821
17515TIP3   OH274035   3.416   4.154   3.271 -0.1414 -0.9077 -0.8212
17515TIP3    H174036   3.375   4.099   3.338 -0.3205 -0.8191 -0.8585
17515TIP3    H274037   3.490   4.194   3.316 -0.9594  0.0848 -0.3290
17516TIP3   OH274038   5.517   1.459   2.450  0.2092  0.1553  0.5766
17516TIP3    H174039   5.468   1.383   2.420 -1.6063  1.4792  0.0441
17516TIP3    H274040   5.600   1.455   2.403 -1.0599  0.0918 -1.7047
17517TIP3   OH274041   5.143   4.843   1.758 -0.1449  0.3706  0.6792
17517TIP3    H174042   5.175   4.853   1.847  1.1208  1.6463  0.1005
17517TIP3    H274043   5.064   4.898   1.754 -0.6750 -0.3405  1.2312
17518TIP3   OH274044   2.442   2.385  12.027  0.2024 -0.1636  0.7132
17518TIP3    H174045   2.376   2.325  12.062 -0.8192  0.5603  0.0737
17518TIP3    H274046   2.480   2.427  12.104  0.3825 -1.0584  1.1216
17519TIP3   OH274047   6.043   5.582   2.790 -0.0319  0.3242 -0.0664
17519TIP3    H174048   6.025   5.666   2.749  0.2156 -0.1698 -1.2005
17519TIP3    H274049   5.956   5.547   2.812 -0.2453  0.0021 -1.3762
17520TIP3   OH274050   4.486   2.820  12.644  0.6102  0.4169 -0.1216
17520TIP3    H174051   4.491   2.896  12.701  0.8435 -0.6286  1.2670
17520TIP3    H274052   4.513   2.853  12.558 -0.4799  2.1692  0.1845
17521TIP3   OH274053   5.012   5.746   1.830  0.3224 -0.4381 -0.5889
17521TIP3    H174054   5.038   5.827   1.787 -0.1168  1.1933  2.0546
17521TIP3    H274055   5.087   5.688   1.821  1.2439  0.8301 -1.1789
17522TIP3   OH274056   3.431   0.221   2.074  0.1706 -0.0715 -0.3012
17522TIP3    H174057   3.353   0.236   2.128  0.3020 -1.3238  0.2504
17522TIP3    H274058   3.403   0.152   2.013  0.2256  0.8788 -1.4126
17523TIP3   OH274059   2.211   3.210  11.544 -0.1727 -0.1877 -0.2513
17523TIP3    H174060   2.278   3.211  11.613  0.7661  1.0763 -1.1637
17523TIP3    H274061   2.260   3.216  11.462 -1.3704 -0.0124 -0.9680
17524TIP3   OH274062   2.280   0.744   2.431  0.0817 -0.0429 -0.3148
17524TIP3    H174063   2.292   0.649   2.431  0.4052 -0.0030 -0.6150
17524TIP3    H274064   2.346   0.777   2.370  0.0002  0.3792 -0.1791
17525TIP3   OH274065   3.956   4.311  14.849 -0.5052  0.7438  0.4774
17525TIP3    H174066   4.007   4.230  14.862 -0.6456  0.4625 -0.6718
17525TIP3    H274067   3.904   4.294  14.770 -3.4485  0.5100  2.4058
17526TIP3   OH274068   3.009   2.199   2.466  0.6325 -0.3981 -0.4419
17526TIP3    H174069   3.065   2.276   2.467  1.1804 -0.8043  0.3506
17526TIP3    H274070   2.936   2.221   2.525 -0.2569  0.2793 -1.7713
17527TIP3   OH274071   4.227   2.484   2.847 -0.7250  0.4048 -0.2865
17527TIP3    H174072   4.194   2.467   2.759  0.9080  1.1549 -1.0610
17527TIP3    H274073   4.155   2.460   2.905 -1.3542 -1.3274 -1.7544
17528TIP3   OH274074   2.317   5.372   2.135  0.1544 -0.0084  0.2971
17528TIP3    H174075   2.315   5.410   2.047 -1.2305  0.0483  0.3382
17528TIP3    H274076   2.239   5.317   2.139  0.2942 -0.1308  1.4343
17529TIP3   OH274077   4.371   2.579  16.210 -0.4780 -0.3289 -0.2482
17529TIP3    H174078   4.346   2.586  16.303  1.3070  0.4381  0.1872
17529TIP3    H274079   4.465   2.597  16.209 -0.3740 -0.9031 -2.1481
17530TIP3   OH274080   2.337   4.158   4.847 -0.1805 -0.4228 -0.6076
17530TIP3    H174081   2.356   4.178   4.939 -0.4848 -1.7784 -0.2342
17530TIP3    H274082   2.423   4.154   4.805 -0.0440  0.2724 -0.3965
17531TIP3   OH274083   6.634   6.114  16.483  0.2278 -0.6143 -0.2806
17531TIP3    H174084   6.566   6.107  16.416  0.0416 -3.4901  0.1241
17531TIP3    H274085   6.710   6.070  16.445  1.0312  0.2751  0.2803
17532TIP3   OH274086   2.700   5.849   6.059 -0.4637  0.5417 -0.6009
17532TIP3    H174087   2.698   5.926   6.116 -1.1593  1.6336 -2.0653
17532TIP3    H274088   2.611   5.842   6.025 -1.0502 -2.3982  1.4272
17533TIP3   OH274089   0.645   4.077  13.996 -0.2270  0.6636 -0.4080
17533TIP3    H174090   0.673   4.169  13.998  0.1914  0.5537 -0.9544
17533TIP3    H274091   0.651   4.049  14.087 -1.8606  1.6097  0.0146
17534TIP3   OH274092   1.708   4.861  14.524 -0.1490  0.7809  0.7531
17534TIP3    H174093   1.789   4.810  14.529  0.2308  1.1855 -1.0196
17534TIP3    H274094   1.639   4.795  14.518  0.3176  0.4526 -1.2499
17535TIP3   OH274095   3.870   4.599   6.618  0.5273  0.0941 -0.1612
17535TIP3    H174096   3.895   4.508   6.632 -0.5353 -0.1769  0.0085
17535TIP3    H274097   3.944   4.650   6.651  0.5586 -0.6753  0.9772
17536TIP3   OH274098   3.566   3.479  12.763  0.4534 -0.3004 -0.2600
17536TIP3    H174099   3.480   3.452  12.732 -0.3885  0.7894  1.0965
17536TIP3    H274100   3.555   3.570  12.788  2.4637  0.3960 -1.7794
17537TIP3   OH274101   4.102   0.699  13.319 -0.0858  0.5653 -0.6861
17537TIP3    H174102   4.018   0.707  13.363  0.5063  0.9435  0.3805
17537TIP3    H274103   4.129   0.609  13.335  0.3027  0.8075  0.0561
17538TIP3   OH274104   3.179   0.193   3.781 -0.1041 -0.0348  0.1133
17538TIP3    H174105   3.270   0.218   3.795 -0.0782 -0.3089  0.4300
17538TIP3    H274106   3.143   0.263   3.726  1.0134 -1.2504 -2.2652
17539TIP3   OH274107   4.070   1.940  11.612  0.2677  0.0085  0.6663
17539TIP3    H174108   4.074   1.846  11.630 -0.2535 -0.0247  0.6003
17539TIP3    H274109   4.042   1.946  11.521 -0.3228  0.2411  0.8612
17540TIP3   OH274110   0.382   0.572  15.298 -0.1986 -0.1687 -0.1467
17540TIP3    H174111   0.325   0.643  15.325 -0.1240  0.6865 -2.1424
17540TIP3    H274112   0.322   0.504  15.266 -0.2367 -0.7611  1.1315
17541TIP3   OH274113   4.816   6.356  13.713  0.0687 -0.3489  0.1609
17541TIP3    H174114   4.808   6.431  13.654  0.7276 -0.1496  0.3194
17541TIP3    H274115   4.764   6.380  13.790 -0.0400 -0.2185  0.0468
17542TIP3   OH274116   4.708   0.372   5.102 -0.2122 -0.0763  0.5652
17542TIP3    H174117   4.667   0.398   5.020  0.1394  1.8064  0.9710
17542TIP3    H274118   4.689   0.278   5.110 -0.0097 -0.3299 -1.7873
17543TIP3   OH274119   4.834   5.281  14.223  0.4256  0.5527 -0.0279
17543TIP3    H174120   4.764   5.266  14.159  0.3369  1.0611 -0.0550
17543TIP3    H274121   4.896   5.338  14.177  1.2275 -0.4946 -0.2613
17544TIP3   OH274122   5.976   1.456   5.295  0.3106  0.0504 -0.0099
17544TIP3    H174123   6.038   1.457   5.368  1.1850 -1.8284 -0.6891
17544TIP3    H274124   5.925   1.376   5.309 -2.3514  1.8155  0.8242
17545TIP3   OH274125   2.808   4.400  13.332  0.1203 -0.0822  0.7049
17545TIP3    H174126   2.856   4.428  13.410 -1.3875 -0.4348  1.7754
17545TIP3    H274127   2.720   4.433  13.345  0.0517  0.5473 -1.2433
17546TIP3   OH274128   0.172   6.786   1.201 -0.7801 -0.2543 -0.4115
17546TIP3    H174129   0.144   6.700   1.169 -0.9646 -0.4587  0.2699
17546TIP3    H274130   0.267   6.778   1.210 -0.6319  0.0810 -1.6957
17547TIP3   OH274131   5.953   1.522   3.736  0.2658  0.5414 -0.5524
17547TIP3    H174132   5.903   1.603   3.734 -0.0179  0.3534 -2.1121
17547TIP3    H274133   6.044   1.549   3.725  0.3551  0.7748  0.7559
17548TIP3   OH274134   4.509   1.767  15.596  0.0783  0.5002  0.3438
17548TIP3    H174135   4.461   1.850  15.599  0.2861  0.5652  2.2876
17548TIP3    H274136   4.450   1.703  15.635  0.4750  0.0080  0.1512
17549TIP3   OH274137   0.906   0.237   2.316 -0.0171 -0.5028 -0.1376
17549TIP3    H174138   0.909   0.243   2.412  1.3623  0.9802 -0.2448
17549TIP3    H274139   0.906   0.328   2.287 -2.5365 -0.9189 -1.5224
17550TIP3   OH274140   3.035   4.765   0.447 -0.2166  0.1958 -0.1604
17550TIP3    H174141   3.084   4.847   0.438  0.7308 -0.6655 -3.3018
17550TIP3    H274142   2.943   4.792   0.441 -0.0371  1.2985  1.5056
17551TIP3   OH274143   6.721   5.970  13.482  0.2111  0.2652 -0.2554
17551TIP3    H174144   6.801   5.984  13.431  0.7105 -1.3532  0.0592
17551TIP3    H274145   6.656   5.943  13.417 -0.3385  2.4167 -0.6369
17552TIP3   OH274146   2.174   5.983   5.212  0.0885  0.4895 -0.0323
17552TIP3    H174147   2.172   6.077   5.231  1.5160  0.0807  2.3046
17552TIP3    H274148   2.231   5.976   5.135  0.1878  1.5046 -0.0590
17553TIP3   OH274149   0.390   6.698  14.479  0.0457 -0.4274 -0.1846
17553TIP3    H174150   0.480   6.718  14.452  0.2001  2.3996  2.1477
17553TIP3    H274151   0.339   6.703  14.398  1.8527 -1.2289 -1.3941
17554TIP3   OH274152   3.868   0.835   2.238 -0.0140 -1.1224  0.3150
17554TIP3    H174153   3.878   0.913   2.292  1.9228 -0.1098 -1.4225
17554TIP3    H274154   3.877   0.762   2.299  2.5622 -0.0148  1.3502
17555TIP3   OH274155   0.839   5.039  16.361  0.0496 -0.2343  0.2380
17555TIP3    H174156   0.922   5.052  16.406  0.6459 -1.3172 -0.5322
17555TIP3    H274157   0.788   5.118  16.381  1.3423  0.5377  0.5159
17556TIP3   OH274158   1.693   0.774   1.418 -0.3025 -0.7885 -0.0158
17556TIP3    H174159   1.674   0.685   1.449  0.0113 -2.3644 -3.9682
17556TIP3    H274160   1.772   0.763   1.365 -2.0535  1.2545 -3.1411
17557TIP3   OH274161   3.204   5.487   3.953  0.3812 -1.1015  0.0025
17557TIP3    H174162   3.230   5.420   3.889  3.1251 -2.0496  2.0004
17557TIP3    H274163   3.258   5.469   4.029 -0.3863  2.1248  1.3888
17558TIP3   OH274164   3.656   1.984   6.410  0.8087 -0.3774 -0.2795
17558TIP3    H174165   3.590   1.966   6.477  0.5799  1.1887 -0.0712
17558TIP3    H274166   3.735   2.003   6.459  1.1423 -1.1734 -0.5067
17559TIP3   OH274167   6.116   6.556   0.211  0.3284  0.2230  0.0535
17559TIP3    H174168   6.145   6.642   0.180  0.6683  0.0305 -0.1670
17559TIP3    H274169   6.082   6.512   0.133  1.6108 -0.4369 -0.1495
17560TIP3   OH274170   4.497   5.671  14.818  0.3963  0.1655 -0.3706
17560TIP3    H174171   4.562   5.687  14.750  0.5863 -1.4983 -0.6026
17560TIP3    H274172   4.535   5.709  14.897  3.0701 -3.3973  0.1800
17561TIP3   OH274173   5.257   3.944   5.606  0.1904 -0.4613  0.2691
17561TIP3    H174174   5.305   4.005   5.550  0.1893 -0.7835 -0.0928
17561TIP3    H274175   5.254   3.863   5.554 -3.4963  0.4594 -1.0761
17562TIP3   OH274176   0.573   4.332  11.324  0.0077  0.1992  0.5650
17562TIP3    H174177   0.554   4.241  11.301 -1.3042  1.1546 -2.4063
17562TIP3    H274178   0.494   4.361  11.371 -1.3008  0.9174 -1.9930
17563TIP3   OH274179   1.130   3.979  13.904 -0.1809 -0.0399 -0.1168
17563TIP3    H174180   1.193   4.025  13.849 -0.3353  0.1148 -0.1649
17563TIP3    H274181   1.118   3.894  13.861 -0.8260  0.3450 -0.7087
17564TIP3   OH274182   0.578   1.917   3.734  0.4998  0.3824 -0.4708
17564TIP3    H174183   0.571   1.933   3.640 -1.7655  0.9846 -0.2489
17564TIP3    H274184   0.582   1.821   3.742 -1.9952  0.1746 -1.0991
17565TIP3   OH274185   0.491   1.559   2.890 -0.0304  0.4383 -0.0129
17565TIP3    H174186   0.447   1.498   2.950 -1.4933  1.4187 -0.0615
17565TIP3    H274187   0.584   1.534   2.894 -0.4944 -1.2844  0.5490
17566TIP3   OH274188   2.823   6.488   1.974 -0.0964 -0.0302  0.2952
17566TIP3    H174189   2.863   6.430   2.039  0.1793  0.9861  1.0484
17566TIP3    H274190   2.884   6.487   1.900  0.8091  0.6921  1.0228
17567TIP3   OH274191   4.555   0.187   4.185 -0.0736 -0.2666  0.2417
17567TIP3    H174192   4.472   0.189   4.139 -0.7871 -1.0087  1.4572
17567TIP3    H274193   4.614   0.242   4.133 -1.1461 -0.2367 -0.9503
17568TIP3   OH274194   2.572   5.853   2.037  0.9811  0.0193 -0.0087
17568TIP3    H174195   2.481   5.843   2.063  1.5447  0.0197  2.0207
17568TIP3    H274196   2.574   5.937   1.991 -0.6057 -1.3968 -2.7980
17569TIP3   OH274197   3.676   3.868   6.245  0.3149 -0.7048  0.2400
17569TIP3    H174198   3.743   3.910   6.298  0.9594 -1.1741 -0.1910
17569TIP3    H274199   3.601   3.859   6.303  0.0538  1.3355  0.2318
17570TIP3   OH274200   2.061   2.231  16.468  0.1478  0.8562  0.3191
17570TIP3    H174201   2.000   2.288  16.515 -0.6866  1.0302 -0.9445
17570TIP3    H274202   2.021   2.144  16.472  0.9357  0.5349  1.4047
17571TIP3   OH274203   1.639   0.178  16.009  0.3015 -0.5734 -0.1513
17571TIP3    H174204   1.603   0.202  16.094 -1.1551 -1.5924 -0.4651
17571TIP3    H274205   1.637   0.083  16.007  1.2329 -0.5907 -0.9517
17572TIP3   OH274206   4.315   4.190   3.999 -0.2871  0.6493 -0.0491
17572TIP3    H174207   4.248   4.258   3.998  0.3333  1.3026  1.2467
17572TIP3    H274208   4.340   4.183   4.091  0.4647 -0.5373 -0.3375
17573TIP3   OH274209   2.157   0.736   1.032 -0.4880  0.4803 -0.5992
17573TIP3    H174210   2.143   0.643   1.011 -2.1729  0.4519  0.5471
17573TIP3    H274211   2.189   0.775   0.950  0.6611 -1.1815 -0.9749
17574TIP3   OH274212   0.563   0.448   3.052  0.3214  0.0233  0.2225
17574TIP3    H174213   0.657   0.460   3.060  0.7577 -1.9974 -1.5136
17574TIP3    H274214   0.551   0.404   2.968 -2.1996  0.5664  0.2458
17575TIP3   OH274215   0.028   6.593  16.911  0.4546 -0.6560  0.3340
17575TIP3    H174216  -0.046   6.610  16.853  0.7411  1.8884  0.6726
17575TIP3    H274217   0.061   6.508  16.883 -1.9581 -1.3559 -0.4817
17576TIP3   OH274218   5.365   4.009   1.937  0.1137  0.4144 -0.3442
17576TIP3    H174219   5.301   4.007   1.865 -0.0751  0.3751 -0.1741
17576TIP3    H274220   5.315   4.040   2.012  0.2572  0.2329 -0.1745
17577TIP3   OH274221   4.963   4.063   1.231  0.2781 -0.3584 -0.1750
17577TIP3    H174222   4.984   4.067   1.137 -0.9546 -1.3812 -0.4995
17577TIP3    H274223   4.868   4.076   1.235  0.2264 -1.0024  0.8798
17578TIP3   OH274224   1.547   5.985   0.278  0.2368  0.4889 -0.0695
17578TIP3    H174225   1.589   5.938   0.350  0.3167  0.2101 -0.2943
17578TIP3    H274226   1.455   5.991   0.304  0.3882  0.9980  0.3692
17579TIP3   OH274227   5.687   3.892   1.199  0.4029 -0.2001  0.0583
17579TIP3    H174228   5.622   3.902   1.129  0.0001 -0.7413  0.3500
17579TIP3    H274229   5.645   3.833   1.262  1.3974 -0.9841 -0.0182
17580TIP3   OH274230   5.228   3.494   2.483  0.8272  0.1558  0.1398
17580TIP3    H174231   5.172   3.422   2.512  0.8041 -0.0722 -0.4635
17580TIP3    H274232   5.168   3.569   2.474  0.5523 -0.1771 -0.8447
17581TIP3   OH274233   2.675   1.776   2.992  0.3248  0.2106  0.3105
17581TIP3    H174234   2.716   1.814   3.070 -0.8839 -0.8984  1.5357
17581TIP3    H274235   2.707   1.686   2.990 -0.6367 -0.1354  0.2661
17582TIP3   OH274236   1.595   3.555   3.189 -0.2238 -0.0354  0.3030
17582TIP3    H174237   1.555   3.640   3.204 -0.1107  0.0624  0.0591
17582TIP3    H274238   1.674   3.556   3.243 -0.8139 -0.4263  1.1803
17583TIP3   OH274239   2.307   2.879  12.252 -0.6267  0.2921 -0.4496
17583TIP3    H174240   2.394   2.905  12.281 -0.2466 -2.0516  0.6088
17583TIP3    H274241   2.307   2.896  12.158  1.9082 -2.1271 -0.9513
17584TIP3   OH274242   2.239   2.404  16.307 -0.5220  0.1439 -0.1161
17584TIP3    H174243   2.313   2.422  16.365 -1.6101 -0.8506  1.6344
17584TIP3    H274244   2.175   2.361  16.363 -1.3729 -1.4228 -2.2273
17585TIP3   OH274245   4.772   1.871   1.970  0.4453 -0.1093  0.1687
17585TIP3    H174246   4.681   1.843   1.979  0.8279 -0.8106  2.0556
17585TIP3    H274247   4.768   1.967   1.972 -0.2860 -0.1299 -0.2097
17586TIP3   OH274248   6.325   0.809  11.303  0.5655 -0.1383 -0.7712
17586TIP3    H174249   6.238   0.846  11.317  0.9080  1.2540 -2.0941
17586TIP3    H274250   6.345   0.831  11.212  3.2680  1.6512  0.2036
17587TIP3   OH274251   4.258   6.736   1.634  0.3283 -0.0538  0.0074
17587TIP3    H174252   4.349   6.716   1.658  0.5675  0.1582 -0.6907
17587TIP3    H274253   4.206   6.672   1.681  0.9938 -1.4577 -1.1179
17588TIP3   OH274254   0.901   4.758  12.098 -0.4674 -0.4738  0.1799
17588TIP3    H174255   0.841   4.797  12.034 -1.2268 -0.9652  0.5960
17588TIP3    H274256   0.854   4.763  12.181  0.2325 -0.4975  0.5820
17589TIP3   OH274257   6.192   6.603  11.303  0.0254 -0.1760  0.0571
17589TIP3    H174258   6.270   6.628  11.254  1.3454 -1.9325  1.1908
17589TIP3    H274259   6.157   6.528  11.256 -1.7416  1.3765 -1.1715
17590TIP3   OH274260   5.796   4.804   1.901 -0.5027 -0.1059 -0.1581
17590TIP3    H174261   5.736   4.733   1.879 -1.2750  0.3422  0.4758
17590TIP3    H274262   5.783   4.870   1.833 -0.9225  0.1073  0.1297
17591TIP3   OH274263   1.934   1.960  13.740  0.0884 -0.4723 -0.0447
17591TIP3    H174264   1.902   1.908  13.667  0.6068 -0.4187 -0.3122
17591TIP3    H274265   1.894   2.047  13.727  1.2240 -0.0810 -1.0024
17592TIP3   OH274266   3.396   1.009   5.411  0.6205 -0.5122 -0.1539
17592TIP3    H174267   3.459   1.062   5.363 -0.4078  0.3911 -0.5331
17592TIP3    H274268   3.390   0.927   5.362  0.6288 -0.1420 -0.7764
17593TIP3   OH274269   6.060   6.057   3.273 -0.2882  0.6374  0.2650
17593TIP3    H174270   5.977   6.096   3.245  0.1762  1.1176 -0.4705
17593TIP3    H274271   6.107   6.041   3.192  0.0050 -0.4010  0.6353
17594TIP3   OH274272   4.439   5.535  10.866  0.7478 -0.2988 -0.4554
17594TIP3    H174273   4.495   5.600  10.824  0.1974  0.0690 -0.6099
17594TIP3    H274274   4.463   5.452  10.823  1.4255 -0.2059 -0.2733
17595TIP3   OH274275   5.979   5.150  16.150 -0.2261 -0.0639 -0.4151
17595TIP3    H174276   6.011   5.146  16.241  0.5356 -0.9757 -0.7138
17595TIP3    H274277   5.884   5.145  16.157 -0.2602  1.3484  0.4165
17596TIP3   OH274278   0.680   1.889  14.458 -0.7929 -0.1643  0.3378
17596TIP3    H174279   0.594   1.929  14.448 -0.0318  1.7626  1.4106
17596TIP3    H274280   0.737   1.939  14.400  0.0533 -0.0119  1.2917
17597TIP3   OH274281   4.801   0.372   0.968  0.5377  0.4172  0.2540
17597TIP3    H174282   4.820   0.286   0.933  0.5515 -0.1069  1.5237
17597TIP3    H274283   4.839   0.433   0.905  0.1083 -0.4844 -0.8975
17598TIP3   OH274284   2.992   1.854  13.770 -0.0279 -0.0958 -0.1594
17598TIP3    H174285   3.076   1.828  13.808 -0.3306 -2.2279 -0.9365
17598TIP3    H274286   3.016   1.908  13.694  0.6222 -0.6571 -0.3521
17599TIP3   OH274287   0.926   6.120   0.514  0.5527 -0.1951 -0.0430
17599TIP3    H174288   0.878   6.172   0.579  0.0927  0.0472 -0.5764
17599TIP3    H274289   0.940   6.179   0.441  0.4877 -0.6659 -0.4376
17600TIP3   OH274290   3.044   0.054  14.364 -0.0244 -0.1553 -0.7031
17600TIP3    H174291   3.063  -0.000  14.287 -0.2006  0.3785 -1.1253
17600TIP3    H274292   3.070   0.142  14.338 -2.0532  0.4125 -0.9073
17601TIP3   OH274293   5.417   2.329   5.114  0.2106 -0.0672 -0.1343
17601TIP3    H174294   5.446   2.380   5.189 -0.1639 -0.0803  0.0190
17601TIP3    H274295   5.469   2.362   5.041 -0.7159  1.2250 -0.2414
17602TIP3   OH274296   1.025   2.829   4.197  0.1359 -0.1387 -0.2956
17602TIP3    H174297   1.115   2.799   4.186  0.3989  0.8974 -1.0655
17602TIP3    H274298   1.033   2.919   4.228 -0.6379 -0.1732  0.0196
17603TIP3   OH274299   4.757   1.886  15.789 -0.1549  0.2420 -0.1471
17603TIP3    H174300   4.667   1.858  15.777  0.7722 -2.3399 -1.4713
17603TIP3    H274301   4.781   1.924  15.704 -0.6024  2.7839  0.8361
17604TIP3   OH274302   3.335   3.465   4.372 -0.1401  0.2440 -0.2698
17604TIP3    H174303   3.288   3.419   4.302  0.7569 -2.5258  0.8702
17604TIP3    H274304   3.393   3.525   4.326 -0.2140 -0.8792 -1.8795
17605TIP3   OH274305   2.437   4.351  13.428 -0.5289 -0.0062  0.3960
17605TIP3    H174306   2.384   4.272  13.417 -0.9844  0.2436  0.7391
17605TIP3    H274307   2.410   4.408  13.356  0.4293 -0.4984 -0.3648
17606TIP3   OH274308   0.376   2.613   0.483 -0.1010 -0.3279 -0.6457
17606TIP3    H174309   0.362   2.520   0.468 -0.6896 -0.1791 -1.0663
17606TIP3    H274310   0.304   2.639   0.541 -0.8449  0.1895 -1.7924
17607TIP3   OH274311   3.298   6.110  14.421 -0.0237 -0.6009  0.0457
17607TIP3    H174312   3.360   6.042  14.394  0.0663 -0.0483 -1.1962
17607TIP3    H274313   3.215   6.064  14.430 -0.3804 -0.6014 -2.6303
17608TIP3   OH274314   1.760   6.345   2.993 -0.1171 -0.0922 -0.5225
17608TIP3    H174315   1.670   6.367   3.014  0.1567  0.2331  0.3447
17608TIP3    H274316   1.790   6.416   2.936 -0.0171  0.4749  0.2262
17609TIP3   OH274317   5.367   4.538   0.759 -0.5930 -0.0819  0.7903
17609TIP3    H174318   5.392   4.489   0.838  2.1156  0.7699  0.5041
17609TIP3    H274319   5.327   4.618   0.792 -1.9002 -0.9085  1.2666
17610TIP3   OH274320   2.948   3.824   6.739  0.0193  0.5914  0.0042
17610TIP3    H174321   2.882   3.893   6.749 -1.2579 -0.5808 -0.1125
17610TIP3    H274322   3.011   3.860   6.678 -1.0323  1.3843 -0.6380
17611TIP3   OH274323   5.747   5.131  15.207  0.0979  0.0417 -0.0671
17611TIP3    H174324   5.678   5.184  15.167 -0.8961 -1.1435  0.0241
17611TIP3    H274325   5.806   5.195  15.247 -0.4453  1.1177 -0.9458
17612TIP3   OH274326   5.228   5.989  11.633 -0.0023 -0.0614  0.3686
17612TIP3    H174327   5.152   5.957  11.680 -1.0968  0.8712 -0.7363
17612TIP3    H274328   5.193   6.055  11.573  1.5252 -0.4019 -0.9197
17613TIP3   OH274329   4.333   0.339   2.303  0.1422  0.3572  0.1149
17613TIP3    H174330   4.239   0.338   2.319  0.4819  0.5945  2.2885
17613TIP3    H274331   4.343   0.391   2.223 -1.5237  1.0215  0.3163
17614TIP3   OH274332   1.110   5.996   3.540  0.2591 -0.4276  0.5747
17614TIP3    H174333   1.083   6.070   3.484 -0.1026 -1.2020 -0.2827
17614TIP3    H274334   1.084   6.022   3.628 -1.9970 -0.5411 -0.0382
17615TIP3   OH274335   1.655   0.689  14.442 -0.0467  0.3252 -0.4588
17615TIP3    H174336   1.603   0.637  14.380 -0.6466 -0.5900  0.7837
17615TIP3    H274337   1.625   0.779  14.429 -0.1053  0.1560 -1.5550
17616TIP3   OH274338   2.211   5.425  10.967  0.9514 -0.0686  0.2821
17616TIP3    H174339   2.116   5.437  10.968  1.1362  1.5446  0.5520
17616TIP3    H274340   2.233   5.412  10.875  0.3796 -1.2574  0.3132
17617TIP3   OH274341   6.341   1.973  10.656 -0.2411  1.0718  0.4025
17617TIP3    H174342   6.429   2.006  10.674  0.5759 -0.0274 -1.5038
17617TIP3    H274343   6.350   1.877  10.655 -1.6244  0.9148  1.0302
17618TIP3   OH274344   0.963   2.133  17.019  0.6220 -0.3559 -0.2262
17618TIP3    H174345   0.875   2.160  16.992  0.2552  0.1670  1.4319
17618TIP3    H274346   1.021   2.198  16.980  0.2922 -0.8272 -1.5068
17619TIP3   OH274347   3.867   2.207   3.557 -0.8059 -0.1008  0.5182
17619TIP3    H174348   3.857   2.272   3.487 -0.7948 -0.2331  0.3932
17619TIP3    H274349   3.955   2.172   3.543 -0.9484 -0.3997  0.3655
17620TIP3   OH274350   6.628   0.157  14.578 -0.6339  0.1438 -0.1056
17620TIP3    H174351   6.686   0.085  14.603  1.0992  0.7988 -2.1014
17620TIP3    H274352   6.681   0.236  14.589 -2.6108  1.1810  2.3593
17621TIP3   OH274353   3.847   2.513  15.126  0.5861 -0.2564 -0.1880
17621TIP3    H174354   3.835   2.464  15.044  0.5438 -1.3833  0.4722
17621TIP3    H274355   3.940   2.504  15.146  0.2013 -1.8593  1.0139
17622TIP3   OH274356   4.191   1.123  12.221  0.2977  0.2629 -0.7105
17622TIP3    H174357   4.180   1.038  12.263  1.0926  0.1056 -0.8046
17622TIP3    H274358   4.111   1.171  12.241 -0.2811 -0.6158 -0.9100
17623TIP3   OH274359   4.705   2.443   4.671  0.1796 -0.3262  0.8556
17623TIP3    H174360   4.706   2.348   4.679 -0.9550 -0.3802  0.4731
17623TIP3    H274361   4.757   2.474   4.745  0.1429 -1.2210  1.2571
17624TIP3   OH274362   2.421   0.923   1.607 -0.1796 -0.1576  0.0670
17624TIP3    H174363   2.503   0.932   1.560 -0.7626  0.1163 -0.9083
17624TIP3    H274364   2.394   0.832   1.591 -0.0289 -0.2731  0.4570
17625TIP3   OH274365   0.516   5.651   6.461 -0.1066  0.1935 -0.1943
17625TIP3    H174366   0.571   5.688   6.530 -0.1370 -1.0215  0.4867
17625TIP3    H274367   0.450   5.719   6.444 -0.2243  0.4214  1.1128
17626TIP3   OH274368   3.154   3.491  17.155  0.3430 -0.2852 -0.2012
17626TIP3    H174369   3.196   3.479  17.069 -0.2345  0.6521 -0.6237
17626TIP3    H274370   3.207   3.557  17.199 -0.6028  0.8493 -0.7094
17627TIP3   OH274371   6.035   0.164   4.074 -0.1582 -0.3982  0.0390
17627TIP3    H174372   5.944   0.158   4.047 -0.1372 -1.2698  0.1425
17627TIP3    H274373   6.071   0.077   4.058  0.9675  0.2617 -1.1089
17628TIP3   OH274374   0.348   5.250  14.518 -0.0246  0.1216 -0.3630
17628TIP3    H174375   0.379   5.161  14.533 -1.7596 -0.3280  0.6963
17628TIP3    H274376   0.422   5.306  14.542  0.3337 -0.9441  1.0420
17629TIP3   OH274377   3.075   3.696  12.298 -0.2817  0.3911  0.3596
17629TIP3    H174378   3.142   3.732  12.357 -2.5415  2.1327  1.9596
17629TIP3    H274379   3.062   3.764  12.232 -0.6902  0.1799  0.2241
17630TIP3   OH274380   6.380   0.946  17.267  0.5333 -0.1172  1.0523
17630TIP3    H174381   6.296   0.990  17.254  0.2326 -0.6162  1.2970
17630TIP3    H274382   6.445   1.010  17.240 -0.0034 -0.4614 -1.1780
17631TIP3   OH274383   4.849   5.713   6.402  0.2711  0.2300  0.1379
17631TIP3    H174384   4.829   5.634   6.353 -1.9378  0.6845  0.2320
17631TIP3    H274385   4.839   5.784   6.338 -0.0383  0.6096  0.5979
17632TIP3   OH274386   4.016   4.922   0.764 -0.3142 -0.0696 -0.4198
17632TIP3    H174387   4.036   4.903   0.672  0.8796  0.0804 -0.1892
17632TIP3    H274388   4.009   5.017   0.768  1.9756  0.0955  0.1097
17633TIP3   OH274389   1.143   5.058  13.032 -0.1792 -0.0205 -0.4168
17633TIP3    H174390   1.124   5.006  12.954 -2.3255 -1.4971  1.0237
17633TIP3    H274391   1.070   5.039  13.091  2.3779 -0.5123  2.7202
17634TIP3   OH274392   2.983   5.535  15.352  0.0078  0.0762  0.3182
17634TIP3    H174393   3.031   5.453  15.364 -0.4335 -0.1193  0.7631
17634TIP3    H274394   2.986   5.552  15.258  2.9967  1.2931  0.5743
17635TIP3   OH274395   3.081   0.406   3.641 -0.0840  0.0564 -0.2799
17635TIP3    H174396   3.138   0.469   3.596  1.0890 -1.4565 -1.0017
17635TIP3    H274397   2.993   0.430   3.614  0.4944  0.1014 -2.2505
17636TIP3   OH274398   2.718   5.180  12.942  0.0772  0.1221  0.3159
17636TIP3    H174399   2.701   5.238  13.016 -1.4116 -0.3038  0.3232
17636TIP3    H274400   2.708   5.236  12.864  0.3632  0.2707  0.3867
17637TIP3   OH274401   0.354   2.075  15.291  0.2782 -0.2838  0.5131
17637TIP3    H174402   0.274   2.042  15.250 -0.1392 -0.2289  1.2802
17637TIP3    H274403   0.401   2.117  15.219  0.5296 -1.9901 -0.3573
17638TIP3   OH274404   6.403   4.496   4.903 -0.2492 -0.1609 -0.0622
17638TIP3    H174405   6.373   4.573   4.854 -1.5774 -0.4922  0.1886
17638TIP3    H274406   6.496   4.488   4.882 -0.5294  0.3976 -1.5959
17639TIP3   OH274407   0.029   4.205  13.964  0.4690 -0.1869  0.1593
17639TIP3    H174408   0.070   4.291  13.974  0.2412  0.2072 -1.9834
17639TIP3    H274409  -0.059   4.216  14.001 -0.2753  1.1112 -1.8997
17640TIP3   OH274410   1.376   4.931   3.799  0.4491  0.0839 -0.0270
17640TIP3    H174411   1.304   4.961   3.744  0.3740 -1.1104 -0.6044
17640TIP3    H274412   1.441   5.001   3.795 -0.6883  1.1994  0.5452
17641TIP3   OH274413   0.135   5.668   5.494  0.7579 -0.0854  0.3238
17641TIP3    H174414   0.040   5.666   5.486  0.8900 -0.9119 -1.4064
17641TIP3    H274415   0.156   5.760   5.513 -0.2649  0.5371 -1.4280
17642TIP3   OH274416   1.540   0.680  14.684 -0.5236  0.0591 -0.3737
17642TIP3    H174417   1.564   0.764  14.724  0.2170  1.2032 -3.1218
17642TIP3    H274418   1.581   0.682  14.598  0.0557 -3.4373 -0.2406
17643TIP3   OH274419   2.737   0.110   6.479 -0.6660 -0.6156  0.2660
17643TIP3    H174420   2.755   0.060   6.559 -1.7297 -2.1252 -0.4300
17643TIP3    H274421   2.649   0.084   6.454 -0.4444  0.0832 -1.2480
17644TIP3   OH274422   5.011   6.138  12.373  0.1551 -0.1205  0.1415
17644TIP3    H174423   5.015   6.166  12.465 -0.5960  0.9733 -0.1516
17644TIP3    H274424   5.030   6.217  12.323  3.2067 -1.2888 -0.6247
17645TIP3   OH274425   0.229   2.958  15.096 -0.1911  0.1894 -0.0399
17645TIP3    H174426   0.272   3.043  15.093 -2.1848  1.2063 -0.9167
17645TIP3    H274427   0.250   2.922  15.182  1.4339  1.1527 -0.0321
17646TIP3   OH274428   4.961   3.500   1.210 -0.6131  0.3900  0.0720
17646TIP3    H174429   4.989   3.584   1.172 -1.0396  0.3268 -0.3858
17646TIP3    H274430   4.871   3.515   1.237 -0.3637  0.3795  0.9159
17647TIP3   OH274431   5.152   3.960  12.783  0.1255 -0.2878 -0.4289
17647TIP3    H174432   5.116   3.916  12.860 -1.7756  0.6804 -0.7336
17647TIP3    H274433   5.237   3.993  12.811 -0.5813  0.1225  1.2649
17648TIP3   OH274434   2.789   0.152  13.220  0.5472  1.4164  0.1364
17648TIP3    H174435   2.883   0.138  13.227  0.0860 -2.1690 -0.1806
17648TIP3    H274436   2.763   0.103  13.142 -1.7864  1.1652  1.0380
17649TIP3   OH274437   2.525   2.436   5.928 -0.2897  0.2066 -0.5300
17649TIP3    H174438   2.578   2.410   6.004  0.6941 -0.5005 -1.4271
17649TIP3    H274439   2.589   2.469   5.865 -1.1818  1.4990 -0.7713
17650TIP3   OH274440   0.730   5.324   3.275  0.1828 -0.0981 -0.2205
17650TIP3    H174441   0.754   5.416   3.264 -0.2242 -0.0552 -0.7288
17650TIP3    H274442   0.715   5.314   3.370  2.1536 -0.1143  0.1096
17651TIP3   OH274443   0.158   1.084  15.557  0.3011 -0.0276 -0.5991
17651TIP3    H174444   0.140   1.064  15.648  0.6737 -0.8894 -0.7146
17651TIP3    H274445   0.191   1.174  15.559 -0.7088  0.3381 -0.0136
17652TIP3   OH274446   4.677   6.047   1.802  0.0304  0.3001 -0.4823
17652TIP3    H174447   4.644   6.049   1.891 -2.0807 -0.9384 -1.1936
17652TIP3    H274448   4.653   5.960   1.769  2.8069 -0.1311 -1.5225
17653TIP3   OH274449   3.355   5.944   4.227 -0.4458 -0.2678  0.2197
17653TIP3    H174450   3.431   5.951   4.285 -1.5941  1.0981  1.6010
17653TIP3    H274451   3.287   5.903   4.281 -1.0709 -0.3577 -0.6297
17654TIP3   OH274452   0.274   5.022   4.482 -0.3861  0.7307  0.0882
17654TIP3    H174453   0.236   5.088   4.424 -0.1138  1.1353  0.3718
17654TIP3    H274454   0.368   5.035   4.476 -0.3503  0.6680  0.5017
17655TIP3   OH274455   1.083   3.396  10.189  0.6436  0.2333 -0.1609
17655TIP3    H174456   1.073   3.305  10.161 -3.3449  0.3336  0.7272
17655TIP3    H274457   1.097   3.390  10.284 -0.4908  0.5776  0.0298
17656TIP3   OH274458   1.198   3.483   5.123  0.0452 -0.3929  0.2284
17656TIP3    H174459   1.220   3.478   5.216 -0.8702 -0.5133  0.4396
17656TIP3    H274460   1.150   3.566   5.114 -1.1534 -1.0915  0.1368
17657TIP3   OH274461   0.326   3.582  15.247 -0.2045 -0.3166  0.3534
17657TIP3    H174462   0.244   3.552  15.287 -0.3932  1.2925  1.2229
17657TIP3    H274463   0.306   3.671  15.217  0.9776 -0.2283 -0.1839
17658TIP3   OH274464   1.540   3.013   2.972 -0.4542  0.1340  0.0672
17658TIP3    H174465   1.478   3.052   2.911 -1.7939 -1.1721  0.5495
17658TIP3    H274466   1.551   2.923   2.942 -0.8330 -0.4122  1.5205
17659TIP3   OH274467   0.110   4.845   0.337  0.1187 -0.0624  0.1480
17659TIP3    H174468   0.179   4.862   0.272 -0.2551  1.8983  0.2380
17659TIP3    H274469   0.042   4.800   0.287  1.2028 -1.5171 -0.0662
17660TIP3   OH274470   5.992   4.287   5.800 -0.1962 -0.0578 -0.3315
17660TIP3    H174471   5.982   4.191   5.799 -1.7512  0.0472  2.1791
17660TIP3    H274472   6.054   4.304   5.870 -1.2478  0.8809  0.3863
17661TIP3   OH274473   6.153   1.630  12.774  0.3677  0.0411 -0.1307
17661TIP3    H174474   6.098   1.552  12.760  1.0748 -1.1709  3.3990
17661TIP3    H274475   6.239   1.604  12.739 -0.7729  1.3928 -4.2409
17662TIP3   OH274476   4.092   4.021   3.850 -0.1997 -0.1256  0.6960
17662TIP3    H174477   4.174   4.070   3.854 -0.4775  0.3275  0.7770
17662TIP3    H274478   4.029   4.081   3.809 -0.5200 -0.4332  0.7350
17663TIP3   OH274479   1.396   3.608  12.145 -0.8740  0.1633 -0.3955
17663TIP3    H174480   1.489   3.606  12.169 -0.5457  1.0174 -1.5367
17663TIP3    H274481   1.382   3.527  12.096 -0.9383 -0.3734  0.5041
17664TIP3   OH274482   6.550   5.526  13.104 -0.0492 -0.6341 -0.2906
17664TIP3    H174483   6.481   5.459  13.102  0.0112 -0.7518  1.1041
17664TIP3    H274484   6.504   5.607  13.124  0.0486 -0.4685 -0.7194
17665TIP3   OH274485   4.310   3.614   4.134  0.3277  0.0073  0.7673
17665TIP3    H174486   4.223   3.598   4.097  0.0836 -0.2419  1.4284
17665TIP3    H274487   4.348   3.527   4.145 -0.7673 -0.1656  3.8128
17666TIP3   OH274488   5.985   6.319  11.822  0.0668  0.3228 -0.3877
17666TIP3    H174489   5.913   6.258  11.806 -0.2297  0.6359 -0.2424
17666TIP3    H274490   5.998   6.315  11.917  0.7381 -0.2964 -0.4924
17667TIP3   OH274491   3.359   5.349  12.237 -0.0201 -0.0738 -0.1250
17667TIP3    H174492   3.425   5.376  12.172  0.1980 -1.2993 -0.4289
17667TIP3    H274493   3.347   5.256  12.220 -2.5097  0.3238 -0.6667
17668TIP3   OH274494   6.551   3.337   1.938 -0.3836 -0.1482  0.3614
17668TIP3    H174495   6.587   3.324   1.851 -2.4925  0.8222 -0.7033
17668TIP3    H274496   6.622   3.379   1.987  1.5563 -2.6771 -0.2181
17669TIP3   OH274497   0.444   0.805   0.779 -0.2788  0.6281 -0.2966
17669TIP3    H174498   0.533   0.841   0.781 -0.0799  0.0933  1.3247
17669TIP3    H274499   0.448   0.727   0.834 -1.6848  0.4145 -0.4648
17670TIP3   OH274500   2.991   5.861  10.790  0.6479  0.0017 -0.3451
17670TIP3    H174501   2.969   5.882  10.880 -2.2512  0.4154 -1.1124
17670TIP3    H274502   3.064   5.799  10.797  2.0234  1.8109  2.1821
17671TIP3   OH274503   4.307   1.652   5.827  0.6694  0.1696  0.0168
17671TIP3    H174504   4.281   1.651   5.735 -0.0043  0.3211  0.2053
17671TIP3    H274505   4.289   1.741   5.856 -1.7831 -0.6271  1.0482
17672TIP3   OH274506   3.473   1.911  12.472 -0.2566  0.6597  0.3260
17672TIP3    H174507   3.386   1.873  12.484  0.2285 -0.9012 -0.9958
17672TIP3    H274508   3.474   1.987  12.530 -2.8369  1.2633 -0.3854
17673TIP3   OH274509   2.079   6.599   0.091 -0.2531  0.3247  0.4041
17673TIP3    H174510   2.082   6.664   0.162 -0.1408  2.1834 -1.2484
17673TIP3    H274511   1.987   6.599   0.064 -0.5398 -1.2851  1.3493
17674TIP3   OH274512   4.481   6.671  13.028  0.5789 -0.0175  0.5328
17674TIP3    H174513   4.390   6.700  13.034  0.6055 -0.2171  2.2733
17674TIP3    H274514   4.496   6.657  12.935 -1.4142 -0.7111  0.2851
17675TIP3   OH274515   2.084   3.814  10.440 -0.4266  0.2191  0.1356
17675TIP3    H174516   2.076   3.909  10.429 -0.3402  0.1063 -0.9891
17675TIP3    H274517   1.994   3.782  10.434 -0.2772  0.0531 -1.3313
17676TIP3   OH274518   0.679   4.929  17.085 -0.3775  0.9516  0.0601
17676TIP3    H174519   0.738   4.892  17.020  0.8509 -1.2657  2.3772
17676TIP3    H274520   0.731   4.998  17.128 -0.7058  1.4333 -0.3035
17677TIP3   OH274521   2.203   5.242   4.394 -0.2715  0.5358  0.4298
17677TIP3    H174522   2.136   5.192   4.347 -2.1552  2.1219  1.3176
17677TIP3    H274523   2.218   5.318   4.338  2.5808 -0.9785 -0.9253
17678TIP3   OH274524   1.389   6.429  16.027 -0.7580  0.0865 -0.2017
17678TIP3    H174525   1.462   6.418  15.967  0.9577  0.1627  1.8080
17678TIP3    H274526   1.401   6.359  16.092 -0.8450  1.8088  1.7131
17679TIP3   OH274527   4.906   2.991  17.246 -0.0158 -0.0567  0.0119
17679TIP3    H174528   4.853   3.067  17.221 -0.2454 -0.7828 -1.7848
17679TIP3    H274529   4.995   3.015  17.221  0.2154  0.3931  1.2497
17680TIP3   OH274530   2.369   2.787   2.180 -0.2847 -0.5936 -0.5396
17680TIP3    H174531   2.299   2.734   2.144 -0.8562 -1.4997  1.8262
17680TIP3    H274532   2.326   2.868   2.209  0.0071 -0.2526 -1.0607
17681TIP3   OH274533   1.490   4.523   3.859  0.0203  0.2176  0.3575
17681TIP3    H174534   1.426   4.570   3.806  1.0356  1.7956  0.4878
17681TIP3    H274535   1.575   4.557   3.830  0.6931 -0.4153  1.5333
17682TIP3   OH274536   5.953   0.151  12.972  0.1647 -0.2078  0.2394
17682TIP3    H174537   5.967   0.067  12.929  0.3236 -0.6748  1.1844
17682TIP3    H274538   5.859   0.155  12.988 -0.4845  1.6441 -3.5011
17683TIP3   OH274539   3.133   0.097   4.350 -0.5761  0.0814  0.2645
17683TIP3    H174540   3.189   0.060   4.418 -0.2714  1.4679  0.7960
17683TIP3    H274541   3.194   0.140   4.290 -0.9875  0.5567  0.1885
17684TIP3   OH274542   5.537   1.627  15.266  0.0907  0.3943 -0.0022
17684TIP3    H174543   5.470   1.685  15.304 -0.4497  0.4615 -1.0450
17684TIP3    H274544   5.541   1.652  15.174  0.4118 -0.7076 -0.2864
17685TIP3   OH274545   5.129   6.374   3.040  0.0865  0.4709 -0.5828
17685TIP3    H174546   5.184   6.295   3.041 -2.1674 -1.1430  1.7350
17685TIP3    H274547   5.078   6.366   2.959 -1.0425 -1.1876  0.2420
17686TIP3   OH274548   3.667   0.285  15.392 -0.7904 -0.3109 -0.5919
17686TIP3    H174549   3.729   0.343  15.349 -1.3561  0.9652  0.2865
17686TIP3    H274550   3.607   0.258  15.322 -0.1114 -0.4157 -1.1418
17687TIP3   OH274551   3.820   5.689   4.322  0.1260 -0.3873  0.7625
17687TIP3    H174552   3.912   5.661   4.314 -0.0894 -1.5761  2.2265
17687TIP3    H274553   3.769   5.610   4.305 -0.5825 -0.1701  1.8452
17688TIP3   OH274554   6.750   3.543   1.202  0.0622 -0.1173 -0.7638
17688TIP3    H174555   6.841   3.544   1.172 -0.3127  1.6403 -1.9283
17688TIP3    H274556   6.754   3.579   1.291  0.4754  0.2870 -0.9397
17689TIP3   OH274557   5.178   3.450   4.350  0.7193 -0.0917 -0.0549
17689TIP3    H174558   5.164   3.356   4.362  0.5413 -0.0064  0.3980
17689TIP3    H274559   5.152   3.466   4.259 -0.4924 -0.2506  0.2577
17690TIP3   OH274560   0.720   3.932   5.321 -0.0283  0.3093 -0.4698
17690TIP3    H174561   0.634   3.892   5.335 -0.3590  0.4631 -2.0678
17690TIP3    H274562   0.777   3.858   5.301  0.2443  0.2040  0.6177
17691TIP3   OH274563   0.366   1.604  11.506 -0.0983  0.4737 -0.0219
17691TIP3    H174564   0.328   1.660  11.573 -0.7943  0.5773 -0.4972
17691TIP3    H274565   0.376   1.518  11.548 -0.9499  0.4208  0.0758
17692TIP3   OH274566   3.788   2.328  15.489 -0.5720  0.6687 -0.6283
17692TIP3    H174567   3.773   2.412  15.445  0.7271  1.0392 -0.3700
17692TIP3    H274568   3.792   2.350  15.582  1.6725  0.6219 -0.6883
17693TIP3   OH274569   4.417   5.247   2.800  0.2057  0.5407  0.6000
17693TIP3    H174570   4.323   5.229   2.811  0.3745 -0.0064  1.1720
17693TIP3    H274571   4.420   5.316   2.734 -0.4827 -0.9912 -1.0567
17694TIP3   OH274572   5.893   1.215  17.233 -0.7176  0.0942  0.4831
17694TIP3    H174573   5.849   1.293  17.266  2.1406  1.7008  0.7254
17694TIP3    H274574   5.898   1.229  17.138  0.2061  0.4757  0.5767
17695TIP3   OH274575   0.192   1.968   3.024 -0.2929  0.2307 -0.2828
17695TIP3    H174576   0.278   1.927   3.018 -1.5314 -2.2849 -1.1220
17695TIP3    H274577   0.184   2.018   2.943  0.6100  1.0177  0.0908
17696TIP3   OH274578   2.224   6.326   0.212 -0.0193  0.1619 -0.7932
17696TIP3    H174579   2.177   6.409   0.219 -1.7408 -0.6679 -2.2123
17696TIP3    H274580   2.205   6.295   0.123  3.0792 -0.2846 -1.3729
17697TIP3   OH274581   2.804   5.661   2.976 -0.3828  0.0704 -0.3628
17697TIP3    H174582   2.898   5.647   2.988 -0.7517  0.1206  3.1275
17697TIP3    H274583   2.769   5.575   2.952  0.5154  0.0481 -1.6580
17698TIP3   OH274584   5.537   1.038  14.655  0.1150 -0.1187 -0.5059
17698TIP3    H174585   5.454   1.037  14.608  0.9065  1.8233 -1.9929
17698TIP3    H274586   5.559   1.131  14.664  2.6768 -0.6266 -1.1357
17699TIP3   OH274587   4.387   6.135  13.301  0.0248  0.1250 -0.1940
17699TIP3    H174588   4.437   6.090  13.368  0.8278 -0.5154 -1.2036
17699TIP3    H274589   4.451   6.189  13.255 -0.2865 -0.3328 -1.1920
17700TIP3   OH274590   3.203   2.157  16.720  0.5055 -0.3652 -0.1426
17700TIP3    H174591   3.219   2.227  16.656  1.0704 -0.3014  0.0586
17700TIP3    H274592   3.274   2.094  16.703 -1.0320 -1.7660 -1.5141
17701TIP3   OH274593   4.053   5.254  15.820 -0.1258 -0.6304 -0.1403
17701TIP3    H174594   4.107   5.307  15.879  1.2548 -0.8787 -1.1578
17701TIP3    H274595   4.044   5.307  15.741  1.0064 -1.7856 -1.0496
17702TIP3   OH274596   6.527   3.022   6.135 -0.5918 -0.1169  0.3148
17702TIP3    H174597   6.540   3.105   6.180  0.5403  0.3078 -0.7603
17702TIP3    H274598   6.434   3.021   6.112 -0.5823  0.9079  0.2315
17703TIP3   OH274599   4.009   2.196   2.633 -0.2943  0.1075 -0.6554
17703TIP3    H174600   3.918   2.169   2.648 -0.2526  0.2282 -0.1734
17703TIP3    H274601   4.008   2.291   2.647  0.0950 -0.0236  0.2619
17704TIP3   OH274602   6.595   0.725   2.315 -0.3012  0.5042  0.1288
17704TIP3    H174603   6.651   0.780   2.260  1.6490  0.1901  1.7440
17704TIP3    H274604   6.643   0.719   2.398 -1.6891 -1.6110  0.7870
17705TIP3   OH274605   1.554   2.360  12.534  0.5035 -0.3838  0.6032
17705TIP3    H174606   1.625   2.299  12.556  2.1796  0.3032 -2.5893
17705TIP3    H274607   1.599   2.440  12.507 -1.4822  0.0327 -1.5852
17706TIP3   OH274608   0.462   6.534   0.569 -0.2162  0.2008  0.2638
17706TIP3    H174609   0.501   6.584   0.641 -0.1104 -0.9916  1.0623
17706TIP3    H274610   0.377   6.575   0.554 -0.0581  0.7235  0.7918
17707TIP3   OH274611   3.935   4.477  17.005 -0.2255 -0.6709 -0.0032
17707TIP3    H174612   3.853   4.430  17.021  0.2152 -1.5632 -0.3364
17707TIP3    H274613   3.953   4.462  16.912  0.1013 -0.1260 -0.0287
17708TIP3   OH274614   3.700   5.952   5.199 -0.1687 -0.9003  0.0835
17708TIP3    H174615   3.682   6.046   5.191 -1.5600 -1.0048  1.5461
17708TIP3    H274616   3.740   5.943   5.286  0.8934 -1.5417 -0.4690
17709TIP3   OH274617   4.706   4.961   5.723 -0.2571 -0.4151  0.6394
17709TIP3    H174618   4.655   5.035   5.691  0.5659 -0.2464 -0.3005
17709TIP3    H274619   4.687   4.957   5.817  1.1053  2.1033  1.0488
17710TIP3   OH274620   5.366   3.257  13.920  0.5472  0.5668  0.2650
17710TIP3    H174621   5.400   3.329  13.868 -1.2412 -0.3978 -2.3536
17710TIP3    H274622   5.293   3.295  13.969 -0.1471  0.6447 -0.8167
17711TIP3   OH274623   1.602   4.336   3.619 -0.1322  0.4142 -0.2143
17711TIP3    H174624   1.663   4.372   3.682 -0.9810  2.0886 -0.3305
17711TIP3    H274625   1.637   4.249   3.599  0.6139  0.2025  1.8887
17712TIP3   OH274626   0.374   0.693   0.553 -0.1876 -0.3136  0.3545
17712TIP3    H174627   0.439   0.623   0.546 -0.1892 -0.1516 -1.6297
17712TIP3    H274628   0.379   0.722   0.644 -0.3263 -3.0308  1.2600
17713TIP3   OH274629   5.857   0.617   4.398  0.2492  0.1575 -0.4602
17713TIP3    H174630   5.858   0.656   4.485  0.0103 -1.2206  0.1738
17713TIP3    H274631   5.916   0.542   4.404 -1.3829 -1.1950 -0.8681
17714TIP3   OH274632   6.315   2.890   3.193 -0.1610 -0.3445 -0.1750
17714TIP3    H174633   6.293   2.917   3.104  0.7648 -0.9842 -0.6047
17714TIP3    H274634   6.371   2.960   3.227 -0.4131 -0.1617 -0.1324
17715TIP3   OH274635   1.223   3.269   6.459  0.4727 -0.1073  0.3835
17715TIP3    H174636   1.161   3.312   6.518  0.3334  0.3324 -0.0730
17715TIP3    H274637   1.203   3.305   6.373  1.6519  0.3664  0.2943
17716TIP3   OH274638   0.529   5.583  12.716 -0.2046 -0.3014  0.3075
17716TIP3    H174639   0.590   5.648  12.751 -2.8222  1.1426  2.3475
17716TIP3    H274640   0.485   5.628  12.644 -1.1461 -0.2154  0.9292
17717TIP3   OH274641   5.820   2.311  11.733  0.2013 -0.3925  0.0458
17717TIP3    H174642   5.805   2.284  11.643 -1.0937 -2.6811  0.8781
17717TIP3    H274643   5.913   2.292  11.749  0.1677 -1.0517 -0.4879
17718TIP3   OH274644   1.311   5.313   4.927 -0.0550 -0.0925 -0.5701
17718TIP3    H174645   1.341   5.311   4.837  0.8404  0.8810 -0.2990
17718TIP3    H274646   1.380   5.270   4.977 -0.1574  0.1128 -0.2437
17719TIP3   OH274647   4.223   4.463   4.027  0.2095  0.4087  0.3205
17719TIP3    H174648   4.268   4.538   3.988 -0.2600  0.6086  0.1585
17719TIP3    H274649   4.134   4.467   3.991 -0.4258  0.9711  1.9067
17720TIP3   OH274650   3.436   0.288  14.517 -1.1073 -0.0162  0.7691
17720TIP3    H174651   3.447   0.197  14.489  0.5493  0.3952  0.0318
17720TIP3    H274652   3.369   0.323  14.458 -1.3031 -0.5891  0.6513
17721TIP3   OH274653   1.662   5.776   5.618 -0.2515 -0.0165 -0.1423
17721TIP3    H174654   1.637   5.800   5.708 -0.5103  2.5807 -0.8456
17721TIP3    H274655   1.659   5.681   5.616 -2.0508 -0.0395  2.1034
17722TIP3   OH274656   0.365   5.032  12.211  0.0831 -0.0671  0.2280
17722TIP3    H174657   0.451   5.025  12.252  0.0111  0.4964  0.4764
17722TIP3    H274658   0.344   5.125  12.215 -0.7652 -0.2708  0.6371
17723TIP3   OH274659   2.525   5.497   2.291 -0.2418 -0.2330  0.0831
17723TIP3    H174660   2.453   5.437   2.273 -2.6666  2.3366  0.7829
17723TIP3    H274661   2.552   5.529   2.205 -0.1503 -0.9541 -0.1591
17724TIP3   OH274662   0.379   5.913  14.395  0.6728  0.1109  0.6381
17724TIP3    H174663   0.459   5.943  14.352  0.7354 -0.3704  0.4162
17724TIP3    H274664   0.313   5.977  14.368  0.4525 -0.8177 -1.1176
17725TIP3   OH274665   4.878   6.444  10.197  0.4446 -0.0821 -0.0384
17725TIP3    H174666   4.810   6.474  10.257  0.4713 -0.0850 -0.0061
17725TIP3    H274667   4.923   6.374  10.245  0.7299  0.1961  0.1047
17726TIP3   OH274668   5.970   5.241  14.096  0.0953  0.2683  0.0513
17726TIP3    H174669   6.049   5.245  14.043  0.5942  2.1386  0.8830
17726TIP3    H274670   5.962   5.329  14.133 -0.4562 -0.8649  2.7395
17727TIP3   OH274671   1.881   3.568  16.997 -0.4286  0.1932 -0.0740
17727TIP3    H174672   1.909   3.496  17.053  0.5252  1.2629  0.8455
17727TIP3    H274673   1.923   3.551  16.913  1.9026  1.0019  0.8662
17728TIP3   OH274674   5.160   2.115   3.056 -0.1135  0.6257  0.1178
17728TIP3    H174675   5.132   2.024   3.046  2.0591 -0.1619  0.8558
17728TIP3    H274676   5.135   2.138   3.145 -0.8212  0.8006 -0.1289
17729TIP3   OH274677   2.181   5.014  16.580  0.2532  0.3282 -0.2349
17729TIP3    H174678   2.265   5.024  16.624  0.1016 -0.2552  0.1865
17729TIP3    H274679   2.202   5.021  16.487  1.2160 -2.8098 -0.3085
17730TIP3   OH274680   5.764   2.846  15.619  0.2312  0.1012 -0.7657
17730TIP3    H174681   5.710   2.823  15.544  0.4198  0.5839 -1.0524
17730TIP3    H274682   5.848   2.873  15.581 -0.0653  1.4738 -0.4469
17731TIP3   OH274683   0.990   5.224   3.100 -0.5327 -0.0478  0.2573
17731TIP3    H174684   0.909   5.184   3.070 -1.0814  0.2007  1.3893
17731TIP3    H274685   0.980   5.317   3.081 -0.0942 -0.1505 -0.5104
17732TIP3   OH274686   6.166   4.375  14.864 -0.1881 -0.6146  0.6487
17732TIP3    H174687   6.116   4.392  14.784 -1.7179 -0.9303  1.4962
17732TIP3    H274688   6.234   4.313  14.838  0.2726  0.4362 -0.7076
17733TIP3   OH274689   0.850   5.583   4.935 -0.0523  0.1009 -0.1122
17733TIP3    H174690   0.903   5.663   4.939 -2.3414  1.6551  0.1428
17733TIP3    H274691   0.857   5.556   4.843  1.4460  0.0615 -0.0137
17734TIP3   OH274692   6.700   3.285   1.108 -0.0429  0.2048 -0.5855
17734TIP3    H174693   6.682   3.349   1.177 -0.1247  1.2963 -1.6043
17734TIP3    H274694   6.688   3.333   1.026 -0.5874 -1.2399 -1.3877
17735TIP3   OH274695   3.801   3.605   1.608  0.2019 -0.0061  0.0503
17735TIP3    H174696   3.713   3.597   1.646 -0.0419 -0.5945 -0.6368
17735TIP3    H274697   3.807   3.696   1.580 -1.5970 -0.8507 -3.3201
17736TIP3   OH274698   1.225   5.087  13.586  0.3204 -0.2321 -0.1963
17736TIP3    H174699   1.207   5.113  13.676 -0.8435 -0.3321 -0.3894
17736TIP3    H274700   1.213   4.992  13.585  2.4359 -0.5079  0.0241
17737TIP3   OH274701   4.049   5.255  15.193 -0.7646 -0.2278 -0.4902
17737TIP3    H174702   4.134   5.276  15.155 -0.6618 -1.0298 -0.7078
17737TIP3    H274703   4.063   5.172  15.239 -1.1420  0.2178  0.4395
17738TIP3   OH274704   0.380   4.759  11.467 -0.5276 -0.4636 -0.2175
17738TIP3    H174705   0.342   4.814  11.536 -1.7763  0.1553 -1.3672
17738TIP3    H274706   0.323   4.773  11.392  0.7352 -1.2330 -1.3423
17739TIP3   OH274707   3.440   2.260  15.308  0.4611 -0.0808  0.1549
17739TIP3    H174708   3.441   2.353  15.329  1.2478  0.0085 -0.2528
17739TIP3    H274709   3.401   2.218  15.385 -1.4993  0.7513 -0.3735
17740TIP3   OH274710   6.667   2.872   5.185  0.3195 -0.1138  0.5091
17740TIP3    H174711   6.588   2.924   5.200  0.1413 -0.5099  0.9680
17740TIP3    H274712   6.738   2.928   5.216  0.1100 -0.2167  1.1975
17741TIP3   OH274713   3.545   0.611   5.478  0.2031  0.5978  0.0213
17741TIP3    H174714   3.578   0.524   5.455 -0.2935 -0.0795  1.8110
17741TIP3    H274715   3.462   0.618   5.432  0.1840  0.0722 -0.0236
17742TIP3   OH274716   1.349   4.554   5.918  0.5636  0.3860  0.0740
17742TIP3    H174717   1.415   4.542   5.985 -0.2251  0.2140  0.8317
17742TIP3    H274718   1.270   4.514   5.955 -0.4818  2.3395  0.0134
17743TIP3   OH274719   3.927   1.601  12.494  0.0081 -0.1110 -0.3256
17743TIP3    H174720   4.007   1.556  12.464 -0.0564  0.4895 -1.4243
17743TIP3    H274721   3.924   1.681  12.441  0.8087  1.8435  2.4875
17744TIP3   OH274722   6.374   2.398  15.635 -0.0540  0.1383 -1.0745
17744TIP3    H174723   6.401   2.487  15.614 -0.1001  0.4688  0.2287
17744TIP3    H274724   6.295   2.408  15.687  0.6399 -0.6079  0.1526
17745TIP3   OH274725   2.148   1.042   3.534 -0.4625  0.0673  0.4300
17745TIP3    H174726   2.132   0.978   3.603  2.9327  1.0053  2.2297
17745TIP3    H274727   2.238   1.025   3.507 -1.2315  0.7337 -2.7486
17746TIP3   OH274728   5.634   3.075  13.049  0.0806 -0.3225  0.1609
17746TIP3    H174729   5.553   3.024  13.039  0.8946 -1.1778 -2.2942
17746TIP3    H274730   5.633   3.136  12.975  0.6380  1.1552  1.3466
17747TIP3   OH274731   5.140   0.660  12.743  0.1566 -0.2012  0.0845
17747TIP3    H174732   5.227   0.699  12.736  0.4689 -1.1620 -1.5163
17747TIP3    H274733   5.119   0.631  12.654 -1.7531 -0.0724  0.4742
17748TIP3   OH274734   4.948   0.547   0.333  0.3171 -0.6175 -0.2668
17748TIP3    H174735   4.883   0.486   0.369  0.3340  0.4313  1.5853
17748TIP3    H274736   5.025   0.537   0.388  1.1230 -0.5699 -1.3669
17749TIP3   OH274737   0.782   4.247   4.576  0.6151 -0.1066 -0.0285
17749TIP3    H174738   0.875   4.225   4.574  0.4205 -1.0889  1.2971
17749TIP3    H274739   0.764   4.267   4.668 -0.9078 -1.7440  0.0486
17750TIP3   OH274740   1.495   4.146   1.198  0.5857  0.3104  0.3293
17750TIP3    H174741   1.436   4.122   1.270 -0.4867  2.1568  0.1006
17750TIP3    H274742   1.581   4.117   1.227 -0.1180 -0.5933  1.5679
17751TIP3   OH274743   0.528   4.596   2.486  0.2501  0.1767 -0.5426
17751TIP3    H174744   0.586   4.524   2.511 -0.4139 -0.0449  0.3978
17751TIP3    H274745   0.524   4.651   2.564  0.5491  1.1025 -1.1758
17752TIP3   OH274746   3.083   6.785  15.718  0.4071 -0.1373 -0.2709
17752TIP3    H174747   3.168   6.781  15.674 -0.2795  0.9823 -1.7512
17752TIP3    H274748   3.096   6.736  15.799  2.6175  0.4751 -0.2143
17753TIP3   OH274749   3.446   2.548  12.102 -0.0330  0.7022  0.2818
17753TIP3    H174750   3.525   2.563  12.154  0.8839  1.2652 -1.2144
17753TIP3    H274751   3.388   2.621  12.123  0.7775  1.5242 -0.2717
17754TIP3   OH274752   5.489   4.154   2.521 -0.2161 -0.1296  0.5663
17754TIP3    H174753   5.569   4.189   2.561  0.4873 -1.9196  0.7419
17754TIP3    H274754   5.425   4.224   2.534  1.8957  2.3319 -1.7081
17755TIP3   OH274755   6.215   0.211   2.046  0.0809 -0.0986 -0.5428
17755TIP3    H174756   6.180   0.292   2.085 -0.4722 -0.6407  0.1045
17755TIP3    H274757   6.142   0.176   1.994  0.3878 -0.0712 -0.9892
17756TIP3   OH274758   6.539   6.801  12.066 -0.7946  0.2352 -0.1316
17756TIP3    H174759   6.608   6.765  12.010 -0.6910  2.2196 -1.3166
17756TIP3    H274760   6.460   6.754  12.039 -0.3508 -0.3462 -0.4361
17757TIP3   OH274761   4.224   3.512  14.027  0.3925  0.2806  0.2282
17757TIP3    H174762   4.186   3.584  14.076 -1.0433  0.4001 -1.0455
17757TIP3    H274763   4.218   3.437  14.086  1.5607  1.0997  1.4222
17758TIP3   OH274764   6.237   6.148   4.088 -0.7488 -0.6661 -0.2714
17758TIP3    H174765   6.248   6.204   4.165 -0.1691 -1.2747  0.0965
17758TIP3    H274766   6.259   6.205   4.014 -0.7808 -0.2322  0.0496
17759TIP3   OH274767   5.721   1.838  14.382  0.1716  0.0520 -0.6246
17759TIP3    H174768   5.811   1.828  14.412  0.0379 -0.0581 -0.2670
17759TIP3    H274769   5.722   1.800  14.294  0.5465  0.3305 -0.7449
17760TIP3   OH274770   2.469   4.403   4.883  0.3948 -0.4754  0.1621
17760TIP3    H174771   2.562   4.386   4.865 -0.1102 -0.6015 -2.5737
17760TIP3    H274772   2.465   4.497   4.900  1.1169 -0.6014  1.1077
17761TIP3   OH274773   0.972   3.939  11.631  0.2112 -0.0527 -0.1611
17761TIP3    H174774   1.033   3.958  11.702  0.2715  0.3157 -0.3138
17761TIP3    H274775   0.895   3.904  11.675  0.3010  0.0469  0.0760
17762TIP3   OH274776   1.156   4.505  16.766 -0.3343  0.4570 -0.0780
17762TIP3    H174777   1.090   4.447  16.804 -0.2706  0.5996  0.2531
17762TIP3    H274778   1.229   4.447  16.745  0.0231  0.5310  0.9503
17763TIP3   OH274779   3.035   0.041   5.382  0.1616 -0.1994  0.2100
17763TIP3    H174780   3.039   0.126   5.339 -2.8105  0.2027  0.6367
17763TIP3    H274781   3.126   0.011   5.385  1.1705  2.6840 -0.4607
17764TIP3   OH274782   5.442   5.733  13.386  0.1272  0.3093 -0.0394
17764TIP3    H174783   5.417   5.825  13.392 -0.0709  0.3592 -1.4039
17764TIP3    H274784   5.456   5.719  13.292 -0.1175 -1.1261  0.1395
17765TIP3   OH274785   3.529   1.238  15.541  0.1528 -0.4155  0.3093
17765TIP3    H174786   3.493   1.171  15.598 -1.0235  0.4879  0.6577
17765TIP3    H274787   3.457   1.259  15.481  0.7494  0.0002 -0.2631
17766TIP3   OH274788   0.929   5.846   4.267  0.0881  0.1483  0.4616
17766TIP3    H174789   0.972   5.853   4.352 -0.5050 -0.8131  0.8515
17766TIP3    H274790   0.865   5.775   4.278 -0.3933  0.4002 -0.6120
17767TIP3   OH274791   6.384   3.818   6.007 -0.4041 -0.4828 -0.3604
17767TIP3    H174792   6.355   3.824   6.098 -0.3642 -1.9653 -0.2361
17767TIP3    H274793   6.320   3.869   5.958 -0.9163 -0.3851  0.3959
17768TIP3   OH274794   1.175   0.315   1.678 -0.0821 -0.1216 -0.5798
17768TIP3    H174795   1.256   0.267   1.691  0.0162  0.5257  1.4450
17768TIP3    H274796   1.174   0.337   1.585  1.5244 -1.0653 -0.8306
17769TIP3   OH274797   5.560   4.842  14.910 -0.6889  0.0995  0.3453
17769TIP3    H174798   5.627   4.790  14.866  0.3387 -0.5991  2.6869
17769TIP3    H274799   5.533   4.788  14.984 -1.1662  1.9884  1.5665
17770TIP3   OH274800   1.311   2.755   2.803 -0.3668 -0.3772  0.2941
17770TIP3    H174801   1.339   2.749   2.894 -1.7647  1.8211  0.9081
17770TIP3    H274802   1.219   2.729   2.803  0.3527 -3.1168 -0.9841
17771TIP3   OH274803   4.393   4.082   5.728  0.0190  0.2725  0.0515
17771TIP3    H174804   4.372   3.995   5.696  0.9614  0.0586 -0.0178
17771TIP3    H274805   4.310   4.130   5.726 -0.4200 -0.4979 -0.2932
17772TIP3   OH274806   4.723   0.693  12.202  0.6874 -0.1036 -0.1976
17772TIP3    H174807   4.688   0.677  12.289 -2.2577  0.3073 -1.2748
17772TIP3    H274808   4.760   0.609  12.175 -1.5111 -1.1607  0.0596
17773TIP3   OH274809   0.885   1.438  13.037  0.1234  0.1988  0.1508
17773TIP3    H174810   0.816   1.466  13.097  0.4679  1.5110 -0.0457
17773TIP3    H274811   0.923   1.361  13.078 -1.3272 -0.4203  0.3610
17774TIP3   OH274812   1.893   5.365   3.475 -0.3284  1.2779  0.8461
17774TIP3    H174813   1.815   5.310   3.467 -1.1257  2.4882  0.2005
17774TIP3    H274814   1.966   5.306   3.456 -0.7687 -0.7312  4.8125
17775TIP3   OH274815   6.388   0.364  16.690  0.5435  0.5967  0.4854
17775TIP3    H174816   6.444   0.416  16.747 -1.1054  0.7012  2.0439
17775TIP3    H274817   6.302   0.367  16.731  0.0626 -2.0476 -0.2435
17776TIP3   OH274818   4.198   5.689  12.720  0.3727  0.0206  0.5322
17776TIP3    H174819   4.270   5.710  12.780  1.5442 -0.0580 -0.8010
17776TIP3    H274820   4.178   5.773  12.678  0.4644 -0.1783  0.0852
17777TIP3   OH274821   3.955   6.481  10.253 -0.7103  0.2733  0.5487
17777TIP3    H174822   4.036   6.505  10.298 -1.6318  0.7431  1.9711
17777TIP3    H274823   3.940   6.390  10.277  0.7101 -0.6077 -1.7343
17778TIP3   OH274824   2.248   3.079   2.909  0.1654 -0.5853  0.2900
17778TIP3    H174825   2.178   3.133   2.872 -0.3762 -1.0838  0.5579
17778TIP3    H274826   2.323   3.137   2.915 -0.9234  0.6989  2.3270
17779TIP3   OH274827   2.167   6.275  17.236  0.0230 -0.4393  0.1172
17779TIP3    H174828   2.178   6.240  17.147  1.5853  0.6503 -0.1403
17779TIP3    H274829   2.101   6.344  17.225  1.0035  0.4259 -0.4089
17780TIP3   OH274830   0.328   5.148   1.751 -0.2452  0.4865  0.8023
17780TIP3    H174831   0.284   5.117   1.830 -1.6789  1.4402  0.3899
17780TIP3    H274832   0.346   5.241   1.768  1.8277  0.0699  1.0531
17781TIP3   OH274833   2.949   5.466  15.781 -0.1112 -0.5574 -0.0622
17781TIP3    H174834   2.914   5.405  15.846 -2.0263  0.6193  0.0528
17781TIP3    H274835   2.872   5.511  15.747  1.2677  1.7051 -0.2643
17782TIP3   OH274836   5.700   2.308   3.561  0.4119 -0.2106 -0.0827
17782TIP3    H174837   5.729   2.300   3.652  1.5312 -0.2953 -0.4406
17782TIP3    H274838   5.630   2.373   3.564  1.0581  0.4628  0.7130
17783TIP3   OH274839   3.087   1.690   0.616 -0.7525 -0.1004 -0.1044
17783TIP3    H174840   3.095   1.614   0.558  0.3850 -0.4137  0.4378
17783TIP3    H274841   3.176   1.704   0.648 -0.9924  1.3639 -0.0731
17784TIP3   OH274842   0.009   0.141  15.893 -0.4404 -0.3191 -0.1005
17784TIP3    H174843   0.034   0.074  15.957  2.4177 -0.4554 -1.2674
17784TIP3    H274844  -0.038   0.093  15.825 -1.9177 -0.4643  1.0036
17785TIP3   OH274845   3.466   2.699  16.740  0.1963 -0.0201 -0.2632
17785TIP3    H174846   3.530   2.764  16.712  0.7111 -0.1119  0.6815
17785TIP3    H274847   3.399   2.749  16.786 -0.5315  0.1026 -1.4375
17786TIP3   OH274848   2.962   0.733  12.235 -0.1489  0.2442  0.3114
17786TIP3    H174849   3.011   0.656  12.206  1.1916  1.1083  0.2649
17786TIP3    H274850   3.012   0.807  12.203  0.1567  1.1976  2.8799
17787TIP3   OH274851   4.917   4.499   3.423  0.0188 -0.2809  0.1293
17787TIP3    H174852   4.993   4.540   3.381 -0.0683 -0.3589 -0.1049
17787TIP3    H274853   4.945   4.482   3.513  0.3052 -0.3826  0.0195
17788TIP3   OH274854   2.308   3.360   1.950  0.0811 -0.0460 -0.1864
17788TIP3    H174855   2.391   3.374   1.994 -1.9266  1.6532  3.3230
17788TIP3    H274856   2.246   3.343   2.021 -2.8438  0.2803 -2.5543
17789TIP3   OH274857   2.033   3.964  14.544 -0.0879 -0.2981 -0.7579
17789TIP3    H174858   2.112   3.958  14.490  0.4367  0.6456 -0.1062
17789TIP3    H274859   1.962   3.943  14.484  0.4688  0.9312 -1.8978
17790TIP3   OH274860   5.741   3.055  17.225 -0.0884  0.1924 -0.3600
17790TIP3    H174861   5.651   3.062  17.193  0.5064  0.1476 -2.1167
17790TIP3    H274862   5.745   2.969  17.267 -0.4622 -0.4442 -1.6050
17791TIP3   OH274863   4.861   0.260   1.600  0.0947  0.4385  0.2020
17791TIP3    H174864   4.863   0.262   1.504 -1.2137  1.6975  0.1733
17791TIP3    H274865   4.951   0.242   1.626  0.3104 -0.7287 -1.2794
17792TIP3   OH274866   2.555   0.256  16.274  0.3262 -0.1196 -0.3786
17792TIP3    H174867   2.533   0.209  16.354  0.2682 -1.4422 -1.1641
17792TIP3    H274868   2.477   0.308  16.255 -0.1202 -0.7330 -0.2425
17793TIP3   OH274869   3.027   0.173   0.223 -0.4730  0.2021  0.1013
17793TIP3    H174870   3.022   0.232   0.148  0.1806  0.9631  0.6499
17793TIP3    H274871   2.936   0.161   0.250 -0.6030  1.0069  0.0209
17794TIP3   OH274872   6.575   6.658  14.313  0.1299  0.2392  0.0286
17794TIP3    H174873   6.651   6.645  14.370 -0.2971  0.0872  0.5700
17794TIP3    H274874   6.586   6.594  14.243 -0.7648 -1.4885  1.4307
17795TIP3   OH274875   3.447   1.239   0.969 -0.6180 -0.3106 -0.0687
17795TIP3    H174876   3.508   1.312   0.957  0.1349 -0.9825 -0.3543
17795TIP3    H274877   3.360   1.278   0.957 -0.1418  0.1650 -2.0919
17796TIP3   OH274878   6.144   0.173   1.409 -0.1882 -0.4653 -0.0032
17796TIP3    H174879   6.200   0.245   1.380  1.1665 -1.7488 -0.6246
17796TIP3    H274880   6.176   0.151   1.497 -1.8542  0.9469  0.9770
17797TIP3   OH274881   4.053   6.089   2.610  0.1840 -0.2314 -0.4516
17797TIP3    H174882   4.125   6.028   2.625  1.0368  0.7797 -0.3786
17797TIP3    H274883   4.021   6.069   2.522  0.2048 -1.0411 -0.2727
17798TIP3   OH274884   0.689   2.959   1.838  0.1928 -0.7016 -0.3714
17798TIP3    H174885   0.610   2.943   1.786  0.2638 -0.7696 -0.4574
17798TIP3    H274886   0.670   2.917   1.922 -1.1119  1.9191  0.6962
17799TIP3   OH274887   4.820   1.947  12.105 -0.2627  0.5879  0.2522
17799TIP3    H174888   4.821   1.854  12.082  1.2465  0.6959 -0.2024
17799TIP3    H274889   4.828   1.949  12.200  1.2197  0.2656  0.1458
17800TIP3   OH274890   0.304   6.731   5.537  0.8008 -0.0467 -0.4069
17800TIP3    H174891   0.322   6.725   5.631 -0.9394  0.4751 -0.0241
17800TIP3    H274892   0.274   6.643   5.512 -1.5397  0.5454  0.1659
17801TIP3   OH274893   4.070   4.565   1.394 -0.1241 -0.0281 -1.1540
17801TIP3    H174894   4.030   4.479   1.380 -1.5677  0.4818 -0.2328
17801TIP3    H274895   3.999   4.620   1.427  0.8377  1.4722 -1.5342
17802TIP3   OH274896   0.660   4.879  11.953 -0.3562  0.0736 -0.6340
17802TIP3    H174897   0.669   4.961  12.002  0.3110 -0.0726 -0.5033
17802TIP3    H274898   0.649   4.907  11.862 -0.7055  0.3263 -0.5136
17803TIP3   OH274899   3.503   5.664  12.308 -0.0144  0.2090  0.1009
17803TIP3    H174900   3.589   5.677  12.269  0.8733  0.3108  2.0448
17803TIP3    H274901   3.480   5.574  12.288  0.8911 -0.0560  0.2607
17804TIP3   OH274902   5.505   6.026  17.012 -0.6734  0.3276  0.4367
17804TIP3    H174903   5.541   6.028  16.924  0.1591 -2.1370  0.6737
17804TIP3    H274904   5.411   6.037  17.000 -0.5564  0.0400 -0.7691
17805TIP3   OH274905   6.565   3.960  11.727 -0.7413 -0.0049  0.4952
17805TIP3    H174906   6.600   3.882  11.772  1.4789 -0.7164 -2.2903
17805TIP3    H274907   6.471   3.944  11.722 -0.6354 -1.3309  2.1965
17806TIP3   OH274908   2.004   6.268  13.204 -0.0665  0.1607  0.1198
17806TIP3    H174909   2.067   6.338  13.223  0.0659  0.2888 -0.7382
17806TIP3    H274910   2.057   6.189  13.197 -0.0746  0.1617  0.0330
17807TIP3   OH274911   1.461   3.183  12.540  0.2254 -0.4841  0.1490
17807TIP3    H174912   1.471   3.131  12.620 -0.7246 -1.2484 -0.2291
17807TIP3    H274913   1.449   3.272  12.571  0.9798 -0.6076  0.8264
17808TIP3   OH274914   5.154   5.808   5.101  0.4064  0.8142 -0.1107
17808TIP3    H174915   5.224   5.814   5.166  0.8599  1.3170 -0.6439
17808TIP3    H274916   5.103   5.889   5.112 -1.2970 -0.4443  1.6387
17809TIP3   OH274917   2.195   0.047  15.427  0.4412 -0.6283 -0.5877
17809TIP3    H174918   2.222   0.016  15.341  1.4839  1.3680 -1.0064
17809TIP3    H274919   2.267   0.103  15.457 -1.2863  1.2717  0.1952
17810TIP3   OH274920   1.943   0.657   3.801 -0.7763 -0.0941 -0.5361
17810TIP3    H174921   1.971   0.583   3.856 -1.8327 -0.8404 -0.9765
17810TIP3    H274922   1.941   0.621   3.712  0.2771  0.9260 -0.9893
17811TIP3   OH274923   4.647   5.283   0.378 -0.2628 -0.4078  0.0340
17811TIP3    H174924   4.596   5.276   0.297  0.6967  0.2418 -0.6486
17811TIP3    H274925   4.671   5.375   0.383 -0.9630 -0.2956  1.4810
17812TIP3   OH274926   3.397   2.446  13.554 -0.4150  0.4029 -0.1541
17812TIP3    H174927   3.373   2.508  13.623 -0.6195 -1.0602  1.1139
17812TIP3    H274928   3.316   2.397  13.537 -0.1438  0.1772 -0.8192
17813TIP3   OH274929   1.891   0.605   6.433 -0.2929  0.0157 -0.4778
17813TIP3    H174930   1.924   0.577   6.519 -1.8187 -0.2642  0.0208
17813TIP3    H274931   1.910   0.532   6.375  0.3472  0.0269 -0.2882
17814TIP3   OH274932   0.144   2.416  11.664  0.5045 -0.1524  0.2908
17814TIP3    H174933   0.063   2.433  11.616 -0.1282 -0.3871  1.2655
17814TIP3    H274934   0.167   2.326  11.641 -0.6172 -0.7936  1.5837
17815TIP3   OH274935   4.723   3.398   6.074 -0.1518 -0.4104  0.3343
17815TIP3    H174936   4.795   3.458   6.096 -0.8114  1.3094 -2.0265
17815TIP3    H274937   4.647   3.436   6.117 -0.1283 -0.8241  0.7363
17816TIP3   OH274938   4.822   3.092  12.189 -0.7222  0.4994  0.7126
17816TIP3    H174939   4.830   3.131  12.102  1.7698 -1.3422  0.0812
17816TIP3    H274940   4.808   3.167  12.247  1.1297  2.1083 -0.8354
17817TIP3   OH274941   4.971   4.856  15.727 -0.2292 -0.4140 -0.2648
17817TIP3    H174942   5.002   4.918  15.794 -0.6704 -0.8880  0.3878
17817TIP3    H274943   5.049   4.805  15.704 -0.2063 -0.6626  0.3491
17818TIP3   OH274944   0.316   2.814   3.259 -0.8782 -0.3370 -0.3067
17818TIP3    H174945   0.262   2.738   3.236 -2.7093  0.9596 -0.3539
17818TIP3    H274946   0.381   2.779   3.320 -1.5849 -1.9905 -0.4821
17819TIP3   OH274947   2.074   0.052  13.135 -0.1021 -0.2415  0.1836
17819TIP3    H174948   2.020   0.094  13.069  1.4702  1.1434 -0.2440
17819TIP3    H274949   2.157   0.033  13.091  0.6678 -0.0493  1.5209
17820TIP3   OH274950   6.762   3.089   2.075  0.0866 -0.4788 -0.1911
17820TIP3    H174951   6.770   3.098   1.980  0.0847  0.8935 -0.0675
17820TIP3    H274952   6.836   3.139   2.110 -1.6142  1.5509  0.6034
17821TIP3   OH274953   3.918   5.583  11.644  0.7994 -0.6240 -0.8505
17821TIP3    H174954   3.879   5.647  11.585  2.9664  1.0605 -0.5467
17821TIP3    H274955   3.864   5.587  11.723 -0.3635 -0.7760 -1.6197
17822TIP3   OH274956   4.189   5.429  14.551  0.6741 -0.4312  0.3901
17822TIP3    H174957   4.165   5.382  14.471  2.1934 -0.0387 -0.3138
17822TIP3    H274958   4.281   5.409  14.564  0.4545 -0.4370  2.0246
17823TIP3   OH274959   3.446   0.709  16.066 -0.7128 -0.0674 -0.0701
17823TIP3    H174960   3.504   0.643  16.103 -1.8213 -1.4651 -0.7463
17823TIP3    H274961   3.372   0.713  16.127 -1.6555 -1.0364 -1.0976
17824TIP3   OH274962   3.802   3.773  12.826  0.1611 -0.4093 -0.0730
17824TIP3    H174963   3.772   3.864  12.831 -2.9756 -1.3527 -1.0968
17824TIP3    H274964   3.828   3.752  12.916 -1.3721  0.7292  0.6543
17825TIP3   OH274965   2.142   0.001   6.155 -0.1828 -0.7611  0.0479
17825TIP3    H174966   2.117   0.091   6.132 -1.1949 -1.0099  0.1221
17825TIP3    H274967   2.109  -0.052   6.082 -0.7518 -1.2119  0.6257
17826TIP3   OH274968   3.488   1.399   1.385 -0.7002  0.0236  0.1078
17826TIP3    H174969   3.487   1.461   1.458  0.6509 -0.9986  1.0190
17826TIP3    H274970   3.569   1.349   1.397 -1.2177 -1.1742 -1.2411
17827TIP3   OH274971   2.140   0.441  16.742  0.3327  0.0478 -0.8987
17827TIP3    H174972   2.190   0.493  16.805  2.4630 -1.1874 -1.5087
17827TIP3    H274973   2.152   0.487  16.659  0.4307 -0.2299 -1.0405
17828TIP3   OH274974   5.709   3.226  12.476  0.8900 -0.1633  0.0123
17828TIP3    H174975   5.793   3.197  12.443 -0.2407 -1.0420 -2.1650
17828TIP3    H274976   5.647   3.206  12.406 -1.1993  0.0772  1.7358
17829TIP3   OH274977   2.733   4.797  12.148  0.6844 -0.1653 -0.1779
17829TIP3    H174978   2.733   4.706  12.179  0.0909 -0.6593 -1.5661
17829TIP3    H274979   2.697   4.792  12.060  1.5104  1.3161 -0.6187
17830TIP3   OH274980   2.542   5.350  17.047 -0.3765  0.3746 -0.2174
17830TIP3    H174981   2.463   5.357  17.101  0.0636  1.0098  0.3593
17830TIP3    H274982   2.512   5.310  16.965 -1.7144  2.4548 -0.8092
17831TIP3   OH274983   0.951   0.840  11.744  0.1572 -0.2487 -0.4246
17831TIP3    H174984   0.881   0.820  11.681 -0.9274  0.8187  0.4312
17831TIP3    H274985   1.020   0.881  11.691 -0.5610  0.2411 -0.9844
17832TIP3   OH274986   6.620   4.127  10.247 -0.2777 -0.4031  0.3073
17832TIP3    H174987   6.605   4.079  10.328  1.1813 -1.2829  0.0754
17832TIP3    H274988   6.701   4.090  10.212  0.1312  1.2842 -0.5744
17833TIP3   OH274989   4.231   3.142   2.791 -0.3519 -0.0608  0.3186
17833TIP3    H174990   4.212   3.048   2.795 -0.7337 -0.1959 -3.0251
17833TIP3    H274991   4.157   3.183   2.836  0.5465 -1.3911  3.1020
17834TIP3   OH274992   5.666   1.674  17.182 -0.2101  0.5087 -0.2238
17834TIP3    H174993   5.690   1.685  17.090 -0.2007  0.4495 -0.2267
17834TIP3    H274994   5.737   1.716  17.230  0.9651 -1.4761 -0.1674
17835TIP3   OH274995   3.449   3.984  14.125  0.2609 -0.0465 -0.2305
17835TIP3    H174996   3.417   4.057  14.179 -1.4872 -0.5457 -0.5591
17835TIP3    H274997   3.508   3.936  14.182 -0.4255  0.2763  0.7730
17836TIP3   OH274998   5.501   4.980   4.570  0.7956 -0.0835  0.4175
17836TIP3    H174999   5.512   5.075   4.571  1.8811 -0.2069  1.0041
17836TIP3    H275000   5.419   4.965   4.521  0.6582  1.1379  0.2718
17837TIP3   OH275001   0.072   1.832   5.661  0.6564 -0.3659 -0.7599
17837TIP3    H175002   0.150   1.783   5.637  1.9387  1.8959 -1.3667
17837TIP3    H275003   0.040   1.869   5.579  0.6132  1.0346 -0.1366
17838TIP3   OH275004   3.594   1.675  15.227 -0.3141 -0.2437 -0.1435
17838TIP3    H175005   3.610   1.681  15.133  1.2767 -2.1294 -0.0265
17838TIP3    H275006   3.543   1.753  15.248 -0.0344  0.5810 -2.4233
17839TIP3   OH275007   0.960   6.786   0.408  0.4964  0.5194 -0.4983
17839TIP3    H175008   0.968   6.704   0.359  0.2204  0.0104  0.3010
17839TIP3    H275009   1.017   6.847   0.362  1.8811 -0.5421 -0.2042
17840TIP3   OH275010   5.657   2.567  13.639 -0.5358 -0.0183 -0.3919
17840TIP3    H175011   5.599   2.491  13.632  0.0678 -0.4607 -0.6347
17840TIP3    H275012   5.708   2.566  13.557  1.0305 -0.6357  0.5698
17841TIP3   OH275013   4.265   0.931  13.933  0.6556  0.3379  0.9208
17841TIP3    H175014   4.181   0.944  13.889  0.9518 -0.0304  0.2350
17841TIP3    H275015   4.269   0.999  13.999  0.4175  1.2018  0.0548
17842TIP3   OH275016   2.151   2.395  13.907 -0.2167 -0.0033 -0.6462
17842TIP3    H175017   2.193   2.387  13.822  0.4550 -0.5114 -0.2599
17842TIP3    H275018   2.129   2.306  13.932 -0.2759  0.1322 -0.2126
17843TIP3   OH275019   2.181   0.020   4.544  0.5530 -0.1596  0.4641
17843TIP3    H175020   2.254  -0.009   4.489  0.1806 -0.1213 -0.0486
17843TIP3    H275021   2.153  -0.059   4.591 -1.8888 -1.1822 -2.5458
17844TIP3   OH275022   0.548   3.578  11.696  0.2935 -0.4047  0.3590
17844TIP3    H175023   0.481   3.579  11.765  0.4528  0.2455  0.5053
17844TIP3    H275024   0.623   3.533  11.736  0.3628 -0.0850  0.5956
17845TIP3   OH275025   6.187   3.281  12.777 -0.6928  0.2256 -0.7947
17845TIP3    H175026   6.188   3.355  12.836 -1.5861 -0.4611  0.1091
17845TIP3    H275027   6.225   3.314  12.696  0.8194  1.0857  0.2545
17846TIP3   OH275028   1.813   4.488  16.410  0.2826  0.2295 -0.1323
17846TIP3    H175029   1.745   4.427  16.438 -0.3282  0.5224 -0.9740
17846TIP3    H275030   1.847   4.524  16.492  0.2791 -0.8354  0.3410
17847TIP3   OH275031   3.707   2.357  16.357 -0.4182 -0.2376  0.2845
17847TIP3    H175032   3.716   2.451  16.374 -0.1410  0.3563 -2.9034
17847TIP3    H275033   3.620   2.348  16.320  0.2018 -0.9716 -1.0287
17848TIP3   OH275034   5.533   0.417   3.995  0.2527  0.4653  0.5487
17848TIP3    H175035   5.577   0.414   3.910  1.0036 -0.5517  0.9608
17848TIP3    H275036   5.603   0.438   4.058 -0.0705  0.0406  1.0577
17849TIP3   OH275037   6.131   6.592  11.833  0.3423  0.0560  0.1498
17849TIP3    H175038   6.207   6.541  11.804  1.0677  0.0154  2.0334
17849TIP3    H275039   6.069   6.528  11.865  0.0484  0.1703 -0.1904
17850TIP3   OH275040   3.656   4.363   3.733  0.2968 -0.2130  0.1226
17850TIP3    H175041   3.583   4.389   3.677  0.5671  1.4913  0.5338
17850TIP3    H275042   3.619   4.365   3.822  0.5362 -0.4834  0.2293
17851TIP3   OH275043   4.273   1.887  15.536  0.1176 -0.3376 -0.1026
17851TIP3    H175044   4.204   1.828  15.567  0.5847 -1.1570 -0.5862
17851TIP3    H275045   4.307   1.844  15.457 -0.6046  1.3635 -1.3736
17852TIP3   OH275046   3.444   5.351   1.913 -0.0505  0.4475  0.6370
17852TIP3    H175047   3.447   5.256   1.923  0.7948  0.2975 -0.7980
17852TIP3    H275048   3.368   5.378   1.964 -0.8768 -1.1083  0.2812
17853TIP3   OH275049   2.780   2.143  11.757  0.1494 -0.4853  0.2915
17853TIP3    H175050   2.823   2.059  11.743 -1.4033 -1.4515  1.1746
17853TIP3    H275051   2.834   2.206  11.710  2.4867 -1.6684  1.3563
17854TIP3   OH275052   4.791   2.957  16.935 -0.3248  0.0710  0.2334
17854TIP3    H175053   4.841   2.935  17.014  1.0361  0.1173 -0.6045
17854TIP3    H275054   4.723   2.890  16.931  0.9315 -1.2193  0.2579
17855TIP3   OH275055   1.822   2.576   1.492  0.8342 -0.3268 -0.2572
17855TIP3    H175056   1.877   2.624   1.554  0.5656  0.9318 -0.9953
17855TIP3    H275057   1.882   2.516   1.447  1.2698 -0.2444  0.2205
17856TIP3   OH275058   3.887   1.972  14.486  0.2565 -0.0032 -0.0016
17856TIP3    H175059   3.875   1.967  14.581  1.8624  1.5974  0.2939
17856TIP3    H275060   3.930   1.889  14.463 -0.2996 -0.4748  0.6259
17857TIP3   OH275061   3.883   2.986   2.309 -0.3359 -0.6508 -0.7688
17857TIP3    H175062   3.881   3.071   2.353  1.7795  0.6165 -2.9724
17857TIP3    H275063   3.846   3.003   2.222  0.4591 -1.8650 -1.3591
17858TIP3   OH275064   6.436   4.914   0.001  0.1354  0.5124  0.1345
17858TIP3    H175065   6.341   4.900  -0.002  0.1109  0.5349  0.7098
17858TIP3    H275066   6.449   4.970   0.078  0.5066  1.4110 -0.5683
17859TIP3   OH275067   1.124   0.205   5.388  0.0696  0.1871 -0.2469
17859TIP3    H175068   1.208   0.177   5.352 -0.4601 -1.7047 -0.0580
17859TIP3    H275069   1.068   0.128   5.380 -1.4599  1.2409  0.2125
17860TIP3   OH275070   3.049   2.935   1.338  0.2542  0.2839 -0.6529
17860TIP3    H175071   3.033   2.980   1.255  0.4542  0.0562 -0.8183
17860TIP3    H275072   3.094   2.854   1.313  1.3491  0.7498 -0.2307
17861TIP3   OH275073   1.607   2.050  17.182  0.1729 -0.0716  0.1900
17861TIP3    H175074   1.596   2.137  17.221  1.0419  0.1980 -0.1681
17861TIP3    H275075   1.523   2.007  17.198 -1.4684  1.9367 -2.4112
17862TIP3   OH275076   2.739   6.061  14.754  0.6949  0.1991  0.1693
17862TIP3    H175077   2.730   5.996  14.684  1.5557 -0.4822  0.6838
17862TIP3    H275078   2.735   6.145  14.709 -0.5767 -0.1954 -0.4838
17863TIP3   OH275079   6.371   0.634   2.447 -0.3656  0.2447  0.0642
17863TIP3    H175080   6.355   0.540   2.444 -0.9114  0.3358  0.0361
17863TIP3    H275081   6.457   0.645   2.408  0.0490 -0.3232  0.8060
17864TIP3   OH275082   0.660   0.123  12.393 -0.3868  0.8937 -0.0808
17864TIP3    H175083   0.608   0.047  12.368 -1.0749  1.2109  0.3666
17864TIP3    H275084   0.635   0.192  12.331  1.8893  0.1351 -1.9256
17865TIP3   OH275085   4.334   4.906  13.204 -0.4986 -0.5376  0.5117
17865TIP3    H175086   4.395   4.924  13.275 -0.0199  1.1640 -0.3068
17865TIP3    H275087   4.323   4.811  13.205  1.8925 -0.8381  0.8938
17866TIP3   OH275088   5.742   4.701   0.886  0.3250 -0.0049 -0.1541
17866TIP3    H175089   5.719   4.714   0.978  1.1855  1.5318 -0.1365
17866TIP3    H275090   5.768   4.610   0.880  0.2129 -0.1240  1.1149
17867TIP3   OH275091   4.167   3.515  12.470 -0.0983  0.1729  0.4213
17867TIP3    H175092   4.083   3.530  12.514 -0.1595  0.0768  0.3348
17867TIP3    H275093   4.143   3.492  12.380  0.0555  1.2013  0.1144
17868TIP3   OH275094   0.082   0.348  15.523  0.3612 -0.1201 -0.1667
17868TIP3    H175095   0.072   0.431  15.568  0.8348  0.1225 -0.5080
17868TIP3    H275096   0.157   0.307  15.564 -0.7748 -1.0531  1.0256
17869TIP3   OH275097   4.604   3.775   4.019 -0.2185 -0.0151 -0.0869
17869TIP3    H175098   4.620   3.777   4.113 -1.4865  1.0438  0.1166
17869TIP3    H275099   4.639   3.859   3.988 -0.5339 -0.0111 -0.4321
17870TIP3   OH275100   5.526   5.729  14.565  0.4275 -0.3051 -0.5295
17870TIP3    H175101   5.493   5.790  14.632 -1.2901 -2.1158  0.3143
17870TIP3    H275102   5.614   5.760  14.546 -0.6835  2.9427 -0.7197
17871TIP3   OH275103   1.091   2.916   2.275  0.1253 -0.0317  0.1277
17871TIP3    H175104   1.049   3.002   2.283 -0.3793 -0.1805 -0.8156
17871TIP3    H275105   1.047   2.862   2.340 -1.1497 -0.1749 -0.8288
17872TIP3   OH275106   4.078   5.751   2.365  0.7704 -0.2062  0.1824
17872TIP3    H175107   4.018   5.826   2.355 -0.3457 -1.3155 -1.6082
17872TIP3    H275108   4.142   5.763   2.295  0.5112 -0.9965 -0.1872
17873TIP3   OH275109   5.351   4.461   3.908 -0.3383 -0.0655  0.5117
17873TIP3    H175110   5.304   4.501   3.835 -0.0472  0.1323  0.4305
17873TIP3    H275111   5.444   4.479   3.890 -0.2065 -0.7275  0.5051
17874TIP3   OH275112   5.754   3.204   1.933 -0.6738  0.1214 -0.0731
17874TIP3    H175113   5.804   3.231   2.010  1.8355 -0.4543 -1.4400
17874TIP3    H275114   5.785   3.115   1.915 -1.1369  0.2978 -1.8171
17875TIP3   OH275115   4.035   4.305   5.496 -0.1554 -0.7190 -0.5787
17875TIP3    H175116   4.071   4.390   5.523 -2.2105 -0.1599  0.5335
17875TIP3    H275117   4.087   4.280   5.420  0.5459  1.5176 -0.8785
17876TIP3   OH275118   0.575   1.562   1.347  0.2777  0.1352  0.0514
17876TIP3    H175119   0.656   1.587   1.392  0.3725 -0.5583  0.2726
17876TIP3    H275120   0.584   1.599   1.260  0.4689  0.7639  0.3311
17877TIP3   OH275121   0.662   3.378   6.079  0.8423 -0.1185  0.5841
17877TIP3    H175122   0.643   3.353   6.170  0.2580 -1.3315  0.1375
17877TIP3    H275123   0.576   3.394   6.040  1.0923  0.3944  0.2283
17878TIP3   OH275124   3.202   3.246  13.246 -0.1652 -0.5214  0.1504
17878TIP3    H175125   3.263   3.258  13.320 -0.7397 -0.0667  0.5510
17878TIP3    H275126   3.256   3.261  13.168 -0.0061  0.9486  0.5404
17879TIP3   OH275127   3.134   3.786   5.531  0.7899  0.1305 -0.2766
17879TIP3    H175128   3.197   3.727   5.491  0.4541  0.8611 -1.9283
17879TIP3    H275129   3.056   3.733   5.545  1.1578 -0.3120  0.1048
17880TIP3   OH275130   0.983   3.001  10.556  0.2629 -0.4521  0.1602
17880TIP3    H175131   0.972   2.972  10.647 -0.8172 -2.2237 -0.4902
17880TIP3    H275132   1.061   2.955  10.526  1.4739  1.2837  0.6204
17881TIP3   OH275133   2.178   3.796  11.323  0.1142  0.7894 -0.0030
17881TIP3    H175134   2.223   3.712  11.338  0.3802  0.8944 -0.2198
17881TIP3    H275135   2.160   3.829  11.411  2.9115  2.0591  0.1478
17882TIP3   OH275136   0.349   1.224  15.120 -0.0871  0.3549 -0.5910
17882TIP3    H175137   0.265   1.262  15.147 -0.5164 -1.0837  0.1541
17882TIP3    H275138   0.374   1.274  15.043  0.2053  3.2773  1.3428
17883TIP3   OH275139   4.785   2.437  12.756  0.5919 -0.2919 -0.4919
17883TIP3    H175140   4.746   2.485  12.682  0.0121 -2.1221 -1.4165
17883TIP3    H275141   4.779   2.498  12.830 -1.1159  0.6535 -1.3678
17884TIP3   OH275142   2.100   6.645  16.203  0.1305  0.6325 -0.0939
17884TIP3    H175143   2.181   6.634  16.153  0.5668  0.6177  0.6199
17884TIP3    H275144   2.068   6.732  16.178 -0.7250 -0.1673 -1.9529
17885TIP3   OH275145   1.426   2.676   0.195 -0.1406  0.1783 -0.8455
17885TIP3    H175146   1.331   2.666   0.200 -0.0008 -1.4548 -1.1794
17885TIP3    H275147   1.440   2.758   0.148 -1.3823  0.9137  0.0604
17886TIP3   OH275148   6.206   1.506  15.765  0.0914  0.0996 -0.3824
17886TIP3    H175149   6.242   1.467  15.845 -0.4560  3.5816  1.6753
17886TIP3    H275150   6.112   1.511  15.782  0.0202  1.2088 -1.0777
17887TIP3   OH275151   0.337   1.397  14.606  0.4034 -0.2927  0.0210
17887TIP3    H175152   0.352   1.474  14.551  0.3366 -0.1303  0.2275
17887TIP3    H275153   0.258   1.419  14.656  0.7263 -0.2526  0.5139
17888TIP3   OH275154   5.657   5.985   2.957  0.4609  0.3343  0.4013
17888TIP3    H175155   5.744   5.976   2.997 -0.6803 -0.3271  2.8194
17888TIP3    H275156   5.646   5.905   2.906  0.7574 -0.2072  1.1666
17889TIP3   OH275157   6.070   4.170   0.283 -0.5313  0.6701  0.0746
17889TIP3    H175158   6.142   4.232   0.270  1.0985 -1.4048 -1.2159
17889TIP3    H275159   6.019   4.175   0.202  0.8557 -1.1933 -0.9557
17890TIP3   OH275160   0.929   5.556  15.218 -0.3957  0.0622  0.0852
17890TIP3    H175161   0.994   5.489  15.197  0.8090  1.1976  0.1882
17890TIP3    H275162   0.865   5.510  15.273 -0.0059 -1.2019 -0.5022
17891TIP3   OH275163   1.198   2.634  16.426 -0.0769 -1.0156 -0.2836
17891TIP3    H175164   1.291   2.650  16.441 -0.4388 -0.9265  1.9344
17891TIP3    H275165   1.187   2.539  16.433  0.2732 -1.3429 -3.2510
17892TIP3   OH275166   4.199   3.169  15.586 -0.9636 -0.1203  0.5372
17892TIP3    H175167   4.222   3.078  15.606 -0.0492  0.1050  0.5070
17892TIP3    H275168   4.274   3.220  15.615  0.0957  0.2784 -2.6622
17893TIP3   OH275169   2.222   6.213  16.303  0.1587 -0.2410 -0.0177
17893TIP3    H175170   2.315   6.206  16.321  0.0862  1.4731  1.1244
17893TIP3    H275171   2.184   6.131  16.335  1.1356 -0.5535  0.3387
17894TIP3   OH275172   0.177   0.660   3.058 -0.0452 -0.2663  0.0330
17894TIP3    H175173   0.166   0.585   3.117  1.8944  0.5044  1.4238
17894TIP3    H275174   0.174   0.736   3.116 -1.6950  0.7336 -1.3252
17895TIP3   OH275175   1.122   6.342   1.687  0.7220 -0.3877  0.0556
17895TIP3    H175176   1.161   6.387   1.762  0.2101  0.0710  0.0515
17895TIP3    H275177   1.124   6.249   1.710 -0.3237 -0.1644  1.0540
17896TIP3   OH275178   4.091   1.301  14.189 -0.2900 -0.2576 -0.5805
17896TIP3    H175179   4.010   1.279  14.142  0.2309 -0.1013 -1.5748
17896TIP3    H275180   4.107   1.393  14.166 -0.6592  0.1853  0.8629
17897TIP3   OH275181   6.393   4.706  13.954  0.0618 -0.5013 -0.1434
17897TIP3    H175182   6.462   4.739  13.895 -1.0644 -1.8725 -2.2926
17897TIP3    H275183   6.437   4.694  14.038  1.3256  3.1155 -0.1972
17898TIP3   OH275184   4.836   0.717   6.696  0.5191  0.3420 -0.2949
17898TIP3    H175185   4.749   0.706   6.733  0.0676  1.1468 -1.0930
17898TIP3    H275186   4.876   0.631   6.702 -0.2604  0.0072  0.2423
17899TIP3   OH275187   5.683   2.149  14.582  0.1783 -0.0581  0.0289
17899TIP3    H175188   5.700   2.108  14.667  0.2205  0.6165  0.3547
17899TIP3    H275189   5.596   2.188  14.592  0.2650  0.1865 -0.1675
17900TIP3   OH275190   5.679   3.765  13.693 -0.3257  0.0210 -1.1131
17900TIP3    H175191   5.584   3.774  13.694 -0.1694  1.7443  0.0561
17900TIP3    H275192   5.705   3.799  13.607 -0.8077 -1.1918 -1.7590
17901TIP3   OH275193   5.879   5.776   3.837 -0.0746 -0.6092  0.0486
17901TIP3    H175194   5.914   5.692   3.807 -0.1990 -1.6487  2.6602
17901TIP3    H275195   5.786   5.759   3.852 -0.4046  0.4131 -0.8509
17902TIP3   OH275196   4.308   6.464   2.590 -0.3629 -0.2270  0.1412
17902TIP3    H175197   4.221   6.436   2.621 -0.0921 -1.4329 -0.1379
17902TIP3    H275198   4.304   6.452   2.495 -0.2814  0.8429  0.0009
17903TIP3   OH275199   2.623   0.864   4.833  0.0780  0.2256  0.6943
17903TIP3    H175200   2.652   0.772   4.834  1.5239  0.6637  0.3762
17903TIP3    H275201   2.605   0.882   4.741 -0.6683  0.1231  0.8205
17904TIP3   OH275202   5.907   2.020  15.780  0.0497 -0.3689 -0.1022
17904TIP3    H175203   5.957   2.087  15.826  1.7416 -0.5569 -1.6259
17904TIP3    H275204   5.858   2.068  15.713  0.2834 -0.5101 -0.3749
17905TIP3   OH275205   2.675   3.530   1.914  0.0514  0.0496  0.0671
17905TIP3    H175206   2.754   3.521   1.968 -0.7777 -1.2077  1.0845
17905TIP3    H275207   2.683   3.461   1.849 -0.0924  0.0868  0.0111
17906TIP3   OH275208   5.261   5.650   1.535 -0.5258  0.0353 -0.0708
17906TIP3    H175209   5.263   5.670   1.628  0.9483 -1.0341  0.1417
17906TIP3    H275210   5.181   5.693   1.503 -0.2447  1.6705  1.3727
17907TIP3   OH275211   6.786   4.682  12.589  0.2935  0.2961 -0.4881
17907TIP3    H175212   6.722   4.752  12.577  0.7714  0.5928 -1.4177
17907TIP3    H275213   6.748   4.626  12.656 -0.7376  0.7100 -0.7062
17908TIP3   OH275214   2.402   1.808  10.840 -0.1044  0.2332 -0.4935
17908TIP3    H175215   2.451   1.859  10.775  3.0605 -0.3609  1.3314
17908TIP3    H275216   2.384   1.725  10.796  0.1043  0.6406 -1.3652
17909TIP3   OH275217   2.968   3.841  13.785  0.3744  0.7294 -0.4942
17909TIP3    H175218   2.954   3.751  13.815  1.6409  1.6120  2.9327
17909TIP3    H275219   3.039   3.833  13.721 -0.3740 -0.8347 -1.1621
17910TIP3   OH275220   4.436   5.004   4.753 -0.4251  0.9468 -0.4621
17910TIP3    H175221   4.365   4.971   4.808  2.5002 -2.1666  1.6164
17910TIP3    H275222   4.488   5.060   4.812  0.7990  0.3826 -0.9855
17911TIP3   OH275223   4.193   0.286  16.604  0.0174  0.1520  0.1471
17911TIP3    H175224   4.210   0.194  16.622  0.7697  0.0422 -1.1066
17911TIP3    H275225   4.192   0.327  16.690  0.1360 -0.9416  0.6817
17912TIP3   OH275226   1.528   1.307  16.044  0.6574 -0.3469 -1.1348
17912TIP3    H175227   1.557   1.227  16.088 -2.1919 -0.9320 -0.2197
17912TIP3    H275228   1.582   1.376  16.082  2.9534 -1.7774 -1.7213
17913TIP3   OH275229   6.367   6.178   2.745 -0.1650  0.1736 -0.0035
17913TIP3    H175230   6.347   6.232   2.668  1.5193  1.5444  0.4764
17913TIP3    H275231   6.396   6.095   2.709 -0.0249  0.5826 -0.8553
17914TIP3   OH275232   4.634   5.167   1.034 -0.4932 -0.1104 -0.1048
17914TIP3    H175233   4.591   5.107   1.095  2.3625 -2.7471 -0.5837
17914TIP3    H275234   4.605   5.138   0.947 -0.9064  0.6960 -0.2429
17915TIP3   OH275235   1.738   0.665  15.439 -0.0045  0.6764 -0.3864
17915TIP3    H175236   1.686   0.584  15.446 -0.4194  0.8743 -1.0845
17915TIP3    H275237   1.756   0.689  15.530  0.9592 -0.7262 -0.1862
17916TIP3   OH275238   3.732   0.310   3.984 -0.1461 -0.5033 -0.5934
17916TIP3    H175239   3.781   0.377   4.033  1.7704 -1.3551 -1.2760
17916TIP3    H275240   3.763   0.227   4.021 -0.1029 -1.0960 -1.9563
17917TIP3   OH275241   4.507   5.104  13.473 -0.0614 -0.3296 -0.3777
17917TIP3    H175242   4.549   5.168  13.530  2.2797 -3.3224  1.4771
17917TIP3    H275243   4.413   5.119  13.484  0.4179  1.2437  1.8256
17918TIP3   OH275244   1.258   5.674  11.173 -0.1054 -0.1515 -0.0294
17918TIP3    H175245   1.199   5.738  11.133 -0.8153 -0.1183  1.0418
17918TIP3    H275246   1.201   5.623  11.231  0.7283 -0.8201  0.2067
17919TIP3   OH275247   3.016   2.557  12.847  0.7788 -0.0804 -0.3147
17919TIP3    H175248   2.954   2.505  12.795  1.1366 -0.8766  0.0425
17919TIP3    H275249   3.026   2.638  12.797 -1.7079  0.7167  0.3801
17920TIP3   OH275250   1.775   5.567  10.445 -0.1526 -0.3642  0.0364
17920TIP3    H175251   1.772   5.544  10.539  0.6962 -0.4058  0.0549
17920TIP3    H275252   1.847   5.515  10.410 -1.7274 -1.8854 -1.0657
17921TIP3   OH275253   2.256   4.043  13.118  0.1956  0.3440 -0.0483
17921TIP3    H175254   2.331   3.999  13.158 -0.4445 -0.0064  0.7869
17921TIP3    H275255   2.180   3.990  13.144 -0.1779 -0.2800 -2.3174
17922TIP3   OH275256   4.582   0.348   3.867 -0.2313 -0.3828 -0.0276
17922TIP3    H175257   4.655   0.373   3.809  0.8140 -2.6671  0.2415
17922TIP3    H275258   4.525   0.296   3.811 -0.8695  0.1144  0.1642
17923TIP3   OH275259   3.101   6.114   4.799 -0.0443 -0.4457  0.1288
17923TIP3    H175260   3.009   6.119   4.826  0.3020  0.2976  1.2378
17923TIP3    H275261   3.113   6.187   4.738 -0.1123 -0.3134  0.2714
17924TIP3   OH275262   4.965   4.346  10.929 -0.5017  0.2598 -0.5186
17924TIP3    H175263   4.984   4.253  10.928  0.2213  0.4018 -0.4516
17924TIP3    H275264   5.040   4.387  10.886 -1.5211  0.6964 -1.8865
17925TIP3   OH275265   1.530   3.392  12.261  0.1978 -0.2171  0.2577
17925TIP3    H175266   1.476   3.361  12.188  0.6399  1.4050 -0.7835
17925TIP3    H275267   1.581   3.315  12.288 -1.1239 -1.2350 -0.0867
17926TIP3   OH275268   5.206   6.238   4.490 -0.3398  0.2503 -0.2349
17926TIP3    H175269   5.251   6.154   4.494 -0.3777  0.2231 -0.3882
17926TIP3    H275270   5.150   6.232   4.413 -0.2213  0.4754 -0.3382
17927TIP3   OH275271   4.132   6.065  15.670 -0.1971  0.0889  0.3727
17927TIP3    H175272   4.117   6.018  15.752  1.4165 -0.0800  0.5983
17927TIP3    H275273   4.129   6.158  15.695  0.0798  0.0408  0.5993
17928TIP3   OH275274   3.886   4.935  12.445  0.8231 -0.3948  0.0506
17928TIP3    H175275   3.940   4.983  12.382 -0.1183  1.1064  0.3526
17928TIP3    H275276   3.823   5.000  12.476  1.2584 -1.1200  2.5227
17929TIP3   OH275277   0.274   6.724   1.731  0.2948  0.0455 -0.2766
17929TIP3    H175278   0.201   6.721   1.792  0.9784  0.8485  0.5939
17929TIP3    H275279   0.244   6.674   1.655 -0.2859 -1.5746  0.9993
17930TIP3   OH275280   0.874   0.442   0.198 -0.0426  0.0622  1.1397
17930TIP3    H175281   0.821   0.459   0.276 -1.3130 -1.2421  0.5722
17930TIP3    H275282   0.813   0.448   0.125  0.0536 -3.6870  0.6556
17931TIP3   OH275283   6.375   5.959   6.716 -0.3096  0.0298 -0.1828
17931TIP3    H175284   6.310   5.928   6.652 -0.9910  0.8524  0.0881
17931TIP3    H275285   6.427   6.023   6.668 -1.1725  1.0522  0.2225
17932TIP3   OH275286   2.593   5.570  14.945  0.3425 -0.6233  0.1659
17932TIP3    H175287   2.659   5.620  14.898 -0.3652  0.4122  0.2292
17932TIP3    H275288   2.517   5.571  14.887  0.6606 -2.5582 -0.2913
17933TIP3   OH275289   4.755   1.902   0.674 -0.1036 -0.2406 -0.2667
17933TIP3    H175290   4.733   1.927   0.584 -0.2009 -0.7876 -0.3957
17933TIP3    H275291   4.849   1.888   0.673 -0.1357 -0.4620 -0.3401
17934TIP3   OH275292   3.836   4.448  14.498 -0.1126 -0.3410  0.6600
17934TIP3    H175293   3.801   4.366  14.464 -0.7888  0.3195 -0.2709
17934TIP3    H275294   3.762   4.488  14.544 -0.3621  0.6933 -0.6309
17935TIP3   OH275295   1.508   5.935  13.464  0.2793 -0.2078  0.1824
17935TIP3    H175296   1.419   5.972  13.470  0.3880  0.3282 -1.3220
17935TIP3    H275297   1.565   6.012  13.463  0.8037 -0.5586  1.4561
17936TIP3   OH275298   2.951   2.410   0.453 -0.1445 -1.0584 -0.6688
17936TIP3    H175299   2.926   2.326   0.415  0.4339 -0.3967 -2.5473
17936TIP3    H275300   3.042   2.422   0.426 -0.1617  0.0690 -0.2239
17937TIP3   OH275301   4.108   4.332   3.773  0.4495  0.3051 -0.9053
17937TIP3    H175302   4.050   4.273   3.725  0.6720 -0.5872 -0.0880
17937TIP3    H275303   4.094   4.418   3.732  0.6664 -0.4433 -2.5757
17938TIP3   OH275304   6.308   2.515   4.738  0.2522  0.4186  0.0060
17938TIP3    H175305   6.245   2.572   4.694  1.1984  0.9568 -0.6705
17938TIP3    H275306   6.291   2.528   4.831 -0.5460  0.6658 -0.1691
17939TIP3   OH275307   6.375   4.420   2.948  0.2620  0.1948  0.0774
17939TIP3    H175308   6.367   4.367   3.028  0.4508 -0.3773 -0.2785
17939TIP3    H275309   6.285   4.429   2.916  0.1899  0.3903  0.3318
17940TIP3   OH275310   5.700   3.841   6.332  0.1204  0.6311 -0.0713
17940TIP3    H175311   5.673   3.832   6.240 -0.8361  1.4517  0.1293
17940TIP3    H275312   5.631   3.893   6.373 -0.1987 -0.9432  1.4516
17941TIP3   OH275313   1.367   1.737  15.459  0.7737  0.0341  0.3928
17941TIP3    H175314   1.441   1.690  15.421  1.0284  1.1674 -0.5713
17941TIP3    H275315   1.293   1.676  15.454  1.0906 -0.2598 -0.8580
17942TIP3   OH275316   0.764   3.893   3.230  0.6595 -0.4269 -0.0075
17942TIP3    H175317   0.814   3.948   3.170 -0.6646  0.1737 -0.5894
17942TIP3    H275318   0.819   3.816   3.244  1.7248  0.2059 -0.6438
17943TIP3   OH275319   4.884   1.224   0.555  0.6477  0.2542  0.5476
17943TIP3    H175320   4.827   1.297   0.577  0.4966  0.4103 -0.3465
17943TIP3    H275321   4.833   1.146   0.577 -0.5356  0.3507 -1.6421
17944TIP3   OH275322   4.866   3.671  14.962  0.5818 -0.2294  0.0605
17944TIP3    H175323   4.844   3.725  14.886 -1.6828 -2.0842 -0.6619
17944TIP3    H275324   4.798   3.693  15.026  1.3007 -0.1694  0.8108
17945TIP3   OH275325   3.424   4.886  13.705 -0.1322  0.0453 -0.5237
17945TIP3    H175326   3.502   4.905  13.757  0.0346 -0.9165 -0.4240
17945TIP3    H275327   3.355   4.873  13.769  0.1683 -1.5787 -0.5167
17946TIP3   OH275328   2.295   0.910  12.844 -0.0629  0.0720  0.0634
17946TIP3    H175329   2.304   0.851  12.918 -0.7303 -1.3218 -0.9229
17946TIP3    H275330   2.339   0.990  12.870  0.3023 -0.6498  1.6842
17947TIP3   OH275331   4.207   5.411   2.153  0.2036  0.3418  0.3520
17947TIP3    H175332   4.259   5.469   2.097 -0.8870  0.5410 -0.4588
17947TIP3    H275333   4.172   5.345   2.093 -0.7268  0.3871  0.8373
17948TIP3   OH275334   5.757   2.916  13.237 -0.2225  0.2883 -0.1187
17948TIP3    H175335   5.724   2.958  13.158  2.1928  1.5501 -0.4912
17948TIP3    H275336   5.737   2.823  13.225 -0.2326  0.5196 -2.0310
17949TIP3   OH275337   3.411   6.378   1.392 -0.8541 -0.3551  0.0410
17949TIP3    H175338   3.463   6.419   1.462 -1.5986  1.7887 -0.6045
17949TIP3    H275339   3.460   6.300   1.367 -0.2833 -0.8525  2.5693
17950TIP3   OH275340   2.150   3.636   5.431 -0.4729  0.2876  0.3453
17950TIP3    H175341   2.193   3.719   5.409  0.4151 -0.1617  0.3769
17950TIP3    H275342   2.178   3.618   5.520  1.9228 -1.6599 -0.7505
17951TIP3   OH275343   0.215   0.510  11.493 -0.5755 -0.4742 -0.2906
17951TIP3    H175344   0.301   0.505  11.451 -0.8045 -0.0277 -0.8370
17951TIP3    H275345   0.224   0.581  11.556 -1.1372  1.0137 -1.8307
17952TIP3   OH275346   0.829   5.069   1.060 -0.7213  0.0383  0.1234
17952TIP3    H175347   0.860   5.159   1.053  1.0764 -0.5774 -0.0986
17952TIP3    H275348   0.751   5.074   1.115 -0.8619  1.7753 -0.2184
17953TIP3   OH275349   2.307   2.704  15.472  0.1987 -0.1306  0.6485
17953TIP3    H175350   2.223   2.730  15.510  0.8948 -0.1326  2.2311
17953TIP3    H275351   2.371   2.720  15.541  1.6286  0.6492 -0.8139
17954TIP3   OH275352   6.639   3.218  13.175  0.0950 -0.3957  0.1258
17954TIP3    H175353   6.702   3.211  13.247  1.2339  1.1663 -0.6834
17954TIP3    H275354   6.553   3.218  13.219  0.7927  1.3255  1.5928
17955TIP3   OH275355   3.792   1.811   0.589  0.2379  0.4751  0.2563
17955TIP3    H175356   3.881   1.777   0.582  0.2270 -0.2418  2.9460
17955TIP3    H275357   3.801   1.904   0.568  1.1616 -0.0946 -1.9997
17956TIP3   OH275358   2.190   4.011   1.366 -0.3597 -0.5596 -0.3423
17956TIP3    H175359   2.227   3.989   1.451  0.5006 -0.9375 -0.8002
17956TIP3    H275360   2.266   4.019   1.308 -0.8577  0.7277 -0.8438
17957TIP3   OH275361   2.087   2.668  12.557 -0.5970 -0.0202 -0.3561
17957TIP3    H175362   2.003   2.632  12.587 -0.6486 -0.0839 -0.5698
17957TIP3    H275363   2.148   2.650  12.628 -1.0989  1.3381  0.4199
17958TIP3   OH275364   4.263   2.354  17.163  0.2103 -0.0312  0.0860
17958TIP3    H175365   4.191   2.349  17.225  0.1459  0.1149  0.0254
17958TIP3    H275366   4.315   2.429  17.192 -0.1984  0.4642 -0.4284
17959TIP3   OH275367   6.114   5.896  12.996 -0.1637 -0.0854 -0.3795
17959TIP3    H175368   6.152   5.839  12.930  0.6828  0.2205 -0.1599
17959TIP3    H275369   6.055   5.840  13.046  0.2434 -0.6391 -0.5216
17960TIP3   OH275370   4.926   5.647   5.114  0.3770  0.0828 -0.2894
17960TIP3    H175371   5.019   5.669   5.110  0.3297  0.5242  0.8597
17960TIP3    H275372   4.915   5.580   5.047  1.7732 -0.8535  0.3888
17961TIP3   OH275373   1.095   5.407   1.332  0.6691 -0.4166  0.2199
17961TIP3    H175374   1.130   5.463   1.402  3.6430  0.8688 -2.1580
17961TIP3    H275375   1.133   5.320   1.351  0.8727 -0.2504  0.5935
17962TIP3   OH275376   0.748   4.848   1.366  0.1493  0.4891  0.1673
17962TIP3    H175377   0.761   4.783   1.297  0.2208  0.4860  0.1833
17962TIP3    H275378   0.695   4.917   1.324 -1.1573 -0.2581  0.5768
17963TIP3   OH275379   5.820   6.386  13.380  0.7608 -0.4207 -0.6144
17963TIP3    H175380   5.753   6.340  13.430  2.1223 -0.8923  0.8323
17963TIP3    H275381   5.899   6.379  13.434  1.2005  2.9784 -0.6837
17964TIP3   OH275382   2.802   0.795  13.632 -0.4872 -0.1638  0.4961
17964TIP3    H175383   2.723   0.742  13.639 -0.6820 -0.2130 -1.5694
17964TIP3    H275384   2.868   0.734  13.597 -0.3895  0.6306 -0.7322
17965TIP3   OH275385   0.617   2.754   0.575  0.3138 -0.1973  0.0827
17965TIP3    H175386   0.534   2.710   0.557  0.0423  0.6440 -0.7951
17965TIP3    H275387   0.596   2.819   0.642  0.6893 -1.2929  1.2902
17966TIP3   OH275388   5.857   1.593   0.611  0.0800 -0.2901 -0.1916
17966TIP3    H175389   5.861   1.545   0.528 -1.0034 -1.2435  0.2833
17966TIP3    H275390   5.790   1.659   0.597  0.2089 -0.1641 -0.2168
17967TIP3   OH275391   2.613   5.890   2.788  0.1914 -0.0229 -0.2020
17967TIP3    H175392   2.613   5.863   2.880 -1.3306  0.5038 -0.0312
17967TIP3    H275393   2.673   5.830   2.745 -1.5564 -2.3768  0.5532
17968TIP3   OH275394   3.742   6.232   0.966  0.1887  1.1414  0.2788
17968TIP3    H175395   3.751   6.259   1.058  0.2165 -0.0262  0.6297
17968TIP3    H275396   3.773   6.142   0.965  2.9308  2.0497 -1.4240
17969TIP3   OH275397   1.710   2.873  16.415 -0.5044 -0.1408 -0.1928
17969TIP3    H175398   1.776   2.804  16.406 -0.1260  0.4701 -2.5077
17969TIP3    H275399   1.739   2.924  16.490 -0.0091 -1.6445  0.6697
17970TIP3   OH275400   5.917   1.889   2.528 -0.4228  0.0046 -0.0402
17970TIP3    H175401   5.976   1.876   2.602 -2.8700 -1.3990  1.7261
17970TIP3    H275402   5.965   1.854   2.453  1.8991  1.0197  0.9015
17971TIP3   OH275403   5.480   6.205  11.887 -0.0590  0.1179 -0.4548
17971TIP3    H175404   5.566   6.169  11.867  0.7903  1.5719  0.4605
17971TIP3    H275405   5.433   6.134  11.931 -0.1516 -1.4313 -2.9790
17972TIP3   OH275406   4.452   0.295   5.647 -0.1895  0.5183  0.4090
17972TIP3    H175407   4.378   0.341   5.608  0.5587  0.5737 -0.9838
17972TIP3    H275408   4.449   0.319   5.740 -0.2358  2.8341 -0.1423
17973TIP3   OH275409   4.544   0.729  15.914  0.1857  0.3033 -0.7631
17973TIP3    H175410   4.619   0.679  15.882  0.3457 -0.2770  0.4752
17973TIP3    H275411   4.468   0.685  15.874  0.3768 -0.4218 -0.3348
17974TIP3   OH275412   3.570   1.720  15.909  0.5620  0.8328  0.4062
17974TIP3    H175413   3.636   1.663  15.871  0.9531  1.0524  0.7539
17974TIP3    H275414   3.499   1.722  15.845  0.5371 -0.0565  0.4040
17975TIP3   OH275415   1.877   5.288   0.839 -0.4810 -0.1471 -0.2859
17975TIP3    H175416   1.832   5.277   0.923  0.1283 -1.2366 -0.0938
17975TIP3    H275417   1.970   5.281   0.861 -0.1543  2.6677 -0.5797
17976TIP3   OH275418   2.145   2.407  12.846  0.2407 -0.0723 -0.5939
17976TIP3    H175419   2.194   2.395  12.764 -0.3399 -0.3108 -0.9115
17976TIP3    H275420   2.211   2.433  12.910  0.5424  1.2124 -1.4056
17977TIP3   OH275421   1.660   0.411   4.795 -0.2329  0.3180  0.2072
17977TIP3    H175422   1.739   0.376   4.836  1.2025  0.5798 -2.1983
17977TIP3    H275423   1.621   0.336   4.751 -2.4730 -0.2414  3.0682
17978TIP3   OH275424   3.411   0.970  15.300 -0.2424 -0.4193  0.2711
17978TIP3    H175425   3.380   1.046  15.348  0.6048  0.0938  0.0027
17978TIP3    H275426   3.502   0.990  15.278  0.1566 -1.7227  0.6595
17979TIP3   OH275427   0.419   4.661   3.809  0.7189  0.4840 -0.2479
17979TIP3    H175428   0.409   4.567   3.795  0.0813  0.2649  1.5981
17979TIP3    H275429   0.510   4.679   3.784  0.7685 -0.5750 -0.8599
17980TIP3   OH275430   2.072   2.211  14.955 -0.7130 -0.5479 -0.4274
17980TIP3    H175431   2.039   2.294  14.991 -0.8849 -0.4039 -0.9059
17980TIP3    H275432   2.142   2.185  15.015 -0.1602  0.3280 -0.6850
17981TIP3   OH275433   1.565   1.564   3.944 -0.0918 -0.3535  0.3053
17981TIP3    H175434   1.581   1.499   3.875  0.7244  0.1205  0.0435
17981TIP3    H275435   1.492   1.527   3.995  0.3930 -1.5095  0.1926
17982TIP3   OH275436   3.423   6.669   0.758 -0.6402 -0.0815  0.6187
17982TIP3    H175437   3.403   6.599   0.820 -1.3343  0.2285  0.7483
17982TIP3    H275438   3.428   6.625   0.673  2.2020 -0.8209  1.1201
17983TIP3   OH275439   5.741   1.476   1.173  0.1969 -0.2209  0.2503
17983TIP3    H175440   5.813   1.455   1.233  0.8384  1.1569 -0.0034
17983TIP3    H275441   5.663   1.473   1.228  0.5258 -1.0887  0.6777
17984TIP3   OH275442   5.978   1.103  16.030 -0.3583  0.0243  0.1865
17984TIP3    H175443   6.012   1.031  16.084 -3.3837 -1.1762  0.5735
17984TIP3    H275444   5.965   1.063  15.944 -1.9652  0.1116  0.3823
17985TIP3   OH275445   5.656   0.983   3.533  0.7300  0.3064  0.0668
17985TIP3    H175446   5.735   1.005   3.583  0.7931 -0.3199  0.2526
17985TIP3    H275447   5.599   0.939   3.597  0.8204 -0.5281 -0.4157
17986TIP3   OH275448   4.157   2.403  15.780  0.1589 -0.5155  0.1615
17986TIP3    H175449   4.232   2.379  15.834  2.0138  1.8251 -1.2543
17986TIP3    H275450   4.169   2.355  15.698 -1.1001 -1.8246  0.7178
17987TIP3   OH275451   5.234   1.781   5.209 -0.1576  0.5682  0.0834
17987TIP3    H175452   5.325   1.773   5.181  0.1751  1.3030  0.9149
17987TIP3    H275453   5.185   1.722   5.152  0.7441  0.7113 -0.8346
17988TIP3   OH275454   4.207   6.613  12.235 -0.1225 -0.2516 -0.0726
17988TIP3    H175455   4.293   6.606  12.278  0.7308 -1.6960 -1.9180
17988TIP3    H275456   4.187   6.523  12.207 -2.7590 -0.1158  1.2802
17989TIP3   OH275457   4.521   1.516   1.815 -0.1038 -0.1936  0.3173
17989TIP3    H175458   4.455   1.450   1.792  2.5893 -2.6821 -0.4643
17989TIP3    H275459   4.512   1.527   1.909 -2.0739 -0.0002  0.1275
17990TIP3   OH275460   6.130   2.498  15.712 -0.7228  0.0841 -0.1122
17990TIP3    H175461   6.101   2.493  15.620  0.7432  1.2245 -0.6563
17990TIP3    H275462   6.093   2.579  15.744  2.2516  1.8693 -0.9926
17991TIP3   OH275463   2.549   4.422  13.898  0.3990  0.5915 -0.4465
17991TIP3    H175464   2.595   4.413  13.814  0.4630  0.2665 -0.3767
17991TIP3    H275465   2.457   4.429  13.874  0.2800 -0.8993 -0.4728
17992TIP3   OH275466   3.590   0.571  15.224  0.3620  0.2657  0.4876
17992TIP3    H175467   3.561   0.645  15.170  0.4305  0.8516  1.2529
17992TIP3    H275468   3.669   0.539  15.179  0.9146  1.2941  0.6961
17993TIP3   OH275469   0.529   4.933   0.108  0.5534 -0.1025  0.4929
17993TIP3    H175470   0.584   4.874   0.057  0.3648  1.7128 -1.9094
17993TIP3    H275471   0.518   4.890   0.193  4.2936 -1.2921  0.4441
17994TIP3   OH275472   5.258   5.235  12.778 -0.1353 -0.2024 -0.0738
17994TIP3    H175473   5.309   5.155  12.791  1.4196  0.8847  0.5663
17994TIP3    H275474   5.248   5.242  12.683 -1.3496 -1.8043 -0.0904
17995TIP3   OH275475   6.294   6.652  16.050  0.2917  0.4333  0.1039
17995TIP3    H175476   6.347   6.711  15.995  0.4362  1.7860  1.6660
17995TIP3    H275477   6.319   6.674  16.139 -1.6604 -0.1303  0.8065
17996TIP3   OH275478   6.605   2.187   4.235  0.2465 -0.2420  0.1390
17996TIP3    H175479   6.632   2.218   4.149  2.7114 -0.0137  0.9544
17996TIP3    H275480   6.599   2.266   4.288  0.7998 -0.5778  0.7092
17997TIP3   OH275481   6.055   6.640  10.915  0.0204 -0.5264  0.2208
17997TIP3    H175482   5.991   6.701  10.878  0.6722 -0.2451 -0.4652
17997TIP3    H275483   6.039   6.642  11.009 -0.0134  0.6444  0.1964
17998TIP3   OH275484   5.261   4.773  15.860  0.0504  0.8469  0.3160
17998TIP3    H175485   5.221   4.858  15.843 -1.0461  0.3602  0.4233
17998TIP3    H275486   5.269   4.768  15.956  0.5695  1.0263  0.2852
17999TIP3   OH275487   6.239   0.953  11.596 -0.4797 -0.0183 -0.4088
17999TIP3    H175488   6.224   0.939  11.502  0.6513  1.3747 -0.8251
17999TIP3    H275489   6.206   1.041  11.613  0.6906  0.3215  0.1660
18000TIP3   OH275490   1.800   3.380   4.397 -0.5189  0.3198  0.8642
18000TIP3    H175491   1.844   3.434   4.462  1.4232  0.1665 -0.2984
18000TIP3    H275492   1.779   3.441   4.325 -0.4247 -0.0120  0.5561
18001TIP3   OH275493   5.666   1.112   4.262 -1.0552 -0.1955 -1.0420
18001TIP3    H175494   5.705   1.088   4.178  0.2201  0.1406 -0.5531
18001TIP3    H275495   5.682   1.037   4.319  0.8519  0.8230 -0.2012
18002TIP3   OH275496   2.561   5.478  14.405  0.2274  0.3668  0.1183
18002TIP3    H175497   2.568   5.405  14.466  0.9230  0.1305 -0.2395
18002TIP3    H275498   2.607   5.448  14.326 -0.4832  0.7442 -0.4502
18003TIP3   OH275499   2.197   1.236  11.357  0.0164 -0.9160  0.6571
18003TIP3    H175500   2.169   1.171  11.420 -0.9108 -0.0231  1.1913
18003TIP3    H275501   2.235   1.307  11.410  1.7118 -1.3383  0.0453
18004TIP3   OH275502   5.981   3.753   1.411 -0.0240  0.1354 -0.1047
18004TIP3    H175503   6.039   3.757   1.335  0.3188 -0.3832  0.1260
18004TIP3    H275504   5.942   3.840   1.416 -0.0159  0.1905 -0.8492
18005TIP3   OH275505   3.072   6.806   6.807  0.0663 -0.0133 -0.0444
18005TIP3    H175506   3.024   6.886   6.829  0.0609 -0.1255  0.3610
18005TIP3    H275507   3.061   6.750   6.884 -0.0018 -0.4379 -0.3623
18006TIP3   OH275508   2.884   1.157   6.270  0.1820 -0.4562 -0.2885
18006TIP3    H175509   2.860   1.249   6.283  2.3655  0.1435 -0.4574
18006TIP3    H275510   2.878   1.118   6.358 -0.3186 -0.0762 -0.1500
18007TIP3   OH275511   6.497   4.923   0.954 -0.0485 -0.1048 -0.3906
18007TIP3    H175512   6.583   4.953   0.924  0.4476 -1.2550 -0.1349
18007TIP3    H275513   6.491   4.832   0.924 -1.0107 -0.1523 -0.0634
18008TIP3   OH275514   3.941   5.998   3.172  0.5010  0.1454 -0.0943
18008TIP3    H175515   3.942   6.090   3.200  0.2742  0.3668 -0.7853
18008TIP3    H275516   4.032   5.979   3.148  0.1689  0.8594 -2.0264
18009TIP3   OH275517   1.806   1.945  15.931  1.0228  0.3188 -0.3180
18009TIP3    H175518   1.845   2.031  15.916  0.8129  0.0157 -2.6796
18009TIP3    H275519   1.727   1.963  15.982 -0.1632  1.7626 -2.6048
18010TIP3   OH275520   6.260   2.405   0.004 -0.2671 -0.1852 -0.0297
18010TIP3    H175521   6.173   2.366   0.006 -0.8767  1.1784  1.3963
18010TIP3    H275522   6.245   2.498   0.022  1.2997  0.4328 -1.7425
18011TIP3   OH275523   2.680   6.041   3.656 -0.3992 -0.6483  0.5225
18011TIP3    H175524   2.622   5.968   3.679 -1.5335  0.4203  1.1469
18011TIP3    H275525   2.765   6.018   3.693 -0.7751 -1.6087  0.7961
18012TIP3   OH275526   5.969   1.460   1.834 -0.4060 -0.3378  0.2126
18012TIP3    H175527   6.006   1.434   1.750  2.0189  1.6363  0.6026
18012TIP3    H275528   5.990   1.553   1.842 -0.1851 -0.5794  3.1809
18013TIP3   OH275529   0.847   1.539  14.799 -0.3683 -0.2477  0.2775
18013TIP3    H175530   0.828   1.617  14.748 -1.6139 -0.8607 -0.2299
18013TIP3    H275531   0.941   1.542  14.814 -0.3607  1.1935  0.0188
18014TIP3   OH275532   5.562   6.791  12.055 -0.1591  0.2439  0.1883
18014TIP3    H175533   5.543   6.724  12.120 -1.1251  0.4934  0.1696
18014TIP3    H275534   5.658   6.802  12.059 -0.3733  1.7084  3.0267
18015TIP3   OH275535   0.790   6.428   4.958  0.2522 -0.3978 -0.5848
18015TIP3    H175536   0.722   6.376   5.002 -0.5250  0.2258 -1.0317
18015TIP3    H275537   0.842   6.464   5.030 -1.7131  1.5634 -0.0727
18016TIP3   OH275538   2.930   6.332   4.279 -0.6916 -0.2426  0.2977
18016TIP3    H175539   3.012   6.377   4.259 -0.7006 -0.8116 -1.0493
18016TIP3    H275540   2.877   6.397   4.325  0.5696  0.0809  1.2879
18017TIP3   OH275541   0.244   0.764   4.061 -0.3462  0.0589 -0.3704
18017TIP3    H175542   0.168   0.711   4.041 -0.7120  0.3683  0.1726
18017TIP3    H275543   0.287   0.719   4.133 -0.1600  0.0210 -0.5049
18018TIP3   OH275544   1.914   5.068  16.589  0.4908 -0.5328  0.4532
18018TIP3    H175545   2.009   5.061  16.579  0.4018 -0.8006 -0.2376
18018TIP3    H275546   1.894   5.013  16.665  0.6841 -1.9269 -0.4820
18019TIP3   OH275547   6.819   6.807  14.708  0.0907  0.6370 -0.3106
18019TIP3    H175548   6.897   6.834  14.757  1.1779 -1.4306 -0.8371
18019TIP3    H275549   6.780   6.738  14.761 -0.2285  0.2445 -1.0457
18020TIP3   OH275550   3.777   5.485   1.800  0.0993  0.2045  0.5481
18020TIP3    H175551   3.808   5.410   1.852  1.7699  0.1759 -0.4618
18020TIP3    H275552   3.846   5.550   1.808  0.5166  0.1031 -1.8288
18021TIP3   OH275553   6.386   3.665   2.776 -0.4184 -0.4360 -0.4432
18021TIP3    H175554   6.360   3.757   2.777 -0.6426 -0.4875 -1.1779
18021TIP3    H275555   6.356   3.633   2.691 -0.1047 -1.1189 -0.2971
18022TIP3   OH275556   3.542   3.283   0.340  0.4486 -0.0645 -0.1965
18022TIP3    H175557   3.558   3.199   0.383  0.3500  0.5414  1.0330
18022TIP3    H275558   3.471   3.265   0.279 -1.3515 -0.2935  1.9121
18023TIP3   OH275559   2.715   1.435  11.178 -0.0862 -0.7082  0.1972
18023TIP3    H175560   2.713   1.527  11.203 -0.7452 -0.5978 -0.2323
18023TIP3    H275561   2.803   1.421  11.143  0.2078 -0.3931  0.8047
18024TIP3   OH275562   0.872   2.166  14.549  0.2286 -0.2258  0.6984
18024TIP3    H175563   0.954   2.120  14.534  0.7667  0.2625  2.0201
18024TIP3    H275564   0.835   2.124  14.627 -1.8708 -1.9095 -1.1634
18025TIP3   OH275565   4.049   5.378   1.927 -0.0724 -0.0664  0.6027
18025TIP3    H175566   4.085   5.390   1.839 -2.7029 -0.5080 -0.5575
18025TIP3    H275567   4.070   5.287   1.950  0.2214 -0.0835  0.2631
18026TIP3   OH275568   2.784   2.061   0.746  0.0648  0.4153  0.2615
18026TIP3    H175569   2.751   2.019   0.826  0.6269 -0.2132  0.1616
18026TIP3    H275570   2.825   1.990   0.696  0.7026  1.0080 -0.0693
18027TIP3   OH275571   6.575   2.786   3.479 -0.1543 -0.2492  0.2825
18027TIP3    H175572   6.660   2.756   3.509  1.4561  1.4836 -2.2920
18027TIP3    H275573   6.558   2.734   3.400 -0.5701  0.7232 -0.2759
18028TIP3   OH275574   5.981   3.752  16.208 -0.3259  0.2062 -0.1528
18028TIP3    H175575   5.903   3.776  16.157 -1.7304 -1.2257  1.2561
18028TIP3    H275576   6.032   3.696  16.149  0.0209  1.7670 -1.3476
18029TIP3   OH275577   0.054   5.739  17.220  0.2803 -0.1001 -0.2478
18029TIP3    H175578  -0.020   5.780  17.266  2.1686  2.0173  1.0086
18029TIP3    H275579   0.105   5.813  17.186  2.1442 -1.4939 -0.5675
18030TIP3   OH275580   1.674   6.107  11.862  0.2053 -0.0073 -0.3080
18030TIP3    H175581   1.675   6.046  11.788 -2.6807 -1.6263  0.9348
18030TIP3    H275582   1.687   6.193  11.822  1.1268 -1.0944 -2.4219
18031TIP3   OH275583   5.083   0.095   5.670  1.0514  0.1994 -0.1126
18031TIP3    H175584   5.137   0.051   5.604  0.1851 -0.7531 -0.1914
18031TIP3    H275585   5.114   0.185   5.669  3.2029 -0.4968  0.3922
18032TIP3   OH275586   5.071   1.679   4.348  0.2531 -0.0851 -0.1412
18032TIP3    H175587   5.117   1.750   4.391  1.0188 -0.0537 -1.0021
18032TIP3    H275588   5.056   1.614   4.417 -0.1398  0.7500  0.5624
18033TIP3   OH275589   6.577   3.788  14.695  0.0515 -0.2436 -0.6705
18033TIP3    H175590   6.488   3.762  14.673 -0.1249 -0.6919  0.5657
18033TIP3    H275591   6.629   3.762  14.618 -0.8381 -0.2112 -1.2831
18034TIP3   OH275592   0.497   5.881   4.369  0.2152 -0.3122 -0.0142
18034TIP3    H175593   0.482   5.930   4.287  1.9198 -1.1199 -0.8277
18034TIP3    H275594   0.479   5.945   4.438  3.0775  1.7370 -1.0485
18035TIP3   OH275595   1.625   1.398  16.533  1.0496 -0.4592  0.6673
18035TIP3    H175596   1.553   1.462  16.527 -0.9035 -2.5786  0.6189
18035TIP3    H275597   1.672   1.422  16.613 -0.5524  0.1729  1.4508
18036TIP3   OH275598   6.007   6.538  14.251 -0.1209  0.0957 -0.1364
18036TIP3    H175599   5.977   6.447  14.246 -0.5248  0.1204  1.5595
18036TIP3    H275600   6.101   6.532  14.270  0.2697  0.0313 -2.0531
18037TIP3   OH275601   1.844   6.423  16.701  0.1305  0.3599  0.1808
18037TIP3    H175602   1.880   6.407  16.788  0.5293  0.0745 -0.0350
18037TIP3    H275603   1.750   6.417  16.712  0.2106 -0.4361  0.4461
18038TIP3   OH275604   3.715   1.230  12.312  0.1950  0.5697  0.0212
18038TIP3    H175605   3.753   1.143  12.324  0.9810  1.0807  1.4051
18038TIP3    H275606   3.740   1.278  12.391 -3.9427  0.7531  1.3556
18039TIP3   OH275607   5.378   5.298   4.012 -0.2007 -0.4427 -0.5234
18039TIP3    H175608   5.449   5.254   4.058 -0.2624  0.8840  0.8969
18039TIP3    H275609   5.421   5.348   3.943  0.0134 -1.4277 -1.1172
18040TIP3   OH275610   2.034   0.999   1.986  0.5068  0.1204 -0.1805
18040TIP3    H175611   1.947   1.011   1.949 -0.1127  0.8099  1.5081
18040TIP3    H275612   2.066   0.919   1.944 -0.9116 -0.1229 -0.8275
18041TIP3   OH275613   3.623   5.814  16.416 -0.5048 -0.6622  0.1568
18041TIP3    H175614   3.539   5.840  16.377  1.0763  2.2753 -1.4858
18041TIP3    H275615   3.629   5.864  16.497 -0.5933 -1.3638  0.6042
18042TIP3   OH275616   4.416   2.670   2.676  0.1627 -0.1033  0.4191
18042TIP3    H175617   4.411   2.593   2.619  1.1976  1.4088 -1.7832
18042TIP3    H275618   4.473   2.643   2.748  1.4814 -1.0467 -0.9532
18043TIP3   OH275619   5.809   4.719  13.170 -0.5383 -0.0832  0.8760
18043TIP3    H175620   5.756   4.639  13.172 -0.7935  0.0525 -0.1633
18043TIP3    H275621   5.836   4.727  13.078  0.4804  0.3769  1.2151
18044TIP3   OH275622   5.076   0.618   4.216  0.8084 -0.4152  0.2386
18044TIP3    H175623   5.125   0.688   4.172 -0.3037 -0.7067 -1.5291
18044TIP3    H275624   5.021   0.664   4.280  1.5569  0.1507  0.4737
18045TIP3   OH275625   2.231   0.262   0.115 -0.4675 -0.1373 -0.1677
18045TIP3    H175626   2.147   0.221   0.136  0.8944 -2.3946  1.0840
18045TIP3    H275627   2.278   0.195   0.066  0.9834  0.7354  0.0246
18046TIP3   OH275628   4.072   4.306  15.368  0.3081 -0.3576  0.0723
18046TIP3    H175629   4.163   4.338  15.366  0.0508  0.4133  0.4629
18046TIP3    H275630   4.035   4.335  15.284  0.1139  0.2581  0.3688
18047TIP3   OH275631   2.302   2.245  17.051  0.1126  0.3124 -0.4085
18047TIP3    H175632   2.354   2.275  16.977  0.9987 -0.7826 -0.2376
18047TIP3    H275633   2.355   2.176  17.091 -0.7264  0.3341  0.7521
18048TIP3   OH275634   0.733   6.457  14.541 -0.0291  0.2544 -0.4341
18048TIP3    H175635   0.823   6.492  14.541 -0.0759  0.3777 -0.4727
18048TIP3    H275636   0.718   6.431  14.450 -0.5983  1.7312 -0.7907
18049TIP3   OH275637   4.740   4.331  14.773 -0.3993 -0.0455 -0.5958
18049TIP3    H175638   4.716   4.420  14.799 -0.0438 -0.8718  2.7749
18049TIP3    H275639   4.670   4.276  14.807  0.2014 -1.2139 -1.2201
18050TIP3   OH275640   2.785   4.473  12.192  0.0606 -0.0259 -0.6490
18050TIP3    H175641   2.732   4.396  12.215 -1.0778  0.8058 -0.4269
18050TIP3    H275642   2.874   4.449  12.218 -0.2506 -1.3257 -0.7222
18051TIP3   OH275643   6.324   2.095  16.943  0.6325  0.5561  0.0309
18051TIP3    H175644   6.384   2.021  16.949 -0.1750 -0.1691 -0.5763
18051TIP3    H275645   6.260   2.080  17.012  0.7992  1.0030  0.2855
18052TIP3   OH275646   4.589   3.247   3.282  0.2518  0.0895 -0.2075
18052TIP3    H175647   4.504   3.246   3.326  1.0880  1.4924  1.5345
18052TIP3    H275648   4.591   3.330   3.234  1.4441  1.1361  1.5454
18053TIP3   OH275649   1.487   6.733  16.589  0.2477 -0.4798  0.1222
18053TIP3    H175650   1.575   6.746  16.553 -0.2781 -0.4714 -1.1508
18053TIP3    H275651   1.447   6.669  16.531 -0.8899  0.1356  0.2309
18054TIP3   OH275652   6.057   3.193   5.907 -0.5957 -0.3097  0.1166
18054TIP3    H175653   5.985   3.245   5.872  0.1902  1.5165  1.1732
18054TIP3    H275654   6.015   3.135   5.971 -1.2103  0.3950  0.3681
18055TIP3   OH275655   6.014   1.571   1.054  0.0597 -0.2378 -0.2256
18055TIP3    H175656   5.930   1.594   1.015 -0.8097 -0.6987  1.3501
18055TIP3    H275657   6.057   1.518   0.987 -0.9579 -0.1434 -0.9724
18056TIP3   OH275658   5.833   6.485  16.756 -0.4062  0.0744  1.0412
18056TIP3    H175659   5.843   6.544  16.830 -3.0373  1.8491  0.0486
18056TIP3    H275660   5.765   6.423  16.782  0.5279 -0.9654  1.0845
18057TIP3   OH275661   4.148   4.591  12.660  0.5307 -0.2342  0.1487
18057TIP3    H175662   4.071   4.613  12.712 -0.2558 -1.2551 -0.5650
18057TIP3    H275663   4.119   4.601  12.569  0.3781 -3.3596 -0.1970
18058TIP3   OH275664   2.256   2.642   6.269 -0.4773 -0.1002 -0.0107
18058TIP3    H175665   2.198   2.613   6.199  0.3577  1.8869 -1.5832
18058TIP3    H275666   2.204   2.705   6.318 -0.2210  0.4246 -0.4065
18059TIP3   OH275667   2.786   0.295   5.403  0.3262 -0.1248  0.0050
18059TIP3    H175668   2.791   0.377   5.354  3.3517 -1.5123 -2.1526
18059TIP3    H275669   2.765   0.229   5.337 -0.1566 -1.3615  1.3770
18060TIP3   OH275670   0.236   3.765   1.186  0.5055  0.3664 -0.1082
18060TIP3    H175671   0.177   3.839   1.175  0.6117  0.4996  0.1996
18060TIP3    H275672   0.213   3.705   1.116 -0.4642  0.1041  0.4262
18061TIP3   OH275673   1.970   0.720  11.306  0.5444  0.3835 -0.3660
18061TIP3    H175674   2.010   0.647  11.353  0.8666 -0.3447 -1.7553
18061TIP3    H275675   1.880   0.692  11.289  0.4090  0.6725 -0.1421
18062TIP3   OH275676   6.039   4.770   0.453 -0.3177  0.3771 -0.3369
18062TIP3    H175677   6.091   4.746   0.530  1.1983  1.4924 -0.9916
18062TIP3    H275678   5.961   4.811   0.489  1.3822  2.8868  0.5930
18063TIP3   OH275679   3.431   1.084   2.530 -0.0924 -0.0154 -0.3290
18063TIP3    H175680   3.363   1.036   2.576  0.4499 -0.3953  0.0706
18063TIP3    H275681   3.430   1.048   2.441  2.3153 -2.8641  0.7298
18064TIP3   OH275682   5.658   0.823  10.758  0.2331 -0.1864  0.5497
18064TIP3    H175683   5.588   0.757  10.762  1.1717 -1.2297 -0.0072
18064TIP3    H275684   5.718   0.790  10.691  0.7552  1.2066  0.3186
18065TIP3   OH275685   1.510   3.354  14.387  0.3773 -0.2439  0.5574
18065TIP3    H175686   1.483   3.443  14.410 -0.6990 -0.5115  0.3631
18065TIP3    H275687   1.435   3.299  14.411  0.0127 -0.7790 -1.6669
18066TIP3   OH275688   6.529   5.952  12.405 -0.1675 -0.3529  0.0971
18066TIP3    H175689   6.533   6.042  12.435 -0.6692  0.2280 -1.5461
18066TIP3    H275690   6.600   5.944  12.341 -0.2213 -1.0726  0.1180
18067TIP3   OH275691   5.063   5.785  14.306  0.0967 -0.1907 -0.6932
18067TIP3    H175692   5.033   5.803  14.217  0.1096 -0.7077 -0.8053
18067TIP3    H275693   5.045   5.691  14.319  0.8044 -0.2924 -0.4315
18068TIP3   OH275694   4.405   4.725  13.948  0.1022 -0.0574 -0.1887
18068TIP3    H175695   4.379   4.636  13.922 -3.0948  1.1280 -1.2807
18068TIP3    H275696   4.470   4.712  14.017 -0.6555 -3.2437  0.0037
18069TIP3   OH275697   2.182   4.151   3.076  0.0357 -0.3279  0.2798
18069TIP3    H175698   2.173   4.246   3.070  3.7397  0.1310  0.5781
18069TIP3    H275699   2.194   4.122   2.986 -1.4830 -0.5723  0.1518
18070TIP3   OH275700   0.773   5.666  12.980 -0.1670 -0.3620  0.2300
18070TIP3    H175701   0.866   5.670  12.959 -0.4142  0.8803 -0.7382
18070TIP3    H275702   0.765   5.717  13.061 -0.0466 -0.2375  0.1643
18071TIP3   OH275703   3.704   4.908   4.686  0.3441 -0.1911  0.5961
18071TIP3    H175704   3.739   4.822   4.708 -0.6433 -0.7019  0.2097
18071TIP3    H275705   3.642   4.928   4.756  0.4994  0.1618  0.6324
18072TIP3   OH275706   5.338   0.481   1.641 -0.1570  0.3564  0.2579
18072TIP3    H175707   5.347   0.540   1.566 -0.7113 -0.0210 -0.1040
18072TIP3    H275708   5.416   0.498   1.694  1.6494 -1.3421 -1.7715
18073TIP3   OH275709   4.566   5.511  17.095 -0.1256  0.3539  0.3771
18073TIP3    H175710   4.519   5.497  17.013 -1.1442  0.9071  0.8480
18073TIP3    H275711   4.574   5.606  17.102  0.6115  0.2785  0.5593
18074TIP3   OH275712   0.266   4.065  14.173  0.0807 -0.4427 -0.6371
18074TIP3    H175713   0.309   4.021  14.100  1.1926  1.0347 -0.8959
18074TIP3    H275714   0.271   4.158  14.152 -1.9355 -0.1468  0.0612
18075TIP3   OH275715   4.413   6.644  10.328  0.1033 -0.3899 -0.3657
18075TIP3    H175716   4.367   6.723  10.355  1.3621  0.3703 -0.3993
18075TIP3    H275717   4.474   6.674  10.260  2.1300 -0.9780  1.1312
18076TIP3   OH275718   2.858   2.741   4.394 -0.1083  0.2584  0.1002
18076TIP3    H175719   2.899   2.803   4.455 -2.3638  0.4747  1.4487
18076TIP3    H275720   2.870   2.656   4.436  0.5565  0.0989 -0.4047
18077TIP3   OH275721   3.533   4.496   1.237 -0.8378 -0.3276  0.3858
18077TIP3    H175722   3.495   4.559   1.175 -1.1262 -1.4110 -0.5612
18077TIP3    H275723   3.507   4.528   1.323  0.2944  1.6961  0.0028
18078TIP3   OH275724   5.015   3.111  15.383 -0.0670 -0.6451 -0.0694
18078TIP3    H175725   4.946   3.176  15.395 -0.6188 -1.4261  1.1340
18078TIP3    H275726   5.089   3.160  15.348 -1.0248  0.3106 -0.7689
18079TIP3   OH275727   0.794   6.201  12.109  0.3721 -0.3467 -0.4459
18079TIP3    H175728   0.842   6.231  12.186 -0.8272 -0.3933  0.3373
18079TIP3    H275729   0.789   6.106  12.119  2.7084 -0.6637 -2.0637
18080TIP3   OH275730   5.621   2.823   5.545 -0.0813 -0.0607  0.3727
18080TIP3    H175731   5.610   2.776   5.463  0.4224 -0.2819  0.4273
18080TIP3    H275732   5.542   2.876   5.553 -0.2539 -0.2365 -0.1228
18081TIP3   OH275733   1.031   2.212   6.776  0.0891  0.0344  0.1229
18081TIP3    H175734   0.949   2.212   6.726 -1.8181  0.0407  3.1494
18081TIP3    H275735   1.094   2.169   6.718 -1.9583  0.3065 -2.3940
18082TIP3   OH275736   0.566   4.837  15.210 -0.8017 -0.1805  0.2151
18082TIP3    H175737   0.472   4.831  15.191 -0.5600 -1.6897 -0.5410
18082TIP3    H275738   0.608   4.835  15.124  0.0296 -1.5128  0.6435
18083TIP3   OH275739   5.058   2.219  13.523 -0.2833 -0.1640 -0.3085
18083TIP3    H175740   5.064   2.298  13.577 -1.7955 -0.0953 -0.2175
18083TIP3    H275741   4.973   2.226  13.480 -1.6505 -3.0508  1.8008
18084TIP3   OH275742   2.266   5.050  13.525 -0.1522  0.2908 -0.0597
18084TIP3    H175743   2.298   5.067  13.437  1.7840 -1.6707  0.1978
18084TIP3    H275744   2.219   5.129  13.550  1.9595  2.1034 -1.6604
18085TIP3   OH275745   2.613   3.873  17.260  0.0820  0.1651 -0.5721
18085TIP3    H175746   2.647   3.931  17.329 -0.2866  1.5584 -1.5395
18085TIP3    H275747   2.689   3.821  17.234  1.2203  2.3772 -1.8216
18086TIP3   OH275748   0.013   3.060  11.411 -0.5694  0.4132  0.2527
18086TIP3    H175749   0.061   3.142  11.400  0.3537  0.0571  1.6612
18086TIP3    H275750   0.078   2.991  11.396 -1.5033 -0.0885 -1.6772
18087TIP3   OH275751   2.497   2.048   1.433  0.4411 -0.1593 -0.2725
18087TIP3    H175752   2.465   1.983   1.370 -1.1454 -0.4515  0.8311
18087TIP3    H275753   2.428   2.114   1.436  1.2159  0.6360  0.0143
18088TIP3   OH275754   5.796   0.132  16.393 -0.7615  0.4003  0.3195
18088TIP3    H175755   5.765   0.221  16.413 -1.6675  0.4268 -1.1332
18088TIP3    H275756   5.766   0.116  16.304  0.5554 -0.8692  0.0811
18089TIP3   OH275757   3.145   5.583  13.787  1.0573 -0.2309 -0.4409
18089TIP3    H175758   3.082   5.652  13.763 -0.2550 -1.8887 -1.8562
18089TIP3    H275759   3.137   5.518  13.718  0.3325 -3.1115  2.2784
18090TIP3   OH275760   6.532   0.766  12.131  0.2114  0.1273 -0.1934
18090TIP3    H175761   6.507   0.858  12.124  0.5209  0.2895  0.8244
18090TIP3    H275762   6.583   0.761  12.212 -0.2089 -1.0273  0.0041
18091TIP3   OH275763   2.199   0.789  14.301 -0.0729 -0.0210  0.6781
18091TIP3    H175764   2.202   0.871  14.351 -1.2575 -0.5724  1.6762
18091TIP3    H275765   2.114   0.790  14.258 -0.1885 -0.8360  0.8816
18092TIP3   OH275766   6.427   1.926   0.309  0.4441  0.1030 -0.0352
18092TIP3    H175767   6.501   1.906   0.251 -1.3257 -0.9962 -1.9613
18092TIP3    H275768   6.417   1.848   0.363  1.0901  0.5111  0.6857
18093TIP3   OH275769   5.174   0.006  12.568 -0.3247 -0.0144  0.6087
18093TIP3    H175770   5.143   0.012  12.478  0.9359  0.2564  0.1920
18093TIP3    H275771   5.194  -0.087  12.581 -0.4992 -0.0526  0.6110
18094TIP3   OH275772   0.277   0.284  14.211  0.0519  0.6010  0.0725
18094TIP3    H175773   0.236   0.362  14.250  0.7268  1.0965 -0.2064
18094TIP3    H275774   0.288   0.224  14.284 -0.9585  0.5529  0.1973
18095TIP3   OH275775   0.300   4.106  16.828 -0.7764  0.2878  0.3060
18095TIP3    H175776   0.270   4.108  16.919 -0.1170  0.6051  0.5241
18095TIP3    H275777   0.280   4.017  16.799 -1.2767  0.2794  0.6639
18096TIP3   OH275778   0.050   2.468  16.737  0.1228  0.2662 -0.0457
18096TIP3    H175779   0.033   2.388  16.687  0.4120 -0.1979  0.5956
18096TIP3    H275780   0.033   2.539  16.674  0.4083 -0.3026 -0.7788
18097TIP3   OH275781   3.603   6.576   4.215  0.3198 -0.1962 -0.5383
18097TIP3    H175782   3.585   6.637   4.287  1.6416 -1.5830  0.9965
18097TIP3    H275783   3.518   6.538   4.194 -0.1530  0.5492 -0.0070
18098TIP3   OH275784   0.102   5.028  16.002  0.6584 -0.1485 -0.5105
18098TIP3    H175785   0.083   5.096  15.937 -0.8802  0.1206  0.2011
18098TIP3    H275786   0.023   4.973  16.003 -0.2354  1.0876  2.6453
18099TIP3   OH275787   1.533   3.966  16.713  0.2303 -0.8082  0.5197
18099TIP3    H175788   1.602   3.918  16.666  0.0759 -1.1337  0.6185
18099TIP3    H275789   1.463   3.902  16.723 -0.2642 -0.3446  0.0328
18100TIP3   OH275790   4.582   5.774   5.646 -0.3926 -0.2216 -0.4360
18100TIP3    H175791   4.584   5.838   5.575  0.5335 -0.5018 -0.6672
18100TIP3    H275792   4.523   5.705   5.615 -2.1240  0.9606  0.2025
18101TIP3   OH275793   1.514   6.000  16.651  0.4143  0.3322 -0.1703
18101TIP3    H175794   1.543   5.927  16.706  0.0450 -0.5841 -1.1837
18101TIP3    H275795   1.528   6.078  16.706 -0.0281 -0.5655  1.2439
18102TIP3   OH275796   2.407   4.362  16.554  0.4570 -0.3069 -0.0455
18102TIP3    H175797   2.453   4.367  16.470  0.5020 -1.5676 -0.1018
18102TIP3    H275798   2.450   4.290  16.600  2.4159  2.2165  2.2695
18103TIP3   OH275799   3.693   5.478   2.945  0.2586  0.0885 -0.3211
18103TIP3    H175800   3.723   5.514   2.861  0.6824  2.1149  0.6639
18103TIP3    H275801   3.598   5.479   2.938  0.3069 -2.1086 -1.7198
18104TIP3   OH275802   5.242   4.231   1.731 -0.0567  0.3962  0.2643
18104TIP3    H175803   5.229   4.304   1.791 -2.4564  1.7444 -1.7810
18104TIP3    H275804   5.274   4.271   1.650  0.5698 -1.0634 -0.2310
18105TIP3   OH275805   1.314   4.902  17.145 -0.2821  0.4153  0.1436
18105TIP3    H175806   1.276   4.892  17.058 -0.1448  1.0254  0.0115
18105TIP3    H275807   1.389   4.959  17.132 -0.0713  0.2442  0.6105
18106TIP3   OH275808   0.686   0.688   4.240 -0.0201  0.5584 -0.2111
18106TIP3    H175809   0.705   0.722   4.327 -2.4917  1.9910 -0.2028
18106TIP3    H275810   0.761   0.716   4.187  0.5082  1.4350  0.9703
18107TIP3   OH275811   2.604   0.680   2.886 -0.6368  0.3336  0.1631
18107TIP3    H175812   2.688   0.723   2.904 -0.1900  0.0636 -1.1750
18107TIP3    H275813   2.599   0.608   2.949  0.3156  0.1312  0.0142
18108TIP3   OH275814   4.101   6.669  15.945  0.1772  0.5536 -0.2711
18108TIP3    H175815   4.105   6.746  16.002 -1.6288  0.3245  0.2001
18108TIP3    H275816   4.021   6.682  15.893  0.6562 -0.2893 -1.2309
18109TIP3   OH275817   0.319   3.739  12.498  0.2495 -0.1685  0.5744
18109TIP3    H175818   0.237   3.760  12.544  1.3297 -2.5295  3.7993
18109TIP3    H275819   0.291   3.705  12.413 -2.1042 -0.4141  1.4094
18110TIP3   OH275820   4.808   5.630   5.991  0.1535 -0.0440  0.2759
18110TIP3    H175821   4.787   5.609   5.900  0.7344  0.8704 -0.0805
18110TIP3    H275822   4.810   5.726   5.993  2.2413 -0.0795  0.7508
18111TIP3   OH275823   2.998   3.013  13.658  0.2376  0.3430 -0.1302
18111TIP3    H175824   2.907   3.025  13.630  0.5138  0.5223 -0.9666
18111TIP3    H275825   3.017   3.092  13.710  0.5848  1.3529 -1.7559
18112TIP3   OH275826   2.143   6.320   5.967  0.0904  0.7709  0.3588
18112TIP3    H175827   2.073   6.378   5.996 -0.1786  0.4346  0.3852
18112TIP3    H275828   2.118   6.234   5.999  0.6610  0.6957  0.6141
18113TIP3   OH275829   2.253   6.016  13.614  0.1111 -0.0302  0.0068
18113TIP3    H175830   2.172   6.022  13.563 -0.2231 -0.5633  0.4676
18113TIP3    H275831   2.234   6.060  13.696 -0.4543 -2.1299  1.0272
18114TIP3   OH275832   4.844   0.497  14.412 -0.2220  0.4453  0.3326
18114TIP3    H175833   4.753   0.524  14.424 -0.2754  0.6841 -0.5546
18114TIP3    H275834   4.888   0.520  14.494 -1.1638 -0.5505  1.1292
18115TIP3   OH275835   4.295   5.289   1.096  0.0250  0.8889  0.0888
18115TIP3    H175836   4.206   5.308   1.125 -0.8001  0.7894 -2.2406
18115TIP3    H275837   4.302   5.333   1.011  0.6337 -2.7685 -1.8522
18116TIP3   OH275838   0.291   1.174  11.897  0.0618  0.1484 -0.2164
18116TIP3    H175839   0.265   1.266  11.887  0.9139  0.3316 -0.8004
18116TIP3    H275840   0.386   1.176  11.898  0.0891 -0.7470 -0.3842
18117TIP3   OH275841   6.107   4.801   6.443 -0.1786 -0.0383 -0.1036
18117TIP3    H175842   6.124   4.726   6.500  1.9011 -0.6117 -1.4316
18117TIP3    H275843   6.187   4.811   6.391 -0.5046  2.9353 -0.1614
18118TIP3   OH275844   0.988   5.911  11.556  0.0649  0.0350  0.4167
18118TIP3    H175845   1.032   5.988  11.592  0.6032 -0.4869  0.8917
18118TIP3    H275846   1.004   5.842  11.620 -0.8124 -0.3584  0.2236
18119TIP3   OH275847   2.403   0.075   2.186  0.4110 -0.2353 -0.0280
18119TIP3    H175848   2.470   0.029   2.236  0.4079  0.1972  0.3727
18119TIP3    H275849   2.371   0.009   2.124  0.2413 -0.8557  0.7029
18120TIP3   OH275850   6.383   1.671   0.378 -0.0865 -0.1580  0.5117
18120TIP3    H175851   6.296   1.691   0.413  0.8869  3.5756  1.0758
18120TIP3    H275852   6.429   1.627   0.449 -0.6091  0.4653  1.2456
18121TIP3   OH275853   4.378   3.928  15.927 -0.2397 -0.4050  0.4473
18121TIP3    H175854   4.357   4.004  15.981 -1.2132 -1.4026  1.5179
18121TIP3    H275855   4.322   3.936  15.850 -0.2795  0.0160  0.5201
18122TIP3   OH275856   6.579   2.657  15.946 -0.0559 -0.0742 -0.2765
18122TIP3    H175857   6.561   2.571  15.907  0.9968 -0.5886  0.3563
18122TIP3    H275858   6.652   2.692  15.894 -1.1203  0.8770 -1.1669
18123TIP3   OH275859   2.681   4.944   3.257  0.2440 -0.1256  0.2447
18123TIP3    H175860   2.636   4.978   3.335 -0.3495  0.5324 -0.3797
18123TIP3    H275861   2.631   4.865   3.235  0.3980 -0.3002  0.5190
18124TIP3   OH275862   5.275   5.744  11.756  0.1007  0.3088  0.1093
18124TIP3    H175863   5.289   5.833  11.724  2.7779 -0.2469 -0.3963
18124TIP3    H275864   5.243   5.755  11.845  1.9421  1.8097  0.6301
18125TIP3   OH275865   1.046   4.942   1.185 -0.1408 -0.3720 -0.5180
18125TIP3    H175866   1.042   4.937   1.281  0.0380 -2.2715 -0.5868
18125TIP3    H275867   0.961   4.977   1.159 -0.1179  0.3383  0.3330
18126TIP3   OH275868   2.227   0.946   6.194  0.3989 -0.7770  0.2395
18126TIP3    H175869   2.171   1.024   6.203  1.4634 -0.0569  0.7425
18126TIP3    H275870   2.167   0.872   6.202 -0.6955 -0.0077 -0.6990
18127TIP3   OH275871   3.042   1.732  16.941  0.0424 -0.1431  0.5985
18127TIP3    H175872   3.063   1.813  16.988  0.4843 -0.3431  0.7437
18127TIP3    H275873   3.088   1.664  16.990  0.9975 -0.2768 -0.4862
18128TIP3   OH275874   4.821   5.462   5.762  0.5903  0.6635 -0.1173
18128TIP3    H175875   4.735   5.422   5.771  1.0329 -0.2169  0.2481
18128TIP3    H275876   4.875   5.418   5.828  1.1817  1.5797  0.0147
18129TIP3   OH275877   2.630   0.126  14.563 -0.0251 -0.3097 -0.5015
18129TIP3    H175878   2.573   0.158  14.493 -0.7731  2.4869  1.2761
18129TIP3    H275879   2.711   0.103  14.519 -1.0044 -0.0640 -2.5009
18130TIP3   OH275880   4.769   0.783   5.629 -0.1709  0.0881  0.1423
18130TIP3    H175881   4.734   0.870   5.615 -0.1810  0.2363  1.0711
18130TIP3    H275882   4.694   0.724   5.616 -0.2034  0.2254 -0.3011
18131TIP3   OH275883   3.817   1.921  14.774  0.3061  0.1345 -0.4501
18131TIP3    H175884   3.821   1.838  14.821 -1.0706 -0.7739 -1.8679
18131TIP3    H275885   3.813   1.988  14.842  0.5612 -1.0125  0.7063
18132TIP3   OH275886   0.423   0.499   4.805  0.7726  0.5505  0.0846
18132TIP3    H175887   0.409   0.418   4.855 -0.7847  0.6925 -0.0960
18132TIP3    H275888   0.386   0.481   4.719 -0.0262  1.6158  0.1944
18133TIP3   OH275889   0.168   6.002   3.520  0.0260  0.0598  0.0224
18133TIP3    H175890   0.076   6.021   3.505  0.0145  1.2215  1.4709
18133TIP3    H275891   0.214   6.046   3.449 -0.3553  1.7088  0.7760
18134TIP3   OH275892   1.109   6.514   0.117  1.0895 -0.1280  0.1730
18134TIP3    H175893   1.014   6.526   0.121  0.9372 -0.8006 -1.3451
18134TIP3    H275894   1.131   6.524   0.025  2.2782 -1.6203  0.2780
18135TIP3   OH275895   0.261   1.243   1.277 -0.3597  0.1165 -0.3521
18135TIP3    H175896   0.242   1.239   1.184 -0.0561  1.4980 -0.4853
18135TIP3    H275897   0.221   1.325   1.306 -0.9380 -0.5768  0.8448
18136TIP3   OH275898   4.016   4.060  11.111 -0.3998  0.5638 -0.0262
18136TIP3    H175899   3.982   4.052  11.022 -0.4903 -0.8951  0.1313
18136TIP3    H275900   3.949   4.020  11.166  1.0719 -1.4679  0.3779
18137TIP3   OH275901   0.296   5.712   4.301  0.1324 -0.4793  0.1814
18137TIP3    H175902   0.350   5.733   4.225  1.9330 -0.3193  1.4826
18137TIP3    H275903   0.284   5.795   4.346  0.3013 -0.8124  0.8488
18138TIP3   OH275904   0.267   1.159   4.831 -0.0355 -0.0900  0.0025
18138TIP3    H175905   0.266   1.173   4.736 -1.1260  0.6752  0.1221
18138TIP3    H275906   0.190   1.106   4.849  0.2249 -0.3221  0.4507
18139TIP3   OH275907   1.974   4.044   4.609  0.1412  0.3481  0.1798
18139TIP3    H175908   2.004   3.969   4.559  1.8198  0.5722  0.8175
18139TIP3    H275909   1.991   4.021   4.700 -0.9098  0.8119  0.5029
18140TIP3   OH275910   1.843   2.949   0.884  0.4672  0.3192  0.3406
18140TIP3    H175911   1.851   3.044   0.873  2.0919  0.2055  0.4947
18140TIP3    H275912   1.819   2.938   0.976 -1.1065  0.6392 -0.0158
18141TIP3   OH275913   1.673   2.873   5.822  0.1094  0.0014  0.4133
18141TIP3    H175914   1.699   2.882   5.913  1.1867  0.3515  0.0783
18141TIP3    H275915   1.581   2.901   5.820  0.1456  0.1851  1.3432
18142TIP3   OH275916   0.258   0.794   4.769 -0.1844 -0.4209  0.3823
18142TIP3    H175917   0.166   0.799   4.798  0.5710 -0.4473  2.9598
18142TIP3    H275918   0.303   0.753   4.843  1.9197 -0.4080 -0.8722
18143TIP3   OH275919   5.331   4.717  16.566 -0.2744 -0.2332  0.6184
18143TIP3    H175920   5.417   4.695  16.601 -0.3119 -2.3532 -0.5153
18143TIP3    H275921   5.270   4.664  16.618 -0.6739 -0.5109 -0.1278
18144TIP3   OH275922   0.313   6.040  11.388  0.6738 -0.5791 -0.4736
18144TIP3    H175923   0.263   6.117  11.363 -0.5266 -1.2216 -0.0605
18144TIP3    H275924   0.343   6.060  11.477  1.0530 -0.2552 -0.6695
18145TIP3   OH275925   0.646   0.469   5.159  0.3177 -0.2963  0.7129
18145TIP3    H175926   0.597   0.551   5.162 -2.4297 -1.7713 -1.4437
18145TIP3    H275927   0.592   0.407   5.208 -0.8913 -2.3240 -2.9711
18146TIP3   OH275928   1.676   3.156   2.580  0.2231 -0.1640 -0.3351
18146TIP3    H175929   1.741   3.090   2.606  0.5154  0.9527  1.8105
18146TIP3    H275930   1.623   3.112   2.514  0.7621 -2.3674  0.6617
18147TIP3   OH275931   4.513   1.481   4.423 -0.0747  0.4940 -0.7315
18147TIP3    H175932   4.535   1.566   4.386  1.0560 -0.0617 -1.3757
18147TIP3    H275933   4.438   1.451   4.370 -0.4342  1.0537 -0.5451
18148TIP3   OH275934   3.870   2.167  13.211  0.2648  0.2334  0.5851
18148TIP3    H175935   3.846   2.255  13.181 -1.6759 -0.4311  0.1333
18148TIP3    H275936   3.921   2.130  13.139 -1.3152 -0.0262 -0.4389
18149TIP3   OH275937   3.602   6.493   1.564 -0.0278 -0.2793  0.5793
18149TIP3    H175938   3.639   6.405   1.577 -1.3007 -0.6259  2.0397
18149TIP3    H275939   3.577   6.521   1.652  1.0641  1.8869  0.2304
18150TIP3   OH275940   4.426   2.196   3.480  0.3001 -0.1779 -0.0945
18150TIP3    H175941   4.387   2.283   3.484  0.1182 -0.2998  0.8256
18150TIP3    H275942   4.521   2.213   3.483  0.2584 -0.0311  0.3471
18151TIP3   OH275943   1.045   0.900   3.002  0.1158 -0.0262 -0.5586
18151TIP3    H175944   1.057   0.839   3.075 -1.5413  1.6465  1.1869
18151TIP3    H275945   1.129   0.945   2.994  0.6144 -0.8963 -0.3234
18152TIP3   OH275946   1.924   1.971  16.477  0.3765  0.0792  0.0847
18152TIP3    H175947   1.840   2.010  16.502  0.2037  0.1819 -0.6498
18152TIP3    H275948   1.919   1.881  16.509  0.2132  0.2491  0.5374
18153TIP3   OH275949   0.703   0.225  11.641  0.2801 -0.4047 -0.4091
18153TIP3    H175950   0.658   0.299  11.681  0.5076 -1.5637  2.0561
18153TIP3    H275951   0.681   0.231  11.548 -0.1164  2.4504 -0.1859
18154TIP3   OH275952   3.722   3.500   1.028 -0.4548 -0.5470  0.1157
18154TIP3    H175953   3.798   3.521   0.974 -1.0991 -0.3770 -0.7499
18154TIP3    H275954   3.754   3.501   1.118  0.5254 -0.3297 -0.2363
18155TIP3   OH275955   6.542   1.152   0.571 -0.2771 -0.3420 -0.0315
18155TIP3    H175956   6.492   1.207   0.631  1.5492 -0.0050  1.2217
18155TIP3    H275957   6.547   1.067   0.614 -0.5062 -0.6225 -0.5540
18156TIP3   OH275958   6.057   3.141  14.719 -0.0914 -0.3722  0.5446
18156TIP3    H175959   6.076   3.235  14.726  0.2284 -0.3392 -0.7739
18156TIP3    H275960   6.017   3.130  14.633 -0.5223 -1.3839  0.8648
18157TIP3   OH275961   2.154   2.474   0.019 -0.0909 -0.3479  0.1728
18157TIP3    H175962   2.198   2.395   0.051 -0.3200 -0.1833  0.9072
18157TIP3    H275963   2.061   2.459   0.037 -0.0690  0.3598  0.9025
18158TIP3   OH275964   1.323   3.092  15.155  0.3529  0.0835 -0.4055
18158TIP3    H175965   1.321   3.091  15.059 -0.1976 -0.2708 -0.3944
18158TIP3    H275966   1.279   3.174  15.179 -0.9760 -0.6060 -0.4322
18159TIP3   OH275967   1.151   2.462  11.660 -0.1389  0.1894  0.6666
18159TIP3    H175968   1.176   2.370  11.652 -2.5357 -0.6504  2.4828
18159TIP3    H275969   1.235   2.509  11.667  1.1467 -1.6930 -1.4638
18160TIP3   OH275970   6.491   0.222   0.534  0.3664 -0.2518  0.3692
18160TIP3    H175971   6.560   0.209   0.469 -0.2439  1.6209 -0.6944
18160TIP3    H275972   6.410   0.197   0.488 -0.3051  2.9763 -0.2873
18161TIP3   OH275973   4.517   3.783   1.023  0.2299  0.3385 -0.4283
18161TIP3    H175974   4.533   3.693   1.052 -2.3157  0.1117  0.3704
18161TIP3    H275975   4.547   3.837   1.096  0.5415  0.0728 -0.3596
18162TIP3   OH275976   0.647   4.976  14.357  0.1812 -0.0304 -0.0896
18162TIP3    H175977   0.704   4.900  14.366 -0.0859 -0.3277 -0.8828
18162TIP3    H275978   0.581   4.965  14.426  0.2421 -0.4206 -0.0941
18163TIP3   OH275979   4.241   1.417   1.207  0.1157 -0.0426  0.2371
18163TIP3    H175980   4.217   1.416   1.115 -0.6274 -1.5428  0.4229
18163TIP3    H275981   4.320   1.471   1.212 -0.0120  0.2776 -1.2245
18164TIP3   OH275982   2.846   5.175  14.862  0.0930 -1.1835 -0.0349
18164TIP3    H175983   2.834   5.255  14.912 -0.0386 -0.5824 -1.0290
18164TIP3    H275984   2.887   5.114  14.924  0.8107 -0.1369  0.5221
18165TIP3   OH275985   3.446   5.294  17.255  0.7019  0.0169  0.1462
18165TIP3    H175986   3.424   5.216  17.305  1.8585 -0.8379 -0.6740
18165TIP3    H275987   3.426   5.271  17.164  2.8450  0.0024 -0.3332
18166TIP3   OH275988   4.543   4.231  17.154  0.4515 -0.0230  0.3261
18166TIP3    H175989   4.638   4.225  17.161  0.4389 -0.6022  0.0305
18166TIP3    H275990   4.527   4.316  17.112  0.8184  0.2709  0.7810
18167TIP3   OH275991   1.396   6.457   1.202 -0.1336 -0.1255 -0.4184
18167TIP3    H175992   1.429   6.405   1.128 -1.1347 -1.2032 -0.1255
18167TIP3    H275993   1.310   6.419   1.221  0.3477 -0.2164  1.6548
18168TIP3   OH275994   4.459   4.282   1.455  0.1947  0.2205  0.3010
18168TIP3    H175995   4.541   4.243   1.423  0.2834  1.7198 -1.3969
18168TIP3    H275996   4.486   4.340   1.526  0.5191  0.1272  0.2543
18169TIP3   OH275997   5.419   1.378  16.020 -0.3895  0.2657 -0.1182
18169TIP3    H175998   5.412   1.383  16.116  0.9767 -0.7833  0.0510
18169TIP3    H275999   5.497   1.430  15.999  1.3126 -2.2570 -0.3103
18170TIP3   OH276000   0.437   3.925  13.305  0.8309 -0.0397 -0.0549
18170TIP3    H176001   0.467   3.941  13.394 -0.6132  0.7706  0.3151
18170TIP3    H276002   0.366   3.988  13.292  1.4215  0.2709 -1.9955
18171TIP3   OH276003   0.194   4.055  11.248  0.0406  0.1416 -0.1799
18171TIP3    H176004   0.217   3.962  11.238  0.3266  0.1297  0.5861
18171TIP3    H276005   0.111   4.054  11.295 -1.1031  0.2148 -2.1341
18172TIP3   OH276006   0.005   2.695   3.333 -0.0137  0.5452  0.0706
18172TIP3    H176007   0.009   2.783   3.295 -1.0469  1.5493  2.2688
18172TIP3    H276008  -0.079   2.660   3.303 -0.1198  0.7406  0.1358
18173TIP3   OH276009   0.179   5.098  16.503 -0.0028 -0.5345  0.3568
18173TIP3    H176010   0.196   5.010  16.537  0.4910 -0.5230  0.1543
18173TIP3    H276011   0.159   5.151  16.580 -3.6652 -1.5503  0.1930
18174TIP3   OH276012   1.613   1.703  13.472  0.0862 -0.2834  0.1602
18174TIP3    H176013   1.540   1.688  13.412 -0.8147 -0.3981  1.2646
18174TIP3    H276014   1.571   1.726  13.555  1.3411  1.3969  0.3461
18175TIP3   OH276015   3.379   3.569   3.988  0.1442 -0.2609 -0.4527
18175TIP3    H176016   3.399   3.532   3.902  1.2250  1.0360 -0.7766
18175TIP3    H276017   3.464   3.574   4.033 -0.4530 -1.2331  0.8258
18176TIP3   OH276018   3.500   0.471   1.908 -0.5231  0.0432 -0.0378
18176TIP3    H176019   3.552   0.399   1.945 -0.8859 -1.0520 -1.5995
18176TIP3    H276020   3.484   0.530   1.982  1.5217 -0.4419  0.8148
18177TIP3   OH276021   0.442   4.542  13.125  0.4017  0.7818  0.0282
18177TIP3    H176022   0.479   4.590  13.199  1.1893  0.9555 -0.4714
18177TIP3    H276023   0.518   4.499  13.084 -0.0834  0.3551 -0.4316
18178TIP3   OH276024   0.368   3.532   1.597  0.1666 -0.8382  0.1771
18178TIP3    H176025   0.426   3.498   1.665  1.3965  2.2386  0.7739
18178TIP3    H276026   0.428   3.563   1.529 -0.8486  0.2853 -0.2306
18179TIP3   OH276027   6.512   1.718  13.870  0.1637 -0.4002 -0.0429
18179TIP3    H176028   6.440   1.775  13.841  0.2996 -0.7992 -1.1718
18179TIP3    H276029   6.490   1.632  13.836  0.3150 -0.8931  1.0822
18180TIP3   OH276030   2.694   5.392   1.053  0.4834 -0.2936 -0.3251
18180TIP3    H176031   2.777   5.415   1.093  0.3028  0.6699 -0.4960
18180TIP3    H276032   2.628   5.440   1.104  0.0563 -0.8664 -0.3338
18181TIP3   OH276033   3.475   1.007   4.983  0.3647 -0.6669  0.1489
18181TIP3    H176034   3.493   0.932   4.927 -1.3203  0.4998 -2.0474
18181TIP3    H276035   3.501   1.083   4.931 -1.8407  0.4944  0.6539
18182TIP3   OH276036   0.603   5.469  14.417  0.4233  0.1417 -0.4209
18182TIP3    H176037   0.664   5.541  14.405  1.4325 -0.7214 -0.5257
18182TIP3    H276038   0.638   5.398  14.364 -0.5421 -0.4454 -0.2973
18183TIP3   OH276039   5.496   6.804   5.696 -0.2750  0.4425 -0.0771
18183TIP3    H176040   5.495   6.741   5.624 -1.2600 -0.2611  0.5433
18183TIP3    H276041   5.588   6.812   5.719  0.0018  0.3261 -1.1181
18184TIP3   OH276042   2.571   1.764   1.484  0.3478 -0.3010  0.7208
18184TIP3    H176043   2.497   1.715   1.519 -0.0873 -0.5119 -0.4624
18184TIP3    H276044   2.554   1.855   1.506 -1.4263 -0.0497 -1.4947
18185TIP3   OH276045   1.535   0.866   4.021 -0.1593 -0.5950 -0.1828
18185TIP3    H176046   1.574   0.953   4.031 -1.5217 -0.2479  2.6094
18185TIP3    H276047   1.557   0.821   4.102 -1.9693 -1.8539 -0.3790
18186TIP3   OH276048   1.606   0.465   1.148 -0.3212  0.0308 -0.0863
18186TIP3    H176049   1.664   0.523   1.198 -0.7565  0.5152 -0.1304
18186TIP3    H276050   1.656   0.442   1.070  0.1028 -0.1744  0.2464
18187TIP3   OH276051   0.392   5.499  11.257  0.1586  0.1191  0.4916
18187TIP3    H176052   0.473   5.546  11.237 -0.8274  1.6335  0.0271
18187TIP3    H276053   0.332   5.522  11.187 -0.3269 -1.9365  0.1861
18188TIP3   OH276054   6.281   3.819  15.347 -0.0147 -0.8102 -0.3193
18188TIP3    H176055   6.204   3.839  15.294 -0.6470  0.2979  0.9751
18188TIP3    H276056   6.353   3.863  15.303 -0.5418  0.1355 -0.2567
18189TIP3   OH276057   5.408   3.050  15.096  0.1887  0.0094 -0.7204
18189TIP3    H176058   5.378   2.960  15.105  1.3320 -0.4535 -1.5495
18189TIP3    H276059   5.455   3.068  15.178  0.3173 -0.2696 -0.7345
18190TIP3   OH276060   3.572   5.124   0.756 -0.1511  0.3959 -0.4864
18190TIP3    H176061   3.575   5.087   0.844 -1.7202  0.8824 -0.2120
18190TIP3    H276062   3.514   5.065   0.707  2.4149 -1.1202 -1.8277
18191TIP3   OH276063   4.262   5.992   5.479 -0.0343 -0.4048 -0.5850
18191TIP3    H176064   4.305   5.997   5.564 -0.0534 -1.5478 -0.4958
18191TIP3    H276065   4.227   6.079   5.464  0.4168 -0.0596  0.3449
18192TIP3   OH276066   6.534   5.988  11.723 -0.0212 -0.1614 -0.1050
18192TIP3    H176067   6.599   5.997  11.654  0.0576  3.3973  0.3373
18192TIP3    H276068   6.458   6.037  11.692 -0.8808 -0.5756  1.2693
18193TIP3   OH276069   2.491   0.865   2.631 -0.0295  0.4443  0.4579
18193TIP3    H176070   2.558   0.862   2.563  0.0687 -1.1946  0.5843
18193TIP3    H276071   2.535   0.829   2.709 -0.4239  1.3934  1.1243
18194TIP3   OH276072   3.247   6.197   4.210 -0.1132 -1.1910  0.0532
18194TIP3    H176073   3.239   6.233   4.122 -2.8854  0.6105  0.9619
18194TIP3    H276074   3.273   6.106   4.197  0.1175 -0.7796 -2.5706
18195TIP3   OH276075   2.561   5.938   5.622  0.3459  0.4848  0.2617
18195TIP3    H176076   2.639   5.920   5.570 -0.1283 -2.3931  0.4590
18195TIP3    H276077   2.502   5.982   5.562  0.2747 -1.6944 -1.3472
18196TIP3   OH276078   6.523   6.555  15.458  0.0191  0.1135  0.0017
18196TIP3    H176079   6.471   6.548  15.377  0.5627  0.4752 -0.3754
18196TIP3    H276080   6.531   6.464  15.488 -2.4031  0.1936  1.0660
18197TIP3   OH276081   3.431   4.322   0.445 -0.2019 -0.4495 -0.3146
18197TIP3    H176082   3.364   4.357   0.386 -0.2744 -0.4157 -0.2139
18197TIP3    H276083   3.454   4.396   0.501 -1.4044 -0.9322  0.8517
18198TIP3   OH276084   3.668   5.179   4.225 -0.7120  0.5096 -0.2153
18198TIP3    H176085   3.665   5.133   4.309 -1.4983  1.1674  0.1293
18198TIP3    H276086   3.717   5.259   4.243  0.3147  0.0065 -0.7186
18199TIP3   OH276087   5.809   3.066  15.373  0.4061  0.1102  0.4474
18199TIP3    H176088   5.828   3.075  15.279  0.5203 -0.7247  0.3882
18199TIP3    H276089   5.861   2.991  15.401 -0.1350 -0.0470  1.0413
18200TIP3   OH276090   3.567   3.737   5.252 -0.2771  0.1217  0.0252
18200TIP3    H176091   3.477   3.751   5.280 -0.3100 -0.0341 -0.0031
18200TIP3    H276092   3.562   3.668   5.186 -0.1762  0.3561 -0.2244
18201TIP3   OH276093   3.835   5.781   0.454  0.6668  0.4381 -0.5500
18201TIP3    H176094   3.794   5.695   0.441 -0.3060  1.0649 -1.8262
18201TIP3    H276095   3.765   5.835   0.492  0.6873  1.1592 -1.5123
18202TIP3   OH276096   6.741   4.834   5.733 -0.3496 -0.7705  0.0692
18202TIP3    H176097   6.708   4.832   5.823  0.6069 -2.0343  0.3921
18202TIP3    H276098   6.712   4.751   5.695 -2.0238  0.3727 -1.2710
18203TIP3   OH276099   1.653   6.253   3.679 -0.3564 -0.9833  0.2851
18203TIP3    H176100   1.667   6.174   3.731  2.5149 -0.6733  0.0591
18203TIP3    H276101   1.563   6.278   3.698 -0.5432 -2.9361  2.2461
18204TIP3   OH276102   3.817   0.316   1.916 -0.0370  0.0691  0.0047
18204TIP3    H176103   3.839   0.378   1.986  2.1684  1.0458 -1.4731
18204TIP3    H276104   3.867   0.237   1.937 -1.7205 -0.7233  1.1128
18205TIP3   OH276105   4.733   3.618  10.604 -0.1874  0.4054  0.3230
18205TIP3    H176106   4.803   3.574  10.556 -0.8115  0.4998 -0.6909
18205TIP3    H276107   4.705   3.554  10.670 -1.1935 -0.7981 -1.2425
18206TIP3   OH276108   5.680   5.954   2.574 -0.6507 -0.5714  0.5712
18206TIP3    H176109   5.626   5.910   2.640  0.9236 -0.7437  1.7742
18206TIP3    H276110   5.758   5.981   2.621 -0.2775  0.8817 -0.8482
18207TIP3   OH276111   3.654   3.121   3.788  0.2562  0.2145 -0.1321
18207TIP3    H176112   3.723   3.181   3.760  1.0727  0.7787  2.8565
18207TIP3    H276113   3.702   3.045   3.822 -0.6938 -0.8565 -1.1792
18208TIP3   OH276114   1.755   3.297  16.290 -0.0461  0.2732  0.2440
18208TIP3    H176115   1.805   3.379  16.287  0.4229 -0.0452 -0.8966
18208TIP3    H276116   1.673   3.321  16.333 -0.5031  1.6767 -1.3379
18209TIP3   OH276117   0.213   3.016  15.971 -0.7489  1.0178  0.5128
18209TIP3    H176118   0.256   3.035  16.054  3.4232 -0.2690 -1.2397
18209TIP3    H276119   0.229   2.922  15.957 -1.8033  1.1149 -1.5362
18210TIP3   OH276120   3.859   5.459   0.403  0.2364 -0.1691 -0.1813
18210TIP3    H176121   3.936   5.482   0.350  0.1442  0.0879 -0.2033
18210TIP3    H276122   3.864   5.518   0.478  0.6495 -0.8877  0.3522
18211TIP3   OH276123   4.055   1.642  13.055  0.5821 -0.0525 -0.1637
18211TIP3    H176124   4.149   1.651  13.040  0.4398 -0.4922 -1.3856
18211TIP3    H276125   4.015   1.695  12.986 -0.0543  0.7930  0.8556
18212TIP3   OH276126   5.895   4.331  10.983 -0.3194  0.3360  0.1436
18212TIP3    H176127   5.959   4.395  11.011  0.8178 -0.2805 -0.9967
18212TIP3    H276128   5.938   4.283  10.912 -1.6659 -0.7426  0.0300
18213TIP3   OH276129   0.529   4.136   1.048 -0.1017 -0.0990 -0.4660
18213TIP3    H176130   0.471   4.061   1.063 -0.2878  0.4739  1.8443
18213TIP3    H276131   0.610   4.098   1.015  0.0459 -1.3885  1.3634
18214TIP3   OH276132   1.033   4.940   0.298 -0.3185  0.2934  0.4025
18214TIP3    H176133   1.070   4.852   0.311 -0.6932 -0.2879 -2.1481
18214TIP3    H276134   1.084   4.977   0.226 -1.9727  1.0993 -0.3684
18215TIP3   OH276135   2.755   0.893  16.004  0.3685 -0.3779  0.2986
18215TIP3    H176136   2.760   0.812  16.056 -1.0488  0.3148  1.5502
18215TIP3    H276137   2.698   0.870  15.930  0.3189 -0.6315  0.4143
18216TIP3   OH276138   5.823   2.844   0.108  0.0531 -0.1631 -0.0895
18216TIP3    H176139   5.798   2.762   0.065 -0.4207  0.8306 -1.7719
18216TIP3    H276140   5.870   2.817   0.187  0.4216 -2.0595 -0.9338
18217TIP3   OH276141   3.580   1.689  11.337 -0.0363  0.1367  0.3162
18217TIP3    H176142   3.642   1.697  11.264  0.2247 -0.4528  0.4666
18217TIP3    H276143   3.511   1.752  11.317  0.8251  1.1076  0.3619
18218TIP3   OH276144   0.326   6.534   4.458 -0.1489  0.7586  0.2546
18218TIP3    H176145   0.270   6.492   4.393  1.8120 -1.3406 -0.1416
18218TIP3    H276146   0.374   6.601   4.409 -0.2802  0.6649 -0.0019
18219TIP3   OH276147   1.112   4.171   2.816  0.0887  0.1463 -0.1957
18219TIP3    H176148   1.198   4.210   2.797 -0.7059  1.9618 -0.1950
18219TIP3    H276149   1.117   4.083   2.778  1.1818  1.0085 -2.1730
18220TIP3   OH276150   3.574   5.347  15.361  0.1488 -0.2000  0.6402
18220TIP3    H176151   3.554   5.308  15.276 -0.4376  0.4181  0.4830
18220TIP3    H276152   3.516   5.302  15.422 -0.5737  0.4510  0.4488
18221TIP3   OH276153   3.354   1.287  16.216  0.3358 -0.9001  0.2890
18221TIP3    H176154   3.273   1.282  16.266 -0.0299 -2.7505 -0.4545
18221TIP3    H276155   3.364   1.380  16.195 -0.9375 -0.4921  1.4373
18222TIP3   OH276156   5.490   1.135   3.822 -0.3991 -0.3344 -0.4636
18222TIP3    H176157   5.459   1.124   3.732 -1.9345 -0.2039  0.0447
18222TIP3    H276158   5.437   1.075   3.873 -1.9532  2.1091  0.8740
18223TIP3   OH276159   6.654   0.041   5.994  0.3139  0.9686  0.3185
18223TIP3    H176160   6.729   0.084   5.953 -0.4251  1.0454 -0.9403
18223TIP3    H276161   6.578   0.094   5.969 -0.5465 -0.7656 -0.8585
18224TIP3   OH276162   5.997   4.241   0.949 -0.1151 -0.0350 -0.2218
18224TIP3    H176163   5.963   4.152   0.937  0.9919 -0.4519 -0.3564
18224TIP3    H276164   6.044   4.237   1.033  0.2915  0.3063 -0.4344
18225TIP3   OH276165   2.688   3.066  15.497  0.3773  0.2401  0.0723
18225TIP3    H176166   2.666   3.051  15.405 -0.1388  0.9348  0.0745
18225TIP3    H276167   2.618   3.124  15.529  0.6910  0.2064  0.8337
18226TIP3   OH276168   5.154   2.454  14.956 -0.2165  0.0372  0.4350
18226TIP3    H176169   5.068   2.450  14.915 -0.8041  0.6549  1.6064
18226TIP3    H276170   5.144   2.513  15.031  1.9814  2.6673 -1.2381
18227TIP3   OH276171   2.252   3.324   1.415 -0.1695  0.0823 -0.2264
18227TIP3    H176172   2.179   3.262   1.419  0.2405 -0.4667 -1.0398
18227TIP3    H276173   2.224   3.397   1.471 -0.3689 -1.1155  1.2785
18228TIP3   OH276174   5.492   5.787  15.507 -0.4635 -0.0267  0.1574
18228TIP3    H176175   5.467   5.849  15.575  1.1083  0.6857  0.0970
18228TIP3    H276176   5.567   5.740  15.544 -0.6825 -0.8209 -0.4031
18229TIP3   OH276177   0.029   1.506   1.937  0.8224  0.0874  0.9046
18229TIP3    H176178   0.087   1.575   1.969 -0.2838  1.2457  0.4385
18229TIP3    H276179   0.016   1.526   1.845 -0.0054 -0.3938  0.9164
18230TIP3   OH276180   3.931   5.210   5.776  0.2810 -0.6263 -0.4857
18230TIP3    H176181   3.901   5.158   5.851  0.6059 -0.3045 -0.1336
18230TIP3    H276182   4.016   5.173   5.754 -0.6852 -2.0512 -1.9761
18231TIP3   OH276183   0.230   1.167   3.277  0.7633 -0.0220  0.1071
18231TIP3    H176184   0.204   1.251   3.238  1.3134 -1.2789 -3.1487
18231TIP3    H276185   0.323   1.176   3.294  0.7425  0.1696  0.1188
18232TIP3   OH276186   0.952   4.423  15.395 -0.2592 -0.7775  0.0703
18232TIP3    H176187   0.897   4.405  15.471  1.1153  0.0983  1.3091
18232TIP3    H276188   0.897   4.476  15.338 -0.0826  1.8209  2.2063
18233TIP3   OH276189   3.623   1.514  12.821  0.4864 -0.3676 -0.4377
18233TIP3    H176190   3.641   1.605  12.796 -2.5266  0.4177  0.1040
18233TIP3    H276191   3.598   1.471  12.739  1.8789 -0.7155 -0.6879
18234TIP3   OH276192   0.253   0.657  13.700 -0.8528 -0.0654  0.3681
18234TIP3    H176193   0.255   0.566  13.669  1.6472  0.3302 -0.8143
18234TIP3    H276194   0.310   0.657  13.777  0.5575  0.7972 -0.6471
18235TIP3   OH276195   4.559   0.433  13.003 -0.0239 -0.2429  0.1653
18235TIP3    H176196   4.545   0.440  13.097 -1.4866  0.9652 -0.1197
18235TIP3    H276197   4.631   0.494  12.985  0.6112 -0.8682  0.5696
18236TIP3   OH276198   4.369   0.153  14.731  0.2026  0.9006 -0.5185
18236TIP3    H176199   4.363   0.068  14.776  1.6808  1.1628  0.2207
18236TIP3    H276200   4.333   0.137  14.644 -2.2092  0.2423  0.5670
18237TIP3   OH276201   1.203   3.728  13.076  0.7651  0.3527 -0.4026
18237TIP3    H176202   1.110   3.751  13.077  0.7803  0.5380  2.0188
18237TIP3    H276203   1.208   3.647  13.027 -0.9824 -0.6577  1.0292
18238TIP3   OH276204   1.488   5.172  11.190  0.4132 -0.4338 -0.1933
18238TIP3    H176205   1.405   5.216  11.174  0.1872 -0.6427  0.3946
18238TIP3    H276206   1.471   5.080  11.172  0.5572 -0.4533 -0.2275
18239TIP3   OH276207   2.866   0.056   1.577 -0.0060 -0.3956  0.5933
18239TIP3    H176208   2.835   0.113   1.648 -0.5570  0.0726 -0.0095
18239TIP3    H276209   2.924   0.112   1.526 -1.1238 -0.1411 -0.4224
18240TIP3   OH276210   3.647   4.763  14.797 -0.3568  0.2188  0.4497
18240TIP3    H176211   3.741   4.746  14.790 -0.3916  0.4408 -0.6812
18240TIP3    H276212   3.632   4.840  14.741 -1.2797 -0.0970  0.2517
18241TIP3   OH276213   2.395   3.687   2.138  0.4522  0.3710  1.0061
18241TIP3    H176214   2.442   3.737   2.070  0.2310 -2.4315 -1.2860
18241TIP3    H276215   2.463   3.666   2.202  1.8697 -1.4065 -0.9886
18242TIP3   OH276216   5.073   4.080  14.957  0.2663 -0.0819 -0.0834
18242TIP3    H176217   4.978   4.083  14.972  0.3484  0.0649  0.3983
18242TIP3    H276218   5.086   4.137  14.881  0.2208  1.6211  1.1538
18243TIP3   OH276219   2.474   2.031  17.231  0.7124  0.3937  0.1917
18243TIP3    H176220   2.533   1.978  17.284 -0.0599 -1.3922 -0.6872
18243TIP3    H276221   2.527   2.056  17.155  0.7333 -0.1132  0.0367
18244TIP3   OH276222   6.484   5.492   5.026 -0.8965 -0.1950 -0.5322
18244TIP3    H176223   6.495   5.408   4.981 -2.0319 -0.4923 -0.2504
18244TIP3    H276224   6.446   5.550   4.959 -2.1356 -0.5041 -0.0964
18245TIP3   OH276225   5.253   0.330   4.912 -0.1428 -0.5017  0.2137
18245TIP3    H176226   5.299   0.410   4.938 -0.4022 -0.8267  1.6744
18245TIP3    H276227   5.161   0.346   4.933 -0.1933 -1.1978  0.5369
18246TIP3   OH276228   0.328   3.641  10.378  0.0596 -0.3153 -0.3560
18246TIP3    H176229   0.291   3.554  10.364  3.3783 -1.2877 -4.3492
18246TIP3    H276230   0.379   3.633  10.459  2.0131 -2.8374 -1.7447
18247TIP3   OH276231   6.578   1.621   0.588  0.1706  0.1788  0.1805
18247TIP3    H176232   6.551   1.546   0.642 -0.9490 -0.2681 -0.9712
18247TIP3    H276233   6.596   1.691   0.651  0.7112 -0.8941  1.2364
18248TIP3   OH276234   3.052   2.548   4.597  0.2116 -0.5155  0.3750
18248TIP3    H176235   2.978   2.515   4.547  1.3286 -0.4678 -1.3291
18248TIP3    H276236   3.093   2.470   4.634 -0.6605 -0.5433  1.2996
18249TIP3   OH276237   2.795   6.060   2.248  0.6218 -0.2940  0.2404
18249TIP3    H176238   2.716   6.107   2.221  0.0069 -0.3167  1.9420
18249TIP3    H276239   2.773   6.021   2.333  2.7810  0.5116  1.2149
18250TIP3   OH276240   5.096   3.771  12.979  0.1160 -0.0555 -0.3604
18250TIP3    H176241   5.104   3.784  13.073  0.8109 -0.2565 -0.3864
18250TIP3    H276242   5.175   3.722  12.955  1.4937  2.6250 -1.5249
18251TIP3   OH276243   2.878   2.437   3.206 -0.4326  0.4423  0.1292
18251TIP3    H176244   2.862   2.366   3.268 -1.1313  0.4763 -0.0107
18251TIP3    H276245   2.953   2.484   3.242  1.2665 -1.5094 -0.7707
18252TIP3   OH276246   4.272   5.078  14.195  0.4876  0.1446 -0.4414
18252TIP3    H176247   4.361   5.114  14.203  1.0426 -1.1895 -0.4677
18252TIP3    H276248   4.265   5.052  14.103 -0.1599  0.7984 -0.5849
18253TIP3   OH276249   4.100   3.664  14.745  0.0763 -0.1944  0.2040
18253TIP3    H176250   4.091   3.600  14.675  0.8800 -1.8211  1.5608
18253TIP3    H276251   4.113   3.612  14.824  0.3235  1.6330  1.4016
18254TIP3   OH276252   2.731   2.982  16.229 -0.6498  0.1378  0.1416
18254TIP3    H176253   2.775   3.038  16.165 -1.9365  1.3528  0.2844
18254TIP3    H276254   2.648   3.027  16.247 -2.6803 -2.8660 -1.3101
18255TIP3   OH276255   1.426   0.675  15.216 -0.0233  0.3868 -0.1755
18255TIP3    H176256   1.425   0.665  15.311 -0.8261  0.0871 -0.2192
18255TIP3    H276257   1.353   0.734  15.197 -1.0638 -1.0920 -0.7953
18256TIP3   OH276258   2.545   5.281  11.394 -0.7188  0.3014 -0.1330
18256TIP3    H176259   2.522   5.368  11.362 -0.3171 -0.1911 -1.8338
18256TIP3    H276260   2.486   5.266  11.468 -2.6258  0.9414 -1.4964
18257TIP3   OH276261   5.922   1.047   1.739  0.3326  0.3094 -0.3005
18257TIP3    H176262   5.970   1.089   1.668  0.7076 -0.1461 -0.3177
18257TIP3    H276263   5.860   0.990   1.695  0.7107 -0.1339 -0.2595
18258TIP3   OH276264   4.104   5.496   4.918 -0.0410  0.1749 -0.2165
18258TIP3    H176265   4.126   5.410   4.884 -2.1371 -1.0899  1.4510
18258TIP3    H276266   4.188   5.540   4.932  0.9983 -1.1382 -2.1932
18259TIP3   OH276267   1.199   0.595   2.546  0.1171  0.2196 -0.4701
18259TIP3    H176268   1.291   0.573   2.557 -0.1932 -1.3462 -0.8263
18259TIP3    H276269   1.190   0.616   2.453  0.3546  1.5577 -0.1886
18260TIP3   OH276270   1.078   1.644   2.297  0.2080  0.4051  0.2815
18260TIP3    H176271   1.021   1.718   2.318 -0.0829 -0.0292  1.0678
18260TIP3    H276272   1.031   1.597   2.228  0.6402  1.2357 -0.5794
18261TIP3   OH276273   3.650   5.054   4.472  0.3495 -0.3738 -0.0787
18261TIP3    H176274   3.653   4.989   4.542  0.5431 -0.4425 -0.1512
18261TIP3    H276275   3.679   5.135   4.514  1.7044 -0.6916 -0.3889
18262TIP3   OH276276   6.818   5.339  16.380  0.0972  0.3777 -0.2625
18262TIP3    H176277   6.784   5.268  16.434  0.9596 -0.9024 -1.3713
18262TIP3    H276278   6.853   5.295  16.302  0.4506  2.0360 -1.0577
18263TIP3   OH276279   5.103   2.321  15.997 -0.4457  0.4293  0.2689
18263TIP3    H176280   5.013   2.302  16.024  0.3125 -1.4166  1.5636
18263TIP3    H276281   5.135   2.240  15.958  1.0359  0.7139  0.8429
18264TIP3   OH276282   0.953   6.767  15.569 -0.1057 -0.5173  0.4169
18264TIP3    H176283   0.901   6.704  15.518 -0.4195 -0.0882  0.2045
18264TIP3    H276284   0.928   6.852  15.535  0.0979 -0.2555  0.9146
18265TIP3   OH276285   4.389   2.843   2.460 -0.3642  0.4134  0.3258
18265TIP3    H176286   4.388   2.777   2.529  2.7359  2.4592  2.4571
18265TIP3    H276287   4.331   2.912   2.492 -0.0119  0.7493  0.2417
18266TIP3   OH276288   1.292   5.259  15.024  0.1215 -0.7115  0.8461
18266TIP3    H176289   1.374   5.267  14.976  0.0230 -1.8477  0.4910
18266TIP3    H276290   1.260   5.171  15.004 -1.5154 -0.0506  0.4568
18267TIP3   OH276291   4.476   0.705   1.858  0.4897  0.0936  0.2877
18267TIP3    H176292   4.534   0.774   1.826  0.4532  0.1343  0.3105
18267TIP3    H276293   4.497   0.630   1.801  0.6850  0.0575  0.4062
18268TIP3   OH276294   1.939   5.882  14.922  0.8952  0.4311 -0.1699
18268TIP3    H176295   2.001   5.812  14.939  1.0460  0.7403  0.5406
18268TIP3    H276296   1.891   5.893  15.004 -1.0584 -0.7518 -1.0983
18269TIP3   OH276297   0.841   0.071   4.677  0.1105  0.6265 -0.0112
18269TIP3    H176298   0.928   0.110   4.683  0.1094  0.2587  2.7565
18269TIP3    H276299   0.832   0.019   4.756 -1.2486 -2.2674 -1.9763
18270TIP3   OH276300   2.040   5.626   3.948 -0.5438  0.2010 -0.1213
18270TIP3    H176301   1.965   5.596   3.998 -1.4562  0.3998 -1.3396
18270TIP3    H276302   2.035   5.577   3.866  1.1747 -0.4505  0.1348
18271TIP3   OH276303   2.528   3.591   0.239  0.7028  0.0120 -0.0072
18271TIP3    H176304   2.606   3.610   0.291  0.5768  0.2905  0.0779
18271TIP3    H276305   2.479   3.673   0.238 -0.2820 -0.5475  1.1005
18272TIP3   OH276306   3.692   2.529   6.615  0.0334  0.2003  0.3810
18272TIP3    H176307   3.671   2.469   6.687 -3.9062  2.0397  0.8945
18272TIP3    H276308   3.660   2.485   6.537 -3.0505  1.6134  0.7830
18273TIP3   OH276309   4.995   2.962  14.333 -0.0393  0.2659  0.1966
18273TIP3    H176310   4.999   2.981  14.427 -1.0214  1.3886  0.0263
18273TIP3    H276311   5.084   2.938  14.309  0.3855  0.7716  1.2582
18274TIP3   OH276312   2.593   5.430   1.542 -0.1631  0.6732 -0.1611
18274TIP3    H176313   2.658   5.499   1.534  2.3839 -1.6146  0.0833
18274TIP3    H276314   2.589   5.410   1.636  0.9822 -1.1844 -0.4796
18275TIP3   OH276315   3.995   0.694   4.704  0.2605 -0.0217  0.1333
18275TIP3    H176316   4.028   0.756   4.640 -0.2685 -1.7037 -1.8234
18275TIP3    H276317   4.073   0.650   4.738  0.4353 -0.0834 -0.3550
18276TIP3   OH276318   1.758   4.163   2.656  0.7948 -0.1628 -0.3825
18276TIP3    H176319   1.753   4.130   2.566  1.7191 -0.5721 -0.2798
18276TIP3    H276320   1.742   4.257   2.647  0.3570 -0.2798 -0.9114
18277TIP3   OH276321   5.226   4.559   1.431 -0.5401 -0.1788  0.1089
18277TIP3    H176322   5.319   4.566   1.452 -0.7257  2.3801  0.2415
18277TIP3    H276323   5.224   4.520   1.343  0.6362 -0.6604  0.2924
18278TIP3   OH276324   2.649   1.001  12.375 -0.3695 -0.5466  0.2698
18278TIP3    H176325   2.607   0.953  12.446 -0.9827 -1.5023 -0.7184
18278TIP3    H276326   2.673   0.933  12.311 -0.2138  0.3412 -0.6323
18279TIP3   OH276327   2.585   3.772  16.444 -0.0847 -0.1849  0.0911
18279TIP3    H176328   2.670   3.803  16.477 -0.4672 -1.2522  2.1771
18279TIP3    H276329   2.524   3.787  16.517 -1.4243 -0.6825 -0.8977
18280TIP3   OH276330   1.659   2.845  15.985 -0.0560  0.2224 -0.2729
18280TIP3    H176331   1.634   2.883  16.069  1.1170  1.1512 -0.3213
18280TIP3    H276332   1.753   2.861  15.979  0.0734 -0.8452 -1.2543
18281TIP3   OH276333   6.369   5.765  14.696 -0.2856 -0.5819  0.4223
18281TIP3    H176334   6.276   5.769  14.673 -0.2397 -1.2615  0.1221
18281TIP3    H276335   6.400   5.684  14.656  0.5397 -0.1379  0.1602
18282TIP3   OH276336   0.097   3.670  14.117 -0.4297  0.1619 -0.7884
18282TIP3    H176337   0.109   3.661  14.023 -0.7143 -1.1563 -0.7050
18282TIP3    H276338   0.004   3.653  14.132  0.0467 -1.9578 -0.0243
18283TIP3   OH276339   4.378   2.404   6.243  0.0982  0.2349 -0.3910
18283TIP3    H176340   4.370   2.309   6.251  0.9845 -0.0086 -2.0891
18283TIP3    H276341   4.379   2.435   6.333 -0.6555 -1.3272  0.1799
18284TIP3   OH276342   5.949   5.625  16.631  0.4474  0.3889 -0.1882
18284TIP3    H176343   5.995   5.648  16.551  1.8823 -0.4020  0.4012
18284TIP3    H276344   5.929   5.709  16.672 -0.0789  0.7908 -1.2404
18285TIP3   OH276345   4.720   5.304   0.025  0.0480 -0.3449  0.0615
18285TIP3    H176346   4.667   5.366  -0.026 -0.7107  0.4019  1.7304
18285TIP3    H276347   4.658   5.264   0.086  1.1279 -0.5349  1.0442
18286TIP3   OH276348   1.279   6.553   2.104 -0.3747  0.3106  0.2601
18286TIP3    H176349   1.263   6.604   2.025  1.2624 -1.1547 -1.0325
18286TIP3    H276350   1.322   6.614   2.164  0.7210  0.7056 -0.9229
18287TIP3   OH276351   1.256   5.264   3.159 -0.5902 -0.2872  0.0217
18287TIP3    H176352   1.297   5.240   3.242  0.6846 -1.5427 -0.9308
18287TIP3    H276353   1.167   5.228   3.165 -0.7371  0.2487  1.1137
18288TIP3   OH276354   4.646   3.209   1.568 -0.5183  0.6000  0.1711
18288TIP3    H176355   4.604   3.127   1.540  0.8543 -1.3701  3.5571
18288TIP3    H276356   4.734   3.203   1.532 -0.5102  0.7636  0.1645
18289TIP3   OH276357   1.985   6.651  15.159  0.3566  0.1475  0.2930
18289TIP3    H176358   2.075   6.683  15.168  0.4795  0.4453 -1.8336
18289TIP3    H276359   1.976   6.630  15.067 -1.6087 -0.3837  0.5868
18290TIP3   OH276360   2.272   0.266  12.951  0.1725  0.3637 -0.2849
18290TIP3    H176361   2.300   0.175  12.951  1.1127  0.6438  0.4917
18290TIP3    H276362   2.236   0.280  12.863 -1.6736 -1.2477  0.1839
18291TIP3   OH276363   3.810   3.376   2.736  0.1750  0.0058  0.7903
18291TIP3    H176364   3.802   3.428   2.816  1.2907 -1.3777  1.8197
18291TIP3    H276365   3.742   3.412   2.678 -2.7323 -0.9681  3.4597
18292TIP3   OH276366   5.056   5.084   1.350 -0.1299 -0.3818 -0.0829
18292TIP3    H176367   5.109   5.022   1.399 -2.3650 -0.6333  2.1077
18292TIP3    H276368   4.971   5.041   1.341 -1.5406  2.0776  0.9892
18293TIP3   OH276369   2.334   2.221   0.089 -0.7654 -0.3617  0.6117
18293TIP3    H176370   2.381   2.148   0.048  0.5020  1.1478 -0.6803
18293TIP3    H276371   2.266   2.179   0.141  1.1184 -2.5365  1.3926
18294TIP3   OH276372   6.096   4.321  15.336 -0.0837  0.1720  0.0208
18294TIP3    H176373   6.054   4.407  15.332  1.1828  0.7372 -1.2597
18294TIP3    H276374   6.064   4.274  15.259 -0.9901 -0.6238  0.8636
18295TIP3   OH276375   1.944   2.886   6.588  0.6018 -0.1328 -0.0313
18295TIP3    H176376   1.917   2.794   6.585 -1.0096  0.3641 -1.7128
18295TIP3    H276377   1.873   2.930   6.635  0.8347  0.4250 -0.2001
18296TIP3   OH276378   3.787   3.036  11.857 -0.1203  0.5968  0.0098
18296TIP3    H176379   3.710   3.077  11.818  1.9449  3.8643 -0.7895
18296TIP3    H276380   3.811   3.092  11.930  0.8823 -0.9842  0.9351
18297TIP3   OH276381   3.680   1.768   4.683 -0.2958  0.4472 -0.3925
18297TIP3    H176382   3.621   1.760   4.759 -0.0542  3.6139  0.2081
18297TIP3    H276383   3.766   1.782   4.721  0.1500  0.1663 -1.2836
18298TIP3   OH276384   4.344   1.638  13.171 -0.8753 -0.1787  0.6159
18298TIP3    H176385   4.309   1.725  13.191 -1.9038 -0.6226  0.7886
18298TIP3    H276386   4.412   1.653  13.105 -1.1939  0.7241  0.4961
18299TIP3   OH276387   0.094   4.738   4.397 -0.0734 -0.0290  0.1264
18299TIP3    H176388   0.176   4.786   4.385 -0.9051  1.0298 -1.5854
18299TIP3    H276389   0.075   4.703   4.310 -1.0980 -0.8293  0.6717
18300TIP3   OH276390   4.946   5.282   2.216  0.1340  0.0156 -0.5458
18300TIP3    H176391   5.036   5.250   2.213 -0.0483 -0.4075 -1.8482
18300TIP3    H276392   4.913   5.268   2.128 -1.2500  0.0778 -0.0423
18301TIP3   OH276393   5.168   3.512   5.491 -0.5243  0.3126 -0.5622
18301TIP3    H176394   5.135   3.602   5.497 -0.6172  0.2292  0.1883
18301TIP3    H276395   5.197   3.504   5.401  1.3836  1.7602 -0.1022
18302TIP3   OH276396   1.203   0.654   0.713  0.0915 -0.1576 -0.2190
18302TIP3    H176397   1.145   0.667   0.637 -1.0955  3.1055  1.1405
18302TIP3    H276398   1.257   0.733   0.715  0.8740 -0.7160  1.6729
18303TIP3   OH276399   0.235   5.747   2.554 -0.7713 -0.0005  0.1891
18303TIP3    H176400   0.266   5.781   2.470 -1.4784  0.4607  0.1147
18303TIP3    H276401   0.278   5.801   2.620 -0.7113  0.0491  0.1095
18304TIP3   OH276402   4.637   5.343  11.751 -0.3300 -0.8292  0.0340
18304TIP3    H176403   4.594   5.309  11.672  0.0557 -0.7946 -0.1891
18304TIP3    H276404   4.583   5.310  11.823  0.2545 -2.2539 -0.1577
18305TIP3   OH276405   3.116   0.416   4.474 -0.4006 -0.1382  0.3290
18305TIP3    H176406   3.107   0.394   4.382  0.8006  0.4098  0.0730
18305TIP3    H276407   3.107   0.511   4.478 -1.2582 -0.2387  0.8780
18306TIP3   OH276408   6.557   0.019  16.097 -0.1568  0.0144 -0.3717
18306TIP3    H176409   6.502   0.013  16.019 -0.4473 -0.8913 -0.1063
18306TIP3    H276410   6.556   0.112  16.121  0.1848  0.3418 -1.6223
18307TIP3   OH276411   2.081   0.893   0.753  0.0930 -0.2353  0.0436
18307TIP3    H176412   2.043   0.848   0.677 -0.2388  1.3174 -0.7354
18307TIP3    H276413   2.175   0.873   0.748  0.1255  0.1675 -0.9924
18308TIP3   OH276414   5.389   1.850  14.861 -0.1528  0.3919  0.1558
18308TIP3    H176415   5.458   1.870  14.798  2.2277  0.8270  2.7646
18308TIP3    H276416   5.318   1.910  14.840  0.7785  0.8274 -1.7980
18309TIP3   OH276417   0.579   5.493   1.880 -0.7283  0.2677  0.2590
18309TIP3    H176418   0.614   5.409   1.850  0.2728  1.1228 -1.0801
18309TIP3    H276419   0.657   5.544   1.904 -0.9371  2.3622 -3.1669
18310TIP3   OH276420   4.093   2.536  10.962  0.3855 -0.2644 -0.0317
18310TIP3    H176421   4.139   2.498  10.887  0.5328  0.0336 -0.0928
18310TIP3    H276422   4.005   2.555  10.930  0.2454 -0.7437  0.0561
18311TIP3   OH276423   0.555   1.704  11.897 -0.0501 -0.4588 -0.2038
18311TIP3    H176424   0.513   1.635  11.948  1.3369 -1.3780 -0.2770
18311TIP3    H276425   0.491   1.727  11.830 -0.5887 -1.5540 -0.0671
18312TIP3   OH276426   3.028   1.816   4.880  0.2178  0.0983 -0.3745
18312TIP3    H176427   3.012   1.825   4.785  0.5566  1.4868 -0.3069
18312TIP3    H276428   2.996   1.898   4.917 -1.4670 -1.1157  0.9272
18313TIP3   OH276429   5.739   5.169  14.202  0.6871 -0.0633 -0.8747
18313TIP3    H176430   5.822   5.169  14.154  1.3143 -1.0065  0.1898
18313TIP3    H276431   5.765   5.174  14.294 -0.4474 -0.2007 -0.5425
18314TIP3   OH276432   4.411   4.291   0.387  0.0407 -0.1379 -0.1106
18314TIP3    H176433   4.358   4.327   0.316  2.4675  0.3186 -1.7340
18314TIP3    H276434   4.463   4.365   0.418 -0.4224 -0.5154  1.6471
18315TIP3   OH276435   6.728   2.091  12.446  0.4305 -0.6615 -0.0877
18315TIP3    H176436   6.680   2.067  12.367 -2.2557 -2.6172  2.0473
18315TIP3    H276437   6.677   2.163  12.483 -0.1620 -1.8961  1.5278
18316TIP3   OH276438   3.302   2.142   1.763  0.4691 -0.0754  0.6052
18316TIP3    H176439   3.211   2.115   1.775 -0.1505  0.5812 -2.2955
18316TIP3    H276440   3.341   2.073   1.709  1.0046  0.8472 -0.2151
18317TIP3   OH276441   1.094   4.335  12.871  0.3088  0.4629  0.1488
18317TIP3    H176442   1.116   4.361  12.960  0.1458 -1.0683  0.6630
18317TIP3    H276443   1.174   4.292  12.838 -0.5324 -1.5204  0.5926
18318TIP3   OH276444   6.505   1.334   3.089 -0.5191  0.0833  0.6893
18318TIP3    H176445   6.546   1.402   3.036 -1.3950  0.2507  0.2259
18318TIP3    H276446   6.468   1.273   3.026  0.9935 -1.2994  1.0881
18319TIP3   OH276447   6.346   2.786   1.278  0.4245 -0.2722 -0.1430
18319TIP3    H176448   6.424   2.745   1.239  1.0228 -1.4322  2.1870
18319TIP3    H276449   6.370   2.800   1.369 -1.5191  0.9326  0.1915
18320TIP3   OH276450   0.246   4.810  15.637  0.5279  0.0312 -0.3093
18320TIP3    H176451   0.161   4.853  15.635 -0.0029 -1.0021 -0.4642
18320TIP3    H276452   0.236   4.734  15.579  1.7991  0.3499 -0.9649
18321TIP3   OH276453   1.771   2.654  14.906 -0.2726  0.3001  0.1644
18321TIP3    H176454   1.693   2.709  14.893 -0.0753  0.4782 -0.2839
18321TIP3    H276455   1.752   2.604  14.985 -0.6873  0.6169  0.2679
18322TIP3   OH276456   5.299   6.701   0.421  0.1578 -0.4591  0.4074
18322TIP3    H176457   5.303   6.761   0.346  0.4818  1.2330  1.7505
18322TIP3    H276458   5.368   6.731   0.479  0.1924 -2.0337  1.2125
18323TIP3   OH276459   6.676   5.174   5.238 -0.4716 -0.0504 -0.4075
18323TIP3    H176460   6.732   5.194   5.163 -0.9970  1.7373 -0.3563
18323TIP3    H276461   6.624   5.099   5.210 -1.0769  0.9628 -2.0714
18324TIP3   OH276462   5.604   1.595   6.074  0.5092  0.2613 -0.1900
18324TIP3    H176463   5.649   1.515   6.100  1.4650  0.5622 -0.8726
18324TIP3    H276464   5.538   1.567   6.011 -1.0476 -0.3250  1.6537
18325TIP3   OH276465   5.413   1.388   3.444 -0.0535 -0.4749  0.4775
18325TIP3    H176466   5.439   1.462   3.388  0.2242 -0.4153  0.6834
18325TIP3    H276467   5.445   1.311   3.397  2.8097 -0.2709  1.9455
18326TIP3   OH276468   4.808   3.997   5.096 -0.2865 -0.5659  0.2922
18326TIP3    H176469   4.877   4.021   5.158 -1.3387  1.8569  0.5636
18326TIP3    H276470   4.732   4.049   5.122 -1.1569 -0.5162 -2.1974
18327TIP3   OH276471   5.334   6.199  12.431  0.4111 -0.1754 -0.5409
18327TIP3    H176472   5.295   6.284  12.411  1.1836  0.0222 -1.2751
18327TIP3    H276473   5.422   6.204  12.392  1.9279  0.1140  2.7221
18328TIP3   OH276474   3.116   0.668   3.143 -0.2023 -0.2868  0.0619
18328TIP3    H176475   3.077   0.587   3.109 -0.2161  0.5117 -1.8744
18328TIP3    H276476   3.049   0.705   3.200 -0.5151 -1.2191  0.3031
18329TIP3   OH276477   6.659   6.558   4.331 -0.2609  0.2860 -0.1827
18329TIP3    H176478   6.596   6.623   4.302 -0.7164 -0.3112 -0.5462
18329TIP3    H276479   6.744   6.591   4.300 -0.6271  0.1298 -1.3763
18330TIP3   OH276480   0.406   3.256  14.185 -0.1224  0.2387  0.1618
18330TIP3    H176481   0.350   3.318  14.231 -2.1291 -0.3853 -1.3227
18330TIP3    H276482   0.381   3.170  14.219 -1.3014 -0.1874 -1.6893
18331TIP3   OH276483   1.702   0.447  12.210 -0.4760  0.1621  0.3863
18331TIP3    H176484   1.696   0.380  12.279 -2.1030  0.0329  0.1399
18331TIP3    H276485   1.685   0.530  12.256  0.0140  0.2426  0.4215
18332TIP3   OH276486   0.845   0.626  16.908 -0.3125  0.2949 -0.8051
18332TIP3    H176487   0.930   0.584  16.914  0.6197  2.1365 -0.9299
18332TIP3    H276488   0.844   0.668  16.822 -1.3477  0.2937 -0.8075
18333TIP3   OH276489   3.318   5.376  15.645  0.2146 -0.0644 -0.4610
18333TIP3    H176490   3.391   5.329  15.605  0.3198 -0.8761  0.6638
18333TIP3    H276491   3.336   5.372  15.739 -0.1496  1.5990 -0.3057
18334TIP3   OH276492   1.021   4.989  12.552  0.0748  0.5488  0.3489
18334TIP3    H176493   0.955   4.976  12.485  1.5521 -1.7457 -0.7371
18334TIP3    H276494   1.025   5.084  12.564 -1.8763  0.8393 -1.0916
18335TIP3   OH276495   1.812   1.183  13.398  0.1835  0.1387 -0.2586
18335TIP3    H176496   1.887   1.211  13.451  0.6872 -0.5471 -0.6055
18335TIP3    H276497   1.784   1.262  13.353  1.0204  0.2992 -0.5173
18336TIP3   OH276498   3.285   0.745  11.517 -0.0848 -0.1549 -0.0691
18336TIP3    H176499   3.294   0.839  11.501 -2.4975 -0.0487 -0.9014
18336TIP3    H276500   3.317   0.704  11.436  2.3165 -0.1511  0.8193
18337TIP3   OH276501   1.713   0.621   5.942 -0.5541  0.3284  0.3597
18337TIP3    H176502   1.620   0.627   5.962 -0.8675 -0.5566 -0.7560
18337TIP3    H276503   1.749   0.705   5.968 -1.6761  0.6844  0.7751
18338TIP3   OH276504   0.577   3.241   6.322 -0.1433 -0.1990  0.0673
18338TIP3    H176505   0.636   3.304   6.366  0.0398 -0.3549  0.0459
18338TIP3    H276506   0.518   3.212   6.391 -0.7857  0.6485 -0.1117
18339TIP3   OH276507   2.110   3.023  11.083 -0.1464 -0.1484  0.1246
18339TIP3    H176508   2.115   2.970  11.163  2.1406  0.1472  0.1978
18339TIP3    H276509   2.097   3.112  11.114 -0.4260 -0.1913  0.1296
18340TIP3   OH276510   6.600   3.793   2.130  0.0403 -0.0844  0.5465
18340TIP3    H176511   6.650   3.731   2.076 -1.6840 -1.7026  0.7309
18340TIP3    H276512   6.509   3.781   2.101 -0.2383  2.9965  0.0097
18341TIP3   OH276513   4.775   3.689   3.632 -0.1461 -0.3787 -0.5147
18341TIP3    H176514   4.742   3.757   3.573  0.7171 -0.0231 -0.5978
18341TIP3    H276515   4.739   3.607   3.597  0.0961 -0.1330 -1.3333
18342TIP3   OH276516   6.072   0.329   4.769  0.3751 -0.3921 -0.1821
18342TIP3    H176517   6.126   0.285   4.834  2.2820 -0.0668 -1.5121
18342TIP3    H276518   6.129   0.339   4.693 -0.9022  1.8233 -0.8978
18343TIP3   OH276519   6.223   0.202  14.738  0.1014 -0.1253 -0.0300
18343TIP3    H176520   6.280   0.279  14.740  0.5683 -0.4588 -0.3302
18343TIP3    H276521   6.264   0.144  14.674 -0.1467 -0.7012  0.3301
18344TIP3   OH276522   3.968   0.769   1.428 -0.7823  0.4086  0.3307
18344TIP3    H176523   3.908   0.745   1.498 -0.6236 -0.2401  0.2399
18344TIP3    H276524   4.020   0.691   1.411 -1.4899  0.2369 -1.1870
18345TIP3   OH276525   6.603   2.427   1.395 -0.3806  0.5267 -0.1593
18345TIP3    H176526   6.560   2.511   1.376 -2.6062 -0.9734 -1.9875
18345TIP3    H276527   6.558   2.395   1.473  1.6480  1.7737  1.5952
18346TIP3   OH276528   6.062   2.869  11.903 -0.0311 -0.0455 -0.4751
18346TIP3    H176529   6.073   2.961  11.926  1.8833 -0.1356 -0.9355
18346TIP3    H276530   6.094   2.863  11.812  0.7348 -1.3145 -0.1469
18347TIP3   OH276531   4.644   5.305   6.056 -0.4184 -0.0675  0.2766
18347TIP3    H176532   4.680   5.282   6.142  1.6480 -1.6940 -0.9853
18347TIP3    H276533   4.698   5.379   6.027  1.4014 -1.9075 -1.2056
18348TIP3   OH276534   4.302   5.392  13.955 -0.0218 -0.3154 -0.4388
18348TIP3    H176535   4.380   5.435  13.917 -1.9041  2.7341 -1.0192
18348TIP3    H276536   4.293   5.311  13.904  0.9011  0.8701 -2.5802
18349TIP3   OH276537   4.709   6.804   6.323 -0.0550  0.4254 -0.0162
18349TIP3    H176538   4.647   6.735   6.344 -0.7438  0.9254 -0.3558
18349TIP3    H276539   4.787   6.759   6.293 -1.6424 -0.2196 -3.4844
18350TIP3   OH276540   0.134   4.460  14.047  0.4066  0.0463 -0.0868
18350TIP3    H176541   0.157   4.513  14.123  0.1230  0.8629 -0.5658
18350TIP3    H276542   0.198   4.484  13.980  1.3538 -1.4990  0.2525
18351TIP3   OH276543   3.676   4.964   5.702 -0.2315 -0.7283 -0.4465
18351TIP3    H176544   3.768   4.983   5.719 -0.7665  0.6066  1.1199
18351TIP3    H276545   3.672   4.948   5.608  1.2656  1.3065 -0.9081
18352TIP3   OH276546   6.221   6.072   0.607  0.0484 -0.3322 -0.5237
18352TIP3    H176547   6.136   6.028   0.598  0.7244 -1.6822 -0.4636
18352TIP3    H276548   6.201   6.154   0.651 -1.2529 -0.5787 -0.6412
18353TIP3   OH276549   3.093   1.755   5.433  0.1729  0.1095  0.1303
18353TIP3    H176550   3.188   1.763   5.444  0.0967  0.2098  0.6830
18353TIP3    H276551   3.065   1.843   5.407 -0.1514  0.7650  2.6450
18354TIP3   OH276552   4.449   6.686  10.662 -0.4189  0.2666  0.2875
18354TIP3    H176553   4.394   6.612  10.685  0.1053  0.0695  0.9177
18354TIP3    H276554   4.491   6.661  10.580 -0.5848  0.0533  0.2697
18355TIP3   OH276555   6.163   0.385  10.664  0.0310  0.5048  0.1263
18355TIP3    H176556   6.219   0.325  10.615 -1.7391  1.5684 -3.4104
18355TIP3    H276557   6.090   0.330  10.693  0.3689  0.1575  0.3292
18356TIP3   OH276558   6.053   2.812  13.761 -0.4657 -0.8360  0.3130
18356TIP3    H176559   5.969   2.769  13.748  0.5150 -3.5661  2.4677
18356TIP3    H276560   6.033   2.887  13.817 -1.4811 -1.3896  0.7041
18357TIP3   OH276561   4.635   1.413  13.894  0.0961  0.5965  0.3550
18357TIP3    H176562   4.670   1.345  13.952  0.5962  1.3045  0.8866
18357TIP3    H276563   4.594   1.476  13.953  1.7339  1.9722  0.0316
18358TIP3   OH276564   0.313   5.441   0.613  0.1087 -0.2817 -0.1962
18358TIP3    H176565   0.369   5.403   0.545 -1.6357 -1.9189 -0.7637
18358TIP3    H276566   0.293   5.528   0.582 -1.4231 -1.3482 -2.2533
18359TIP3   OH276567   0.747   2.172  14.155 -0.1475  0.0335  0.7250
18359TIP3    H176568   0.703   2.156  14.072  0.6501  0.4658  0.2182
18359TIP3    H276569   0.821   2.111  14.156  0.0273  0.2457  0.9801
18360TIP3   OH276570   0.549   0.591   3.637 -0.1574  0.1398  0.6111
18360TIP3    H176571   0.495   0.512   3.632  1.8335 -1.2812  0.7063
18360TIP3    H276572   0.539   0.622   3.727  2.0459 -2.2840  1.7863
18361TIP3   OH276573   1.883   3.342   5.837 -0.3688  0.6230 -0.3341
18361TIP3    H176574   1.973   3.367   5.821 -0.4506  2.7506  2.0976
18361TIP3    H276575   1.889   3.259   5.885  0.3811  1.3199  0.8127
18362TIP3   OH276576   4.895   4.485  15.147  0.0390 -0.4471  0.3186
18362TIP3    H176577   4.832   4.538  15.197  0.5541 -0.2076  0.7225
18362TIP3    H276578   4.906   4.406  15.200 -0.7566 -0.9919 -0.3004
18363TIP3   OH276579   0.942   4.558   3.769  0.1056 -0.2460  0.2582
18363TIP3    H176580   0.978   4.520   3.689 -0.3868 -0.1320 -0.0186
18363TIP3    H276581   0.927   4.482   3.826 -1.3971 -0.5270 -0.5045
18364TIP3   OH276582   6.491   5.474  12.143 -0.2070  0.2279  0.6778
18364TIP3    H176583   6.476   5.504  12.232  0.9483  0.6777  0.7293
18364TIP3    H276584   6.568   5.521  12.114  0.1727 -0.8529 -0.1269
18365TIP3   OH276585   4.595   6.033   5.513 -0.2836  0.1181 -0.5166
18365TIP3    H176586   4.625   6.032   5.604  2.1882  3.6389 -1.2075
18365TIP3    H276587   4.544   6.113   5.505  0.3642  0.3595 -2.4821
18366TIP3   OH276588   2.614   1.906  14.225 -0.1229 -0.0919 -0.0917
18366TIP3    H176589   2.627   1.812  14.235 -1.1123 -0.2167  0.0205
18366TIP3    H276590   2.604   1.920  14.131  0.9230  0.0203 -0.1881
18367TIP3   OH276591   3.381   4.528  15.632  0.0421  0.1225  0.0485
18367TIP3    H176592   3.426   4.610  15.610 -0.1017 -0.3405 -2.0452
18367TIP3    H276593   3.323   4.552  15.704 -0.0476  1.8854 -0.5764
18368TIP3   OH276594   4.780   4.275   2.344  0.6944 -0.1300  0.4630
18368TIP3    H176595   4.710   4.320   2.299  0.1711 -1.6114 -0.2270
18368TIP3    H276596   4.858   4.328   2.328  0.1026  0.4694 -0.4111
18369TIP3   OH276597   5.490   0.424   2.733 -0.7303  0.1255 -0.0174
18369TIP3    H176598   5.534   0.344   2.703 -0.5059 -0.0076  0.6569
18369TIP3    H276599   5.403   0.394   2.761 -0.7278  0.1584  0.0247
18370TIP3   OH276600   3.730   2.599   5.555 -0.8692  0.4725  0.2166
18370TIP3    H176601   3.825   2.608   5.552 -0.8847  1.9705  2.7428
18370TIP3    H276602   3.701   2.619   5.466  1.3691 -3.2269 -1.4302
18371TIP3   OH276603   4.695   2.627   1.483 -0.2114  0.2567 -0.0384
18371TIP3    H176604   4.743   2.669   1.411 -1.3411  0.2766 -0.7964
18371TIP3    H276605   4.612   2.676   1.488 -1.6538 -1.9681 -1.0747
18372TIP3   OH276606   2.699   6.253   5.796  0.2144  0.0292  0.4909
18372TIP3    H176607   2.694   6.224   5.887  2.1745  0.8840  0.9077
18372TIP3    H276608   2.787   6.228   5.768 -0.6089 -0.8694 -1.4158
18373TIP3   OH276609   4.436   5.923   6.307  0.0267  0.2382 -0.4559
18373TIP3    H176610   4.381   5.965   6.240  0.2644  1.8064  0.3019
18373TIP3    H276611   4.430   5.982   6.383 -2.0679 -2.6393  1.7333
18374TIP3   OH276612   0.379   3.295   6.550 -0.1980 -0.2231 -0.2706
18374TIP3    H176613   0.316   3.268   6.617 -0.8064 -2.7693 -1.7661
18374TIP3    H276614   0.463   3.301   6.596 -0.5415 -2.2613  0.6812
18375TIP3   OH276615   3.293   4.148  14.000 -0.1176  0.5539  0.2027
18375TIP3    H176616   3.323   4.184  13.916 -0.0890 -0.3597 -0.1804
18375TIP3    H276617   3.352   4.075  14.016 -1.9444 -1.0975 -0.4129
18376TIP3   OH276618   2.030   5.554   6.296 -0.1288  0.7853  0.6487
18376TIP3    H176619   1.946   5.509   6.294 -1.1353  2.5901  1.3397
18376TIP3    H276620   2.094   5.484   6.314 -1.6114 -0.3827  1.4877
18377TIP3   OH276621   6.371   3.087  17.274 -0.1408 -0.1169 -0.2278
18377TIP3    H176622   6.402   3.009  17.319  1.5867  0.2235 -0.7887
18377TIP3    H276623   6.277   3.073  17.262 -0.2479 -1.0909  1.6694
18378TIP3   OH276624   1.617   5.476  16.566  0.0428  0.1088  0.0776
18378TIP3    H176625   1.542   5.535  16.559  1.8944  2.5396  0.0270
18378TIP3    H276626   1.648   5.488  16.656  1.2547  0.2364 -0.3493
18379TIP3   OH276627   4.225   1.485  12.025 -0.3286 -0.7512  0.1700
18379TIP3    H176628   4.292   1.508  12.089 -1.0651 -1.6931  1.3052
18379TIP3    H276629   4.245   1.395  11.999  1.1445  0.2715 -2.4672
18380TIP3   OH276630   0.487   0.873   6.680 -0.2661 -0.4279  0.0155
18380TIP3    H176631   0.572   0.877   6.636 -0.1766  2.8603  0.3538
18380TIP3    H276632   0.504   0.826   6.761  1.7057  1.8985  1.0033
18381TIP3   OH276633   3.935   1.795   1.633 -0.4575  0.3493 -0.1757
18381TIP3    H176634   3.974   1.732   1.693  0.7479  2.1021  0.9163
18381TIP3    H276635   3.846   1.806   1.664 -0.6400 -0.6968 -0.2943
18382TIP3   OH276636   3.054   1.145  11.551  0.2209  0.1757  0.2567
18382TIP3    H176637   3.058   1.238  11.531  0.2376  0.2741  0.7112
18382TIP3    H276638   3.003   1.107  11.480 -1.9160  0.8991  1.3486
18383TIP3   OH276639   3.405   3.502  16.955  0.0055  0.1171  0.0763
18383TIP3    H176640   3.395   3.543  16.869 -0.3142 -0.2575 -0.0671
18383TIP3    H276641   3.480   3.547  16.994  2.0586 -1.7264 -1.5899
18384TIP3   OH276642   6.490   2.594   3.277  0.4664 -0.3219  0.1737
18384TIP3    H176643   6.397   2.571   3.267  0.7383 -1.2845 -0.1883
18384TIP3    H276644   6.535   2.543   3.209  1.4655 -1.2171  1.4864
18385TIP3   OH276645   5.347   1.884  15.681  0.0788 -0.6677 -0.0800
18385TIP3    H176646   5.323   1.792  15.666  1.5290 -0.6967 -2.5456
18385TIP3    H276647   5.442   1.881  15.693  0.0001  0.4107  0.8566
18386TIP3   OH276648   4.786   5.581  15.182  0.1920 -0.0789  0.1894
18386TIP3    H176649   4.733   5.521  15.236  0.1843  0.2785  0.5838
18386TIP3    H276650   4.744   5.666  15.193 -0.2860 -0.1479 -1.0240
18387TIP3   OH276651   1.431   4.424  13.819 -0.3703 -0.8643 -0.2022
18387TIP3    H176652   1.470   4.509  13.838 -0.0756 -0.6457 -1.7169
18387TIP3    H276653   1.504   4.370  13.789 -0.5794 -1.6211  0.6150
18388TIP3   OH276654   1.642   1.935  14.585 -0.5568  0.0402 -0.4820
18388TIP3    H176655   1.628   1.997  14.657 -0.5511  0.4797 -0.8633
18388TIP3    H276656   1.721   1.966  14.541 -0.6617 -0.1276 -0.7890
18389TIP3   OH276657   5.440   0.975  10.841 -0.0062 -0.3406  0.4631
18389TIP3    H176658   5.389   0.919  10.899  1.4053 -0.9737  1.1031
18389TIP3    H276659   5.510   0.919  10.807  0.6816  0.6903  0.1216
18390TIP3   OH276660   3.818   3.566   2.928 -0.0622  0.0885  0.2165
18390TIP3    H176661   3.780   3.561   3.016 -1.1548  2.3345 -0.0931
18390TIP3    H276662   3.763   3.629   2.881  2.5211  1.5051 -1.0346
18391TIP3   OH276663   6.281   3.678   2.120 -0.2346  0.3105 -0.6132
18391TIP3    H176664   6.258   3.725   2.201 -1.0849 -1.2618  0.0818
18391TIP3    H276665   6.200   3.675   2.070 -0.1620 -0.3220 -0.6969
18392TIP3   OH276666   6.031   3.918   1.663  0.6665 -0.4720 -0.1506
18392TIP3    H176667   6.114   3.964   1.648  0.5191 -0.4745 -1.0038
18392TIP3    H276668   6.037   3.840   1.607 -0.0813 -0.2589 -0.5395
18393TIP3   OH276669   6.024   5.814   2.676 -0.0628  0.4071 -0.0110
18393TIP3    H176670   6.103   5.863   2.699  0.0579  0.1993  0.0277
18393TIP3    H276671   5.958   5.880   2.659  0.0025  0.5744  0.3798
18394TIP3   OH276672   3.440   1.890   0.528  0.1482  0.3110 -0.3578
18394TIP3    H176673   3.378   1.880   0.456 -0.1858  1.2610 -0.2103
18394TIP3    H276674   3.490   1.968   0.506  0.2558  0.4266  0.2812
18395TIP3   OH276675   5.497   1.311   4.551 -0.3198  0.0341 -0.2606
18395TIP3    H176676   5.425   1.374   4.561 -1.3316 -1.5595  3.3256
18395TIP3    H276677   5.564   1.343   4.611  2.2465  1.7146 -3.8428
18396TIP3   OH276678   4.100   5.847  15.863  0.0754  0.0380 -0.1431
18396TIP3    H176679   4.159   5.786  15.819 -1.4479  0.1211 -2.3776
18396TIP3    H276680   4.105   5.823  15.955 -1.7210 -4.6033 -1.1251
18397TIP3   OH276681   2.449   3.929  13.932 -0.1228  0.1072  0.5363
18397TIP3    H176682   2.377   3.977  13.973 -0.5988  1.7894 -2.1468
18397TIP3    H276683   2.507   3.997  13.899  1.3746 -1.2365  0.3717
18398TIP3   OH276684   1.153   1.723  16.389  0.1894  0.6459  0.2499
18398TIP3    H176685   1.113   1.715  16.476  0.0326  0.8742  0.1994
18398TIP3    H276686   1.220   1.791  16.400 -0.0867  0.9454  0.1023
18399TIP3   OH276687   3.917   3.049  16.617  0.2791  0.0460 -0.0796
18399TIP3    H176688   3.945   3.141  16.620  1.3548 -0.3050  1.5795
18399TIP3    H276689   3.946   3.013  16.701  1.1493 -2.1833 -1.2968
18400TIP3   OH276690   6.787   0.698   1.419 -0.5442  0.4667  0.0870
18400TIP3    H176691   6.754   0.765   1.359 -0.0559 -1.7959 -2.8407
18400TIP3    H276692   6.872   0.673   1.382 -0.8485 -1.9502  0.9136
18401TIP3   OH276693   6.179   2.266  12.103 -0.2461 -0.0439  0.3425
18401TIP3    H176694   6.092   2.306  12.100  0.3795  1.2818 -1.0766
18401TIP3    H276695   6.230   2.325  12.160  0.1275  0.0590 -0.0915
18402TIP3   OH276696   3.832   2.311   4.687  0.4923  0.1933 -0.2213
18402TIP3    H176697   3.903   2.304   4.751 -0.3645  0.1661  0.7316
18402TIP3    H276698   3.876   2.340   4.607  1.3271  1.9844  0.8491
18403TIP3   OH276699   1.446   4.165   2.178 -0.1116 -0.2047 -0.2275
18403TIP3    H176700   1.487   4.215   2.108 -1.2568  1.0937  0.0163
18403TIP3    H276701   1.464   4.074   2.156  1.5311  0.2785 -0.9643
18404TIP3   OH276702   3.186   3.801   0.242 -0.1960  0.2433  0.6727
18404TIP3    H176703   3.269   3.841   0.268 -1.4492  2.9996  0.5652
18404TIP3    H276704   3.164   3.744   0.315  2.6461 -1.9479 -0.0671
18405TIP3   OH276705   5.013   1.457   4.518 -0.7055  0.2688  0.3781
18405TIP3    H176706   4.920   1.436   4.517 -0.6263 -0.0761  0.1588
18405TIP3    H276707   5.052   1.395   4.456 -0.1651 -0.3689  1.3362
18406TIP3   OH276708   1.315   3.270   6.765 -0.7631 -0.6366  0.4897
18406TIP3    H176709   1.374   3.345   6.759  0.5682 -1.6903  0.1427
18406TIP3    H276710   1.358   3.211   6.827 -1.8367 -1.0657  0.8205
18407TIP3   OH276711   3.157   2.535  11.595  0.2649 -0.4726  0.0330
18407TIP3    H176712   3.199   2.604  11.647 -1.7496  0.7564  0.0751
18407TIP3    H276713   3.172   2.560  11.504 -0.3139 -0.0711  0.0482
18408TIP3   OH276714   1.039   2.468   3.174  0.4038  0.9377  0.0135
18408TIP3    H176715   1.120   2.424   3.198  0.3539  1.7254  1.7494
18408TIP3    H276716   0.970   2.418   3.218  0.0752  0.9872 -0.4428
18409TIP3   OH276717   0.976   2.417  15.600 -0.4211  0.5369  0.0580
18409TIP3    H176718   0.940   2.441  15.686  0.8321  0.4740  0.6133
18409TIP3    H276719   1.025   2.494  15.573 -1.4068  0.8191 -0.9370
18410TIP3   OH276720   5.518   0.417  15.447 -0.2611  0.2909  0.3385
18410TIP3    H176721   5.593   0.467  15.480 -1.3754  1.8453  0.5643
18410TIP3    H276722   5.454   0.421  15.518 -0.3679 -1.5273  0.3854
18411TIP3   OH276723   4.870   1.059  17.014 -0.0240 -0.5400  0.0966
18411TIP3    H176724   4.794   1.013  16.978 -0.0981  0.4430 -1.0191
18411TIP3    H276725   4.858   1.150  16.987  1.9057 -0.4956 -0.6867
18412TIP3   OH276726   2.241   0.445   1.135  0.0307 -0.3161  0.1906
18412TIP3    H176727   2.313   0.418   1.079  0.1469 -2.2648  1.2412
18412TIP3    H276728   2.266   0.416   1.223 -1.4331  0.1653  0.7847
18413TIP3   OH276729   2.795   3.318   1.749  0.1485 -0.1810 -0.6886
18413TIP3    H176730   2.850   3.262   1.804  1.6755  0.2147 -1.7678
18413TIP3    H276731   2.726   3.260   1.717  1.4053 -1.3436 -1.3629
18414TIP3   OH276732   3.623   0.477  16.178  0.5886 -0.3640 -0.3384
18414TIP3    H176733   3.534   0.440  16.181  1.0351 -1.4659 -0.4130
18414TIP3    H276734   3.680   0.402  16.194  1.4834  0.4740  0.4120
18415TIP3   OH276735   4.845   5.624  14.911 -0.2986 -0.7598 -0.1674
18415TIP3    H176736   4.866   5.549  14.856 -1.2534 -1.9480  1.0446
18415TIP3    H276737   4.844   5.588  15.000 -0.9616  0.6528  0.4039
18416TIP3   OH276738   3.593   3.582   4.965 -0.0798 -0.5990  0.0265
18416TIP3    H176739   3.653   3.601   4.893 -0.7586  2.7878  0.2853
18416TIP3    H276740   3.507   3.577   4.924 -0.5749  2.1407  0.6560
18417TIP3   OH276741   3.215   5.105   1.653  0.1393 -0.0936  0.5265
18417TIP3    H176742   3.283   5.091   1.588 -0.2960 -0.5363  0.1638
18417TIP3    H276743   3.213   5.200   1.665 -1.4561  0.2400 -1.9550
18418TIP3   OH276744   0.916   2.644  13.167  0.3869  0.1824  0.2520
18418TIP3    H176745   0.969   2.564  13.172 -1.1992 -0.9306 -0.2494
18418TIP3    H276746   0.961   2.705  13.225  1.2176 -1.3313  1.2693
18419TIP3   OH276747   0.403   1.084  16.785 -0.1540 -0.1099 -0.0008
18419TIP3    H176748   0.444   1.071  16.699  0.6130  0.4408  0.2724
18419TIP3    H276749   0.312   1.106  16.766  0.4926  1.9966 -0.7530
18420TIP3   OH276750   5.078   1.843   1.978  0.3760  0.0904  0.1672
18420TIP3    H176751   5.104   1.788   2.052 -0.7337  0.0383  0.5224
18420TIP3    H276752   5.025   1.786   1.923  1.0460  0.1803 -0.5904
18421TIP3   OH276753   2.580   3.156  13.739  0.3204 -0.6180  0.3537
18421TIP3    H176754   2.607   3.233  13.789  0.2936  0.6466 -1.5400
18421TIP3    H276755   2.490   3.140  13.767 -0.3701  1.2671 -0.6774
18422TIP3   OH276756   3.102   2.216  15.514  0.0452  0.1787  0.2339
18422TIP3    H176757   3.188   2.211  15.555  0.9798  2.1068 -1.3866
18422TIP3    H276758   3.114   2.178  15.427 -0.7267  0.4644 -0.0065
18423TIP3   OH276759   3.592   1.345  13.500 -0.7334  0.4282 -0.1932
18423TIP3    H176760   3.667   1.388  13.459  0.0884 -1.1175 -0.3546
18423TIP3    H276761   3.601   1.365  13.594 -0.8484  1.3333 -0.3758
18424TIP3   OH276762   2.868   1.431  16.329  0.0305 -0.0019 -0.0268
18424TIP3    H176763   2.810   1.486  16.381  0.2562 -0.3942  0.6400
18424TIP3    H276764   2.881   1.480  16.248 -1.6303 -0.1300 -0.4047
18425TIP3   OH276765   1.596   3.400   2.650  0.0897 -0.3615  0.2976
18425TIP3    H176766   1.633   3.314   2.630  2.0213  0.9279 -1.8657
18425TIP3    H276767   1.642   3.427   2.730  0.9766 -0.4961 -0.1527
18426TIP3   OH276768   4.518   1.650  12.022 -0.0109 -0.0297  0.2215
18426TIP3    H176769   4.485   1.593  11.954 -1.9322  0.3575  0.8019
18426TIP3    H276770   4.464   1.729  12.016  0.0264  0.1549  1.9387
18427TIP3   OH276771   0.066   4.851  16.881 -0.4325 -0.1476  0.1812
18427TIP3    H176772   0.120   4.895  16.947 -1.6760  0.1216  1.0349
18427TIP3    H276773   0.059   4.761  16.912 -0.6702 -0.1224  0.2024
18428TIP3   OH276774   4.655   1.008   3.377  0.2268  0.3071 -0.0285
18428TIP3    H176775   4.685   1.082   3.430 -0.4150  0.7371 -0.2562
18428TIP3    H276776   4.560   1.008   3.388  0.2506 -0.6309  0.1553
18429TIP3   OH276777   0.042   5.399  12.215 -0.0184  0.7754 -0.4836
18429TIP3    H176778  -0.039   5.362  12.179 -0.1356  0.1777  0.4017
18429TIP3    H276779   0.063   5.471  12.155 -0.2286 -0.1948 -1.7467
18430TIP3   OH276780   0.930   4.072   1.456 -0.4925 -0.4936  0.1925
18430TIP3    H176781   0.970   4.034   1.378 -0.7354 -0.0472 -0.1525
18430TIP3    H276782   0.924   3.999   1.518  1.5653 -0.3960  0.5414
18431TIP3   OH276783   2.460   5.876   3.660 -0.6477 -0.1047  0.5920
18431TIP3    H176784   2.424   5.965   3.660  0.2242  0.2642 -0.2063
18431TIP3    H276785   2.423   5.836   3.581  1.7872  0.7579 -1.0391
18432TIP3   OH276786   1.458   6.432   0.010  0.1011  0.0386 -0.1595
18432TIP3    H176787   1.494   6.509   0.055  0.3114  0.3175 -0.7993
18432TIP3    H276788   1.530   6.400  -0.044  0.4672 -1.4767  1.1970
18433TIP3   OH276789   6.410   3.263   0.227 -0.1027  0.2058 -0.2282
18433TIP3    H176790   6.496   3.305   0.238  0.7337 -1.4051 -0.4343
18433TIP3    H276791   6.424   3.199   0.157 -0.9696 -1.3938  1.0429
18434TIP3   OH276792   5.505   1.764   3.079  0.4376  0.2769  0.1400
18434TIP3    H176793   5.440   1.771   3.009  0.6996 -1.1266 -0.2635
18434TIP3    H276794   5.529   1.854   3.099  0.8639  0.6892 -2.0576
18435TIP3   OH276795   3.271   6.725   5.445 -0.9890 -0.4188  0.2328
18435TIP3    H176796   3.329   6.682   5.383 -0.8309 -1.3862  1.0294
18435TIP3    H276797   3.230   6.653   5.493 -1.8550  0.2853  0.5776
18436TIP3   OH276798   4.057   4.860   5.103 -0.3973 -0.4662 -0.1211
18436TIP3    H176799   4.032   4.788   5.160  0.9239 -0.9497 -0.1325
18436TIP3    H276800   4.004   4.934   5.132 -2.0886 -1.5485 -0.4018
18437TIP3   OH276801   4.437   2.369   4.238 -0.3118 -0.1703 -0.4371
18437TIP3    H176802   4.346   2.392   4.257 -0.2110  0.2069 -0.3960
18437TIP3    H276803   4.488   2.438   4.281  0.0977 -1.8278  1.7724
18438TIP3   OH276804   6.173   1.662  13.047  0.6333 -0.0463 -0.0375
18438TIP3    H176805   6.121   1.741  13.036 -2.2653 -1.5346  2.1391
18438TIP3    H276806   6.164   1.615  12.964  0.8765  1.0415 -0.6859
18439TIP3   OH276807   0.951   5.087   5.114 -0.4264  0.1935 -0.0600
18439TIP3    H176808   0.863   5.118   5.134 -0.3819  0.9793 -1.0941
18439TIP3    H276809   0.941   4.992   5.105 -0.9240  0.1248  1.0942
18440TIP3   OH276810   4.123   3.383  13.797  0.1087  0.8412  0.5060
18440TIP3    H176811   4.174   3.420  13.869  2.0301  0.2205 -0.5094
18440TIP3    H276812   4.086   3.459  13.752 -0.1648  1.2730  1.4422
18441TIP3   OH276813   0.481   5.095  10.682  0.3743 -0.1890  0.2346
18441TIP3    H176814   0.406   5.146  10.650  1.3438 -0.0115 -1.8715
18441TIP3    H276815   0.536   5.083  10.605  3.0459  0.5760  1.9716
18442TIP3   OH276816   4.441   5.266  15.112 -0.0226 -0.2868  0.0347
18442TIP3    H176817   4.423   5.356  15.138 -0.1495 -0.0970 -0.6884
18442TIP3    H276818   4.400   5.212  15.179 -0.6253  0.1852  0.0411
18443TIP3   OH276819   0.584   0.357  13.297 -0.2205  0.3063  0.0223
18443TIP3    H176820   0.492   0.383  13.305  0.2742  1.7738  1.2073
18443TIP3    H276821   0.629   0.435  13.266  1.1790  0.7566  2.9493
18444TIP3   OH276822   1.310   3.710  12.636 -0.3166  0.5352  0.1752
18444TIP3    H176823   1.403   3.725  12.652  0.1422  1.2035 -2.8560
18444TIP3    H276824   1.307   3.631  12.582 -1.5099  0.4227  0.3932
18445TIP3   OH276825   2.976   4.153  13.486  0.8388  0.3358 -0.2278
18445TIP3    H176826   2.906   4.113  13.537  0.0702 -0.1243 -1.6190
18445TIP3    H276827   2.978   4.245  13.515 -0.0891  0.2620  0.0769
18446TIP3   OH276828   2.616   5.415   5.138 -0.2265  0.0390  0.1768
18446TIP3    H176829   2.592   5.494   5.090 -0.0384  0.1621  0.2833
18446TIP3    H276830   2.623   5.444   5.229  0.4305  0.0265  0.1315
18447TIP3   OH276831   3.597   3.310  12.403 -0.2042 -0.0295 -0.0266
18447TIP3    H176832   3.504   3.334  12.397 -0.0601  0.7522  0.7509
18447TIP3    H276833   3.608   3.278  12.493  0.0350 -1.2045 -0.4659
18448TIP3   OH276834   6.213   4.036  12.234  0.1458  0.1399 -0.1572
18448TIP3    H176835   6.290   4.086  12.262  1.2597 -1.1506 -0.8944
18448TIP3    H276836   6.203   3.968  12.301 -0.7953  0.7199  0.3184
18449TIP3   OH276837   5.672   1.838   6.174 -0.1295 -0.0817  0.2620
18449TIP3    H176838   5.751   1.820   6.225  0.5862 -2.0911 -1.4699
18449TIP3    H276839   5.670   1.769   6.108 -3.6542 -0.4065  0.6041
18450TIP3   OH276840   2.083   0.103   5.351  0.1917  0.2602  0.0973
18450TIP3    H176841   2.029   0.026   5.372  0.9947 -0.5045 -0.5945
18450TIP3    H276842   2.032   0.150   5.286  0.1108 -0.1769 -0.1574
18451TIP3   OH276843   0.641   1.998  12.455 -0.4343 -0.6856  0.4992
18451TIP3    H176844   0.569   2.051  12.491  1.4919  2.7476 -0.4836
18451TIP3    H276845   0.608   1.969  12.370 -0.4253  1.5247 -0.2972
18452TIP3   OH276846   5.321   5.662   3.164 -0.2531  0.4552  0.2066
18452TIP3    H176847   5.331   5.747   3.122  1.5023 -0.6102 -1.6719
18452TIP3    H276848   5.409   5.638   3.192 -0.9959 -0.0170  2.2230
18453TIP3   OH276849   4.810   4.603   5.350  0.4550  0.7532 -0.8264
18453TIP3    H176850   4.758   4.533   5.390  0.0976  1.4610 -0.0422
18453TIP3    H276851   4.762   4.624   5.269 -0.1978  1.0368 -0.3720
18454TIP3   OH276852   1.340   4.985  14.699 -0.3034 -0.0564  0.0795
18454TIP3    H176853   1.340   5.081  14.708 -1.1189  0.0148 -0.6343
18454TIP3    H276854   1.367   4.953  14.785  1.7813  0.8596 -0.2006
18455TIP3   OH276855   4.804   1.258   4.871 -0.0045  0.1443 -0.6295
18455TIP3    H176856   4.789   1.291   4.959  0.1499 -0.2883 -0.4387
18455TIP3    H276857   4.895   1.278   4.852  0.1172 -0.2616 -0.4752
18456TIP3   OH276858   5.048   3.928   4.952  0.0409 -0.7301 -0.1332
18456TIP3    H176859   4.973   3.876   4.926 -1.1631  0.0931  1.5608
18456TIP3    H276860   5.010   4.005   4.996  1.8510 -0.1961  0.5507
18457TIP3   OH276861   2.895   4.629  16.040  0.4082  0.5073  0.2833
18457TIP3    H176862   2.917   4.702  15.982  0.2016  1.3727  1.2955
18457TIP3    H276863   2.836   4.575  15.988  1.6122  0.3490 -0.9523
18458TIP3   OH276864   3.828   0.881  11.816 -0.3820 -0.3882 -0.1720
18458TIP3    H176865   3.921   0.904  11.812 -0.2700 -0.5005  1.7216
18458TIP3    H276866   3.790   0.943  11.878 -1.6070 -0.2894 -0.9881
18459TIP3   OH276867   6.799   1.993   4.076  0.1387  0.3218  0.2315
18459TIP3    H176868   6.802   2.002   3.981 -0.4704 -1.2170  0.0450
18459TIP3    H276869   6.789   2.082   4.109 -2.8932  0.6038 -1.2863
18460TIP3   OH276870   2.316   2.300   1.094  0.3813  0.4869  0.1376
18460TIP3    H176871   2.282   2.353   1.166  1.1489 -0.7359  1.4240
18460TIP3    H276872   2.398   2.343   1.069 -0.1403  1.2033 -0.3547
18461TIP3   OH276873   2.824   4.892   2.971  0.0207 -0.3276 -0.3918
18461TIP3    H176874   2.910   4.929   2.988  0.2102 -1.4656  1.3315
18461TIP3    H276875   2.775   4.906   3.052 -0.7876 -1.3410 -0.6794
18462TIP3   OH276876   2.164   2.986  11.824 -0.2890 -0.0978  0.1576
18462TIP3    H176877   2.153   3.072  11.864  0.7901 -0.1128  0.5034
18462TIP3    H276878   2.076   2.960  11.799 -0.1880  3.1129 -4.1576
18463TIP3   OH276879   0.947   2.479  17.125 -0.3349  0.5452  0.2158
18463TIP3    H176880   0.958   2.431  17.207 -1.4053  0.2524  0.1914
18463TIP3    H276881   1.010   2.439  17.065 -0.4723 -0.1036  0.5075
18464TIP3   OH276882   1.388   6.154   2.122  0.1915  0.2928  0.8173
18464TIP3    H176883   1.388   6.237   2.170  2.3767 -0.2225  1.7691
18464TIP3    H276884   1.472   6.152   2.077 -0.3199 -0.9006 -0.1190
18465TIP3   OH276885   2.878   5.710   0.130 -0.0549  0.3051 -0.0258
18465TIP3    H176886   2.926   5.632   0.157 -1.3574  0.5300  3.1559
18465TIP3    H276887   2.912   5.730   0.043  1.6392 -2.7044 -0.1286
18466TIP3   OH276888   3.401   0.769   0.214 -0.9881 -0.5993  0.1515
18466TIP3    H176889   3.479   0.749   0.266 -1.1637 -0.4782  0.4639
18466TIP3    H276890   3.390   0.864   0.222  0.1003 -0.3032 -1.6978
18467TIP3   OH276891   4.991   0.498   4.572  0.0476 -0.2965 -0.1119
18467TIP3    H176892   5.001   0.495   4.667 -0.5696 -0.8271 -0.0586
18467TIP3    H276893   5.029   0.581   4.546 -0.6350  0.2825  0.7097
18468TIP3   OH276894   0.542   1.175  12.415  0.5204 -0.1910  0.5032
18468TIP3    H176895   0.565   1.127  12.336 -0.7483  0.3976 -0.2346
18468TIP3    H276896   0.481   1.243  12.385  1.3438  1.1209  1.7102
18469TIP3   OH276897   5.493   2.442  16.412  0.2723 -0.1979  0.3129
18469TIP3    H176898   5.510   2.416  16.502 -1.1970  0.6385  0.8382
18469TIP3    H276899   5.399   2.428  16.400 -0.0324  2.2247 -0.2505
18470TIP3   OH276900   6.117   3.465  17.198 -0.3873  0.2649 -0.1292
18470TIP3    H176901   6.194   3.444  17.145 -0.2270  0.1178  0.1610
18470TIP3    H276902   6.047   3.481  17.134 -0.4875 -1.0356 -0.3605
18471TIP3   OH276903   1.288   0.416  15.175 -0.2114 -0.1509  0.1143
18471TIP3    H176904   1.252   0.471  15.244  0.6951  1.1416 -0.4410
18471TIP3    H276905   1.366   0.462  15.145 -1.2459 -0.1101 -2.6022
18472TIP3   OH276906   2.536   1.732  14.932 -0.3457 -0.2379  0.1487
18472TIP3    H176907   2.504   1.687  15.010 -0.4829  0.9719  0.8015
18472TIP3    H276908   2.457   1.746  14.879 -0.4305  0.0169  0.3447
18473TIP3   OH276909   5.911   2.336  13.326  0.1821  0.2238  0.1708
18473TIP3    H176910   5.828   2.380  13.307 -1.2768 -2.3926  0.3054
18473TIP3    H276911   5.906   2.314  13.419  0.9792 -0.0593  0.1538
18474TIP3   OH276912   1.494   6.369  14.058  0.2179  0.6788  0.0780
18474TIP3    H176913   1.549   6.425  14.114 -1.8029  1.7174  1.0686
18474TIP3    H276914   1.409   6.413  14.056 -1.2376 -2.0228  0.3120
18475TIP3   OH276915   4.449   2.732   1.446 -0.9382 -0.6380  0.0769
18475TIP3    H176916   4.421   2.704   1.359 -1.8475 -2.1483  0.8396
18475TIP3    H276917   4.373   2.774   1.484 -0.1812  1.1208 -0.2826
18476TIP3   OH276918   1.326   0.806   1.594  0.0722  0.0440  0.3948
18476TIP3    H176919   1.307   0.848   1.678  0.4038  0.5139  0.2382
18476TIP3    H276920   1.241   0.802   1.550  0.3829  2.5542 -0.4937
18477TIP3   OH276921   6.750   4.915  14.439  0.1326 -0.0507  0.6079
18477TIP3    H176922   6.719   4.988  14.384  1.2831 -0.9389 -1.2684
18477TIP3    H276923   6.772   4.846  14.377  0.2471 -1.5586  2.2961
18478TIP3   OH276924   6.577   1.961  10.798 -0.0756 -0.4390 -0.3727
18478TIP3    H176925   6.655   1.910  10.778 -0.2288 -1.0983  0.7016
18478TIP3    H276926   6.611   2.049  10.818  0.3126 -0.5064 -0.7197
18479TIP3   OH276927   3.661   6.784   4.899 -0.2654  0.4632  0.0369
18479TIP3    H176928   3.594   6.716   4.903 -0.6568  0.7916 -0.7758
18479TIP3    H276929   3.701   6.773   4.813 -0.0724  1.0069  0.0555
18480TIP3   OH276930   3.503   2.969   5.320  0.0007  0.0063 -0.1999
18480TIP3    H176931   3.534   2.887   5.282  1.0444 -0.4346  1.5684
18480TIP3    H276932   3.575   3.030   5.309 -0.6405  0.5925 -1.1902
18481TIP3   OH276933   6.400   0.567   3.224 -0.0281 -0.3022  0.2495
18481TIP3    H176934   6.341   0.642   3.211  0.2507  0.1678  1.5849
18481TIP3    H276935   6.468   0.579   3.158  0.0274  0.6413  0.4639
18482TIP3   OH276936   0.598   0.024   2.289  0.0144 -0.0879 -0.2293
18482TIP3    H176937   0.598   0.119   2.296  2.9174  0.0252 -0.9998
18482TIP3    H276938   0.691   0.001   2.282 -0.7812 -2.7635 -2.8092
18483TIP3   OH276939   3.842   4.814  16.696 -0.0006 -0.0045  0.1951
18483TIP3    H176940   3.785   4.744  16.663 -0.8983 -0.1582  2.0038
18483TIP3    H276941   3.814   4.892  16.647 -0.9614 -0.3270  0.2194
18484TIP3   OH276942   0.939   6.420   1.915  0.6560 -0.4157  0.0101
18484TIP3    H176943   1.001   6.490   1.895 -0.8735  1.7029  2.2361
18484TIP3    H276944   0.856   6.466   1.931 -0.8187 -2.9130 -0.1395
18485TIP3   OH276945   6.549   4.245  16.597 -0.2138 -0.3966  0.3413
18485TIP3    H176946   6.497   4.242  16.517 -0.1264 -0.7389  0.2946
18485TIP3    H276947   6.593   4.330  16.595  0.6205 -0.8381 -0.5109
18486TIP3   OH276948   1.382   1.667   1.140  0.2093 -0.2327  0.4882
18486TIP3    H176949   1.378   1.630   1.228  0.2830 -0.1608  0.5212
18486TIP3    H276950   1.295   1.649   1.103 -0.5739  1.6638  1.3539
18487TIP3   OH276951   2.327   4.960   6.090 -0.1862 -0.5113 -0.2337
18487TIP3    H176952   2.368   4.925   6.169  0.5176  1.4879  0.3154
18487TIP3    H276953   2.235   4.974   6.114  0.1689  0.6878  0.4337
18488TIP3   OH276954   3.231   6.745  11.956 -0.1196  0.2805  0.7426
18488TIP3    H176955   3.203   6.700  11.876 -0.5326 -2.5811  2.4169
18488TIP3    H276956   3.153   6.749  12.010  0.9167 -0.9601  2.3873
18489TIP3   OH276957   0.805   0.046   3.858  0.4182 -0.1231  0.2890
18489TIP3    H176958   0.746   0.117   3.882  1.8778  1.2342 -0.0644
18489TIP3    H276959   0.765   0.006   3.781  0.2211  1.0860 -0.2348
18490TIP3   OH276960   6.309   4.078  16.840 -0.0816  0.3674  0.2166
18490TIP3    H176961   6.294   4.008  16.904 -0.4038 -0.8786 -1.2008
18490TIP3    H276962   6.312   4.033  16.756 -1.9085  2.2461 -0.8854
18491TIP3   OH276963   4.103   2.867   2.470 -1.1431  0.0879  0.3529
18491TIP3    H176964   4.038   2.936   2.481 -0.3060  0.9432 -0.0140
18491TIP3    H276965   4.113   2.859   2.375 -2.5554 -1.8034  0.3215
18492TIP3   OH276966   0.298   3.436  14.830 -0.4753  0.3083 -0.3054
18492TIP3    H176967   0.206   3.456  14.847 -0.5758 -0.3207 -0.0707
18492TIP3    H276968   0.311   3.456  14.738 -0.1922  2.8234  0.2439
18493TIP3   OH276969   5.093   3.938  16.621 -0.3432 -0.5026 -0.1104
18493TIP3    H176970   5.084   3.998  16.695 -0.9316 -0.2427 -0.3836
18493TIP3    H276971   5.003   3.919  16.595 -0.1389  0.6415 -1.7336
18494TIP3   OH276972   4.473   1.374   5.335  0.1163 -0.1988 -0.2707
18494TIP3    H176973   4.480   1.461   5.373  1.2825 -0.1792 -0.5185
18494TIP3    H276974   4.439   1.320   5.406  0.0228  0.3152  0.0800
18495TIP3   OH276975   1.777   1.739  14.291  0.2831 -0.0801  0.1032
18495TIP3    H176976   1.847   1.719  14.230 -0.6916 -1.0945 -0.6944
18495TIP3    H276977   1.726   1.808  14.249  0.0281 -0.2807  0.0768
18496TIP3   OH276978   2.160   5.809  11.526  0.0541  0.1855  0.4306
18496TIP3    H176979   2.152   5.735  11.585  1.4063  0.3695  0.8730
18496TIP3    H276980   2.086   5.801  11.466  0.5228 -1.8603  0.0897
18497TIP3   OH276981   6.025   3.055  16.452 -0.0415 -0.4268  0.8511
18497TIP3    H176982   5.948   3.005  16.424  0.2918 -1.4419  1.7295
18497TIP3    H276983   6.065   3.001  16.520  1.3703  0.1598  0.4979
18498TIP3   OH276984   1.169   2.500   0.893  0.0133 -0.3100  0.2120
18498TIP3    H176985   1.261   2.484   0.914 -0.1481 -1.0983  0.3240
18498TIP3    H276986   1.125   2.501   0.977  0.2286  2.1556  0.3228
18499TIP3   OH276987   0.469   6.571  11.523  0.1630 -0.1724  0.4534
18499TIP3    H176988   0.451   6.661  11.495  0.5742 -0.3361 -0.3487
18499TIP3    H276989   0.531   6.580  11.595 -0.2263  0.2158  0.7413
18500TIP3   OH276990   3.848   1.913   3.851 -0.1154 -0.1946  0.3563
18500TIP3    H176991   3.806   1.847   3.796  0.2356 -1.0675  1.1208
18500TIP3    H276992   3.929   1.871   3.880 -0.7662 -0.1041  2.3153
18501TIP3   OH276993   1.811   1.751   3.237 -0.2057  0.4500 -0.0452
18501TIP3    H176994   1.754   1.680   3.265 -0.5337  1.2935  1.5226
18501TIP3    H276995   1.898   1.725   3.267 -0.2007  0.3659 -0.1333
18502TIP3   OH276996   4.964   2.107   4.206  0.6879  0.1592 -0.2355
18502TIP3    H176997   4.924   2.028   4.243  0.4920  0.8284  0.9953
18502TIP3    H276998   4.937   2.178   4.264  2.2829  0.8817 -0.3379
18503TIP3   OH276999   2.824   4.021  12.544  0.1087  0.4568 -0.6350
18503TIP3    H177000   2.797   4.091  12.485 -0.7841  0.8667  0.2492
18503TIP3    H277001   2.812   4.057  12.631  0.4080 -0.5178 -0.1866
18504TIP3   OH277002   4.723   5.730  17.017 -0.4011  0.0864 -0.0823
18504TIP3    H177003   4.650   5.755  16.960 -0.2751  0.9651  0.1344
18504TIP3    H277004   4.745   5.810  17.064  0.6319 -0.2042 -0.0601
18505TIP3   OH277005   3.910   3.841   5.467  0.4765  0.1259  0.7060
18505TIP3    H177006   3.902   3.919   5.520 -0.0148  0.2521  0.4487
18505TIP3    H277007   3.822   3.805   5.462  0.1886  1.0197 -1.3743
18506TIP3   OH277008   6.745   0.201  11.704 -0.4674  0.1282  0.6597
18506TIP3    H177009   6.664   0.155  11.682  1.1018 -1.7625 -1.3844
18506TIP3    H277010   6.728   0.292  11.681 -1.7783 -0.3798 -0.4512
18507TIP3   OH277011   6.421   6.646   5.891 -0.3463  0.6654  0.8250
18507TIP3    H177012   6.362   6.584   5.849 -0.0810  0.5168  0.6738
18507TIP3    H277013   6.506   6.603   5.890 -0.1882  0.9783  0.8354
18508TIP3   OH277014   6.278   3.363  14.181  0.4349  0.0445  0.5581
18508TIP3    H177015   6.328   3.383  14.101  0.1370  2.5737  0.9750
18508TIP3    H277016   6.186   3.367  14.153  0.3735 -1.2835  0.5457
18509TIP3   OH277017   0.528   0.338  13.913  0.1902  0.7757  0.2889
18509TIP3    H177018   0.613   0.293  13.914  0.1391  0.6305 -0.7750
18509TIP3    H277019   0.551   0.430  13.897  0.1807  0.8327  0.5996
18510TIP3   OH277020   3.335   1.280  15.320  0.2772 -0.3824  0.5744
18510TIP3    H177021   3.390   1.286  15.242 -1.6851 -0.2075 -0.8285
18510TIP3    H277022   3.254   1.240  15.290 -0.7772  0.3013  2.3848
18511TIP3   OH277023   3.631   2.741   4.683 -0.4460  0.4357  0.6435
18511TIP3    H177024   3.689   2.811   4.711 -0.8360  1.0900 -0.1646
18511TIP3    H277025   3.658   2.722   4.593 -1.0625  0.3032  0.4840
18512TIP3   OH277026   0.514   6.095   0.320 -0.2341  0.4688  0.3758
18512TIP3    H177027   0.554   6.019   0.279 -0.4965 -0.3047  1.5513
18512TIP3    H277028   0.513   6.075   0.413 -1.1592  1.5053  0.6002
18513TIP3   OH277029   3.841   5.176   1.140  0.5387 -0.1919 -0.0973
18513TIP3    H177030   3.766   5.201   1.086  0.7566  0.1949 -0.2187
18513TIP3    H277031   3.901   5.132   1.080  0.7221  0.1222 -0.1464
18514TIP3   OH277032   5.334   0.224   1.926  0.3754 -0.5582  0.0516
18514TIP3    H177033   5.305   0.191   2.011  1.0638  0.0954  0.5552
18514TIP3    H277034   5.254   0.250   1.881 -0.2004 -3.1227 -0.4644
18515TIP3   OH277035   2.728   1.973   5.620 -0.0351 -0.2484 -0.1339
18515TIP3    H177036   2.707   2.066   5.629  0.4482 -0.0893 -0.6393
18515TIP3    H277037   2.755   1.946   5.708  1.0217  0.3831 -0.2622
18516TIP3   OH277038   3.647   1.338   4.222  0.4669 -0.0234 -0.0566
18516TIP3    H177039   3.621   1.266   4.164  1.2800 -0.8171  0.5668
18516TIP3    H277040   3.741   1.327   4.234  0.8590  1.9614 -1.0788
18517TIP3   OH277041   1.510   6.287  12.966 -0.3964 -0.4087 -0.0517
18517TIP3    H177042   1.530   6.211  12.912  0.0209 -0.1050 -0.3224
18517TIP3    H277043   1.593   6.333  12.975 -0.6985  0.1523 -0.0948
18518TIP3   OH277044   5.771   0.461  10.889 -0.1333  0.6419 -0.1422
18518TIP3    H177045   5.823   0.384  10.913  0.3369  0.7479 -0.8023
18518TIP3    H277046   5.783   0.469  10.794 -0.5737  1.2391 -0.1473
18519TIP3   OH277047   2.416   1.924   4.636  0.0984  0.4247  0.4618
18519TIP3    H177048   2.416   1.966   4.721 -1.1921 -0.6875  1.0326
18519TIP3    H277049   2.504   1.886   4.627  0.4736  1.1761  0.9608
18520TIP3   OH277050   3.489   6.759   3.612 -0.3257 -0.1980  0.2230
18520TIP3    H177051   3.422   6.719   3.667 -1.5240 -0.9297 -1.7161
18520TIP3    H277052   3.572   6.737   3.655 -1.1170 -2.5402  0.6269
18521TIP3   OH277053   0.442   6.667   1.268  0.3418 -0.8529 -0.6291
18521TIP3    H177054   0.377   6.597   1.266  1.5085 -1.9333 -1.1558
18521TIP3    H277055   0.500   6.649   1.195 -0.4273  1.7608 -1.9522
18522TIP3   OH277056   6.297   5.950   3.698  0.5888  0.2711 -0.0317
18522TIP3    H177057   6.216   5.969   3.745 -0.0395 -0.8154 -0.6761
18522TIP3    H277058   6.269   5.907   3.617  1.7876  0.2158 -0.4295
18523TIP3   OH277059   4.724   4.439   5.107  0.6068 -0.3339  0.8245
18523TIP3    H177060   4.802   4.431   5.052  0.0573 -0.3042  0.0392
18523TIP3    H277061   4.680   4.518   5.076 -1.3083 -1.9591 -0.7655
18524TIP3   OH277062   3.673   6.470   5.239  0.3262  0.4646  0.3620
18524TIP3    H177063   3.754   6.520   5.246  0.7525 -0.1033 -0.5275
18524TIP3    H277064   3.672   6.437   5.149 -0.7736  0.2711  0.4328
18525TIP3   OH277065   2.141   6.290   4.300 -0.3378 -0.2481 -0.2036
18525TIP3    H177066   2.198   6.289   4.376 -0.4071  2.0464 -0.0889
18525TIP3    H277067   2.173   6.218   4.245  0.3988 -1.2191  1.4745
18526TIP3   OH277068   2.822   4.627  10.710 -0.8205 -0.0931  0.4868
18526TIP3    H177069   2.744   4.654  10.759 -1.7525 -0.6774 -0.6544
18526TIP3    H277070   2.892   4.683  10.745 -2.0537  1.5398  0.4495
18527TIP3   OH277071   6.020   5.719  13.341  0.6662 -0.2794  0.0888
18527TIP3    H177072   5.968   5.639  13.353  0.6781 -0.1748  0.8700
18527TIP3    H277073   5.961   5.790  13.368  0.4018  0.0388 -1.3189
18528TIP3   OH277074   6.678   5.218   4.491  0.8635  0.1345 -0.6102
18528TIP3    H177075   6.707   5.128   4.478  0.9024  0.0906 -0.2241
18528TIP3    H277076   6.605   5.212   4.552  1.7585  0.4805  0.5216
18529TIP3   OH277077   6.206   4.010   2.030 -0.3216 -0.1064  0.2808
18529TIP3    H177078   6.118   3.998   2.066 -1.2035  0.3560 -1.6255
18529TIP3    H277079   6.261   4.026   2.106 -2.1053  0.8094  1.4234
18530TIP3   OH277080   1.226   1.301  15.427 -0.0264  0.1565 -0.2527
18530TIP3    H177081   1.278   1.368  15.381 -1.2546  2.7931  2.0106
18530TIP3    H277082   1.137   1.336  15.425 -0.3232 -0.3094  2.8905
18531TIP3   OH277083   0.996   0.962  17.017 -0.0768 -0.1896 -0.6774
18531TIP3    H177084   1.052   1.038  17.034 -0.3230  0.0457 -0.9062
18531TIP3    H277085   1.047   0.887  17.048 -1.2058  0.3427  2.6850
18532TIP3   OH277086   3.484   4.027   1.054  0.1943 -0.1558 -0.5806
18532TIP3    H177087   3.575   3.999   1.061 -0.2326 -1.4894 -0.1531
18532TIP3    H277088   3.473   4.093   1.122  0.5605 -0.7628  0.0666
18533TIP3   OH277089   0.883   1.352  16.513  0.2105  0.2374 -0.0167
18533TIP3    H177090   0.804   1.405  16.517 -0.3829 -0.7789  2.2669
18533TIP3    H277091   0.946   1.399  16.567  0.2193 -0.5106  0.6252
18534TIP3   OH277092   1.255   0.571  13.283  0.3695  0.7271  0.1239
18534TIP3    H177093   1.330   0.622  13.312  0.2579  1.8162 -1.4641
18534TIP3    H277094   1.194   0.635  13.246 -0.6859 -0.3040  0.0319
18535TIP3   OH277095   1.197   0.380   4.575  0.1030  0.3710 -0.0114
18535TIP3    H177096   1.127   0.411   4.519  0.3354  1.4528  0.2783
18535TIP3    H277097   1.277   0.395   4.525  0.2014  0.0568  0.0516
18536TIP3   OH277098   3.339   1.237  17.091  0.1735  0.1215 -0.4991
18536TIP3    H177099   3.300   1.152  17.112 -0.0381 -0.0527 -1.5646
18536TIP3    H277100   3.402   1.253  17.162 -3.3889  1.4690  2.4942
18537TIP3   OH277101   2.328   2.135   6.650 -0.4766  0.1759 -0.5323
18537TIP3    H177102   2.271   2.116   6.575 -0.0585  0.6409 -0.9699
18537TIP3    H277103   2.411   2.093   6.627 -0.8747 -1.1921  0.4663
18538TIP3   OH277104   2.183   3.289  16.002  0.0460 -0.4352 -0.5302
18538TIP3    H177105   2.224   3.206  15.979  0.0760  0.0374 -2.2748
18538TIP3    H277106   2.132   3.313  15.925  0.5730  1.4737 -0.3175
18539TIP3   OH277107   1.913   2.326  11.595  0.6177 -0.2413 -0.0608
18539TIP3    H177108   1.818   2.321  11.599  0.8141 -3.1836  1.7285
18539TIP3    H277109   1.936   2.396  11.657 -0.3372  0.4035 -0.4203
18540TIP3   OH277110   2.380   4.972   5.385  0.1004  0.1280 -0.3624
18540TIP3    H177111   2.455   4.944   5.332  0.1852 -0.1746 -0.0811
18540TIP3    H277112   2.327   5.024   5.325 -0.1557 -0.8046 -0.9396
18541TIP3   OH277113   3.926   2.681   2.808 -0.2198  0.3842 -0.1927
18541TIP3    H177114   3.879   2.695   2.891 -1.6679 -1.7480 -0.6098
18541TIP3    H277115   3.893   2.749   2.750 -1.7278 -0.2048 -0.0363
18542TIP3   OH277116   0.489   3.146   1.256  0.3309 -0.0405 -0.2985
18542TIP3    H177117   0.518   3.058   1.233  2.0674  0.1129  1.1573
18542TIP3    H277118   0.485   3.193   1.173  0.3580 -1.2174 -0.9703
18543TIP3   OH277119   3.500   3.516   1.992  0.0026 -0.0387  0.2533
18543TIP3    H177120   3.511   3.434   2.040 -0.7778  0.5808  1.5266
18543TIP3    H277121   3.463   3.576   2.056 -1.6210  0.6533 -1.3027
18544TIP3   OH277122   0.692   5.554   0.138 -0.2787  0.2917  0.2795
18544TIP3    H177123   0.751   5.540   0.212  0.0902  1.2241  0.1717
18544TIP3    H277124   0.737   5.619   0.084 -1.2380  0.7215 -0.0035
18545TIP3   OH277125   1.075   3.872  17.128  0.2572 -0.0854 -0.2743
18545TIP3    H177126   1.081   3.781  17.098 -1.0104  0.1499 -1.3213
18545TIP3    H277127   1.031   3.918  17.056  1.6251  1.5335 -0.1118
18546TIP3   OH277128   4.074   5.218  13.779  0.3108  0.3976  0.5329
18546TIP3    H177129   4.140   5.253  13.719  0.7832  0.5199  1.1226
18546TIP3    H277130   4.025   5.155  13.726  0.0100  1.3126 -0.2998
18547TIP3   OH277131   6.754   3.810  12.436 -0.4846 -0.1193  0.3610
18547TIP3    H177132   6.797   3.793  12.353 -0.0851 -3.9963  1.2722
18547TIP3    H277133   6.661   3.794  12.419 -0.8113  2.0174 -0.0254
18548TIP3   OH277134   6.712   3.070   4.937  0.1747 -0.1497 -0.2797
18548TIP3    H177135   6.799   3.029   4.931  0.2248 -0.1478  0.4133
18548TIP3    H277136   6.661   3.026   4.869 -0.0109 -1.9909  1.0116
18549TIP3   OH277137   0.899   4.841  15.821 -0.1718  0.6465 -0.1259
18549TIP3    H177138   0.964   4.849  15.751  0.1779 -1.5273 -0.1080
18549TIP3    H277139   0.845   4.919  15.812  2.1133  2.2571 -0.4657
18550TIP3   OH277140   4.016   5.879  11.563 -0.6332 -0.3073  0.0857
18550TIP3    H177141   3.923   5.898  11.549 -0.4029  0.8925  0.1211
18550TIP3    H277142   4.049   5.956  11.610  1.2612  1.1864 -3.4580
18551TIP3   OH277143   3.639   0.695   3.699  0.6155  0.3200 -0.2858
18551TIP3    H177144   3.605   0.629   3.639  0.8259 -0.7833  0.7932
18551TIP3    H277145   3.733   0.698   3.680  0.3912  1.2475 -1.2372
18552TIP3   OH277146   2.951   5.768  13.698 -0.4647  0.4985 -0.7853
18552TIP3    H177147   2.909   5.831  13.757 -0.0159  0.6367 -0.6087
18552TIP3    H277148   2.934   5.803  13.611 -1.8630 -0.1632 -0.7878
18553TIP3   OH277149   5.853   3.917  16.390 -0.6560 -0.1816 -0.0669
18553TIP3    H177150   5.865   3.999  16.343 -0.8551 -0.8801 -1.3593
18553TIP3    H277151   5.918   3.858  16.351 -1.5617 -1.0884 -0.2258
18554TIP3   OH277152   5.590   4.415  13.768 -0.3618  0.2825 -0.4016
18554TIP3    H177153   5.661   4.469  13.802 -0.6529  1.0173 -0.9393
18554TIP3    H277154   5.520   4.478  13.747 -1.9018 -0.5757  1.8883
18555TIP3   OH277155   5.486   3.130   1.989  0.3636  0.6372 -0.5565
18555TIP3    H177156   5.563   3.172   1.950 -0.0116  0.8169 -1.1111
18555TIP3    H277157   5.497   3.144   2.083  1.8366 -0.7720 -0.4934
18556TIP3   OH277158   1.391   1.945   2.424  0.1225  0.2337 -0.5832
18556TIP3    H177159   1.459   1.884   2.453 -0.6800 -0.4915 -0.2088
18556TIP3    H277160   1.326   1.943   2.493 -0.3931  0.7569 -1.0517
18557TIP3   OH277161   4.389   2.991  13.682  0.6064 -0.1232 -0.2412
18557TIP3    H177162   4.384   2.914  13.738  0.5115  0.5202  0.6426
18557TIP3    H277163   4.326   3.053  13.719  0.2118  0.1392 -1.3239
18558TIP3   OH277164   6.306   1.911  13.895  0.0660 -0.5470  0.3763
18558TIP3    H177165   6.243   1.839  13.897 -0.1145 -0.3704  1.1396
18558TIP3    H277166   6.273   1.970  13.827 -0.0370 -0.9576  0.0723
18559TIP3   OH277167   2.770   0.854   5.230 -0.0384 -0.4696 -0.1150
18559TIP3    H177168   2.740   0.922   5.291  0.9656  0.3387 -0.5057
18559TIP3    H277169   2.825   0.901   5.168  0.3201 -1.5840 -0.6422
18560TIP3   OH277170   5.132   3.298   1.095  0.2736  0.6761  0.5015
18560TIP3    H177171   5.097   3.214   1.065 -0.5488  0.8637  0.9163
18560TIP3    H277172   5.073   3.325   1.165  0.2411  1.8500  0.0297
18561TIP3   OH277173   1.658   4.664  16.103  0.0273 -0.3268  0.7573
18561TIP3    H177174   1.571   4.648  16.140 -0.4941 -0.1600 -0.3839
18561TIP3    H277175   1.642   4.713  16.022  1.0633 -1.6861 -0.3049
18562TIP3   OH277176   0.453   4.989  14.554  0.1981  0.2425 -0.2629
18562TIP3    H177177   0.375   4.948  14.591  0.2894 -0.1301 -0.4782
18562TIP3    H277178   0.504   5.017  14.630  0.4794 -0.6978 -0.1091
18563TIP3   OH277179   6.626   0.526  15.255  0.0808 -0.0913 -0.3946
18563TIP3    H177180   6.606   0.594  15.319 -0.4608  0.0866 -0.7574
18563TIP3    H277181   6.607   0.566  15.170  0.6206 -0.3903 -0.6589
18564TIP3   OH277182   4.125   3.669  11.094 -0.2156  0.3965  0.5557
18564TIP3    H177183   4.031   3.656  11.106  0.0178 -1.6271  0.3944
18564TIP3    H277184   4.137   3.670  10.999 -0.1711  1.4048  0.5736
18565TIP3   OH277185   4.925   4.900   4.988 -0.1263  0.1953 -0.3311
18565TIP3    H177186   5.013   4.915   4.953  0.1298 -1.4195 -0.4253
18565TIP3    H277187   4.867   4.945   4.928  0.5919  0.7389 -0.6303
18566TIP3   OH277188   2.911   1.572   0.852  0.6095  0.0552 -1.0462
18566TIP3    H177189   2.953   1.611   0.775 -0.7002 -0.4456 -2.0389
18566TIP3    H277190   2.942   1.481   0.853 -0.1727 -0.2253 -1.5939
18567TIP3   OH277191   0.909   6.399  16.766  0.0776  0.0270  0.0593
18567TIP3    H177192   0.855   6.324  16.739 -0.5747  0.9729 -1.3398
18567TIP3    H277193   0.986   6.394  16.710 -0.1871  0.6569 -0.3714
18568TIP3   OH277194   5.335   3.724  15.324 -0.2819  0.0963  0.2169
18568TIP3    H177195   5.372   3.759  15.405  0.2173  0.3027 -0.1002
18568TIP3    H277196   5.280   3.795  15.291 -0.4457  0.0308  0.3464
18569TIP3   OH277197   0.110   3.010  14.846  0.2755  0.1892 -0.5470
18569TIP3    H177198   0.112   2.915  14.852 -0.7640  0.3453  3.2623
18569TIP3    H277199   0.175   3.040  14.909 -1.3927  2.0345  0.3388
18570TIP3   OH277200   5.482   0.200  11.507  0.5256  0.2855 -0.2719
18570TIP3    H177201   5.529   0.117  11.507 -1.8995 -1.1768  3.0385
18570TIP3    H277202   5.424   0.195  11.430  0.7293 -0.8595 -0.3579
18571TIP3   OH277203   5.500   0.337  13.192  0.3640  0.4518  0.4073
18571TIP3    H177204   5.475   0.297  13.110 -1.2260  0.4882  0.8613
18571TIP3    H277205   5.471   0.276  13.259  2.4168  0.0083  0.9326
18572TIP3   OH277206   0.879   4.503  13.918  0.3128  0.0658 -0.4477
18572TIP3    H177207   0.965   4.535  13.891  0.3711  0.0067 -0.3306
18572TIP3    H277208   0.829   4.582  13.937  0.8334  0.0477  1.0199
18573TIP3   OH277209   2.373   2.390  11.758  0.3659  0.1048 -0.0048
18573TIP3    H177210   2.382   2.392  11.853  1.0098  0.5451 -0.0674
18573TIP3    H277211   2.463   2.377  11.726 -0.2650 -3.8810 -0.4488
18574TIP3   OH277212   4.262   6.306  13.065  0.3209  0.7920  0.1558
18574TIP3    H177213   4.336   6.366  13.070  0.3130  0.8761 -0.7631
18574TIP3    H277214   4.301   6.219  13.063  0.4242  0.8552 -0.9009
18575TIP3   OH277215   4.413   4.450  15.536  0.9106 -0.4693 -0.0564
18575TIP3    H177216   4.492   4.397  15.534 -0.0883 -2.0324  1.3851
18575TIP3    H277217   4.373   4.439  15.450 -0.4562 -3.8957  0.9519
18576TIP3   OH277218   6.334   5.189  16.775 -0.2584  0.1376  0.2739
18576TIP3    H177219   6.402   5.122  16.780  0.0622  0.4433  0.0846
18576TIP3    H277220   6.273   5.167  16.845 -1.1318 -1.4024 -0.9333
18577TIP3   OH277221   6.769   3.503   3.753  0.2864  0.1076 -0.0326
18577TIP3    H177222   6.797   3.436   3.814  1.1155  1.0073  0.5953
18577TIP3    H277223   6.753   3.580   3.808 -0.1269  0.5740 -0.7984
18578TIP3   OH277224   2.018   0.524  11.482  0.1209  0.1638  0.0280
18578TIP3    H177225   1.948   0.460  11.498  0.1820  0.1640  0.2857
18578TIP3    H277226   2.096   0.485  11.520  0.0513  0.6307  0.6524
18579TIP3   OH277227   6.393   2.515   4.097 -0.2833  0.4632  0.5158
18579TIP3    H177228   6.401   2.466   4.015 -1.9313 -0.8458  1.1234
18579TIP3    H277229   6.328   2.582   4.078 -0.5291  0.2753  0.6927
18580TIP3   OH277230   3.495   0.171   1.649 -0.0221 -0.4810 -0.7744
18580TIP3    H177231   3.504   0.210   1.562  0.0246 -1.4927 -1.2321
18580TIP3    H277232   3.426   0.221   1.692  1.4089  1.4048 -0.6157
18581TIP3   OH277233   0.921   1.897  16.405  0.6000  0.2207 -0.0561
18581TIP3    H177234   0.995   1.951  16.434  1.5640 -1.2036  0.1712
18581TIP3    H277235   0.958   1.841  16.337 -0.3516 -0.2932 -0.1463
18582TIP3   OH277236   4.499   5.919   0.498  0.1203  0.1579 -0.9703
18582TIP3    H177237   4.451   5.837   0.489 -0.6173  0.5183 -0.3759
18582TIP3    H277238   4.588   5.892   0.521 -0.2587 -0.4499 -0.2077
18583TIP3   OH277239   0.022   3.294  10.731 -0.8199 -0.0964  0.3973
18583TIP3    H177240  -0.034   3.363  10.696 -1.5948 -0.5068  0.7952
18583TIP3    H277241   0.109   3.332  10.734 -0.8766  0.1807 -1.2686
18584TIP3   OH277242   4.735   4.347  13.243  1.0253 -0.7166  1.0736
18584TIP3    H177243   4.704   4.256  13.248 -0.4079 -0.3429 -0.5683
18584TIP3    H277244   4.728   4.369  13.150  2.6625  0.6479  1.2571
18585TIP3   OH277245   5.154   5.306  14.519 -0.3412  0.0299  0.1646
18585TIP3    H177246   5.229   5.250  14.542  1.7855  2.5638 -0.3548
18585TIP3    H277247   5.122   5.337  14.604  0.0126 -0.0181  0.3186
18586TIP3   OH277248   0.559   5.152   5.548  0.3503  0.3762 -0.5378
18586TIP3    H177249   0.522   5.225   5.597  1.3178  0.3366  0.2717
18586TIP3    H277250   0.529   5.074   5.595  1.0700  0.3294 -0.1522
18587TIP3   OH277251   2.639   1.932   6.044  0.2718  0.5118  0.3092
18587TIP3    H177252   2.557   1.955   6.001 -0.5967  1.1017  2.2396
18587TIP3    H277253   2.615   1.917   6.135  2.3320  0.8642  0.9330
18588TIP3   OH277254   3.836   1.892   1.190 -0.3827 -0.2257 -0.2125
18588TIP3    H177255   3.914   1.895   1.134 -0.5216 -1.3795 -0.4915
18588TIP3    H277256   3.826   1.981   1.222  1.2716 -0.1280  0.1132
18589TIP3   OH277257   2.175   1.637  11.308  0.1082  0.6198  0.4799
18589TIP3    H177258   2.147   1.609  11.221  0.5493 -0.7737  0.7738
18589TIP3    H277259   2.268   1.614  11.312  1.0848  4.2670 -0.1098
18590TIP3   OH277260   4.082   5.610  11.129 -0.0176  0.0958 -0.3690
18590TIP3    H177261   4.132   5.656  11.061 -0.8079 -0.0721 -1.0632
18590TIP3    H277262   3.992   5.642  11.119 -0.8918 -2.6178 -1.7862
18591TIP3   OH277263   4.248   2.880  16.387 -0.3270  0.4768  0.3531
18591TIP3    H177264   4.250   2.883  16.483  0.8325 -0.3957  0.3687
18591TIP3    H277265   4.325   2.930  16.360 -0.1109 -0.1074 -0.1040
18592TIP3   OH277266   4.191   6.489  17.057 -0.0337  0.5742  0.5213
18592TIP3    H177267   4.154   6.443  16.981  1.1038  0.3801  0.0785
18592TIP3    H277268   4.121   6.548  17.085  0.1045  1.8678 -1.6986
18593TIP3   OH277269   3.624   6.450   6.250  0.1546  0.0896 -0.1060
18593TIP3    H177270   3.645   6.360   6.230 -1.6374 -0.5723  0.8287
18593TIP3    H277271   3.673   6.469   6.330 -1.8737 -1.0971  1.4679
18594TIP3   OH277272   2.084   4.311  14.891 -0.0474  0.1355 -0.0817
18594TIP3    H177273   1.996   4.301  14.928  0.6568 -0.7724  1.3980
18594TIP3    H277274   2.088   4.403  14.865 -1.2138  0.3462  0.4454
18595TIP3   OH277275   1.074   3.165  10.901 -0.4503 -0.2624 -0.5337
18595TIP3    H177276   0.999   3.161  10.843  1.2045 -1.6852 -2.6474
18595TIP3    H277277   1.092   3.073  10.922 -1.5462  0.2490  2.9847
18596TIP3   OH277278   2.638   5.653  10.661 -0.4938 -0.0763 -0.2581
18596TIP3    H177279   2.647   5.605  10.579 -0.5121 -1.2581  0.4208
18596TIP3    H277280   2.617   5.586  10.726 -1.6776  0.9989  0.4914
18597TIP3   OH277281   2.283   5.898   1.785 -0.4226  0.2634  0.2589
18597TIP3    H177282   2.294   5.887   1.879 -0.3666 -0.9489  0.1251
18597TIP3    H277283   2.191   5.881   1.769 -0.2348 -0.5005 -0.0270
18598TIP3   OH277284   2.268   0.963   4.945  0.5634 -0.4954  0.2569
18598TIP3    H177285   2.204   0.929   5.007 -0.4607  1.5600  0.3970
18598TIP3    H277286   2.353   0.938   4.982 -0.1180 -1.9065  0.8922
18599TIP3   OH277287   1.072   4.094  14.417  0.3658 -0.1249  0.0694
18599TIP3    H177288   1.030   4.179  14.415 -0.6448 -0.5877  1.3755
18599TIP3    H277289   1.115   4.087  14.331 -1.2410  0.8267 -0.8361
18600TIP3   OH277290   5.523   2.673  14.947  0.5033 -0.1750  0.0402
18600TIP3    H177291   5.595   2.721  14.906  0.5724 -0.7393 -0.5010
18600TIP3    H277292   5.464   2.741  14.980 -0.7196  0.3199 -3.0031
18601TIP3   OH277293   2.520   5.541   5.391  0.2413  0.1909  0.0779
18601TIP3    H177294   2.559   5.588   5.465  0.2785 -1.9070  1.4531
18601TIP3    H277295   2.426   5.557   5.399 -0.0548 -2.2256  2.2736
18602TIP3   OH277296   1.316   3.901   0.738  0.2305 -0.5126  0.4382
18602TIP3    H177297   1.305   3.987   0.697  1.7559 -0.2375  0.5511
18602TIP3    H277298   1.373   3.918   0.813  2.1809 -1.9203 -0.6861
18603TIP3   OH277299   2.903   4.131  17.182 -0.0525 -0.2165 -0.0159
18603TIP3    H177300   2.828   4.190  17.176  0.7740  1.1691  2.6701
18603TIP3    H277301   2.873   4.051  17.140 -2.9186  0.4372  0.6590
18604TIP3   OH277302   5.303   4.370   2.915  0.5494 -0.0860 -0.6125
18604TIP3    H177303   5.245   4.407   2.981 -0.2394  1.7508 -2.2875
18604TIP3    H277304   5.390   4.377   2.954  0.0473  0.6037  0.4166
18605TIP3   OH277305   1.316   0.893  14.411  0.2804  0.0593  0.2642
18605TIP3    H177306   1.273   0.959  14.356  0.0236  0.1632  0.5881
18605TIP3    H277307   1.296   0.810  14.369  0.5473  0.1799 -0.1095
18606TIP3   OH277308   6.205   0.991   1.211  0.4189  0.0943  0.2523
18606TIP3    H177309   6.190   1.009   1.304  0.6266  0.1446  0.2760
18606TIP3    H277310   6.273   0.924   1.211 -0.3649 -0.7150  0.1678
18607TIP3   OH277311   6.631   3.860   4.772 -0.2027 -0.2636 -0.1070
18607TIP3    H177312   6.695   3.911   4.723 -1.5801  0.7052 -0.9381
18607TIP3    H277313   6.679   3.784   4.803  1.5217  0.8099 -0.1002
18608TIP3   OH277314   3.153   0.883  11.813  0.0203 -0.4159 -0.0055
18608TIP3    H177315   3.235   0.835  11.830  0.2506 -0.7232 -1.8918
18608TIP3    H277316   3.178   0.975  11.814  0.2059 -0.4669  0.3036
18609TIP3   OH277317   0.828   2.776  11.875 -0.0541 -0.5042  0.7455
18609TIP3    H177318   0.901   2.733  11.831 -1.1247 -2.9025  1.2672
18609TIP3    H277319   0.870   2.837  11.936  1.4730 -0.8508  0.0576
18610TIP3   OH277320   1.445   6.423  13.239  0.4976  0.6955  0.5818
18610TIP3    H177321   1.445   6.513  13.205  0.5428  0.2034 -0.7586
18610TIP3    H277322   1.506   6.376  13.182 -0.0561 -0.3418  0.8254
18611TIP3   OH277323   3.255   4.175   3.995  0.4610 -0.1451 -0.0675
18611TIP3    H177324   3.216   4.179   3.907 -0.3305  0.3394  0.2937
18611TIP3    H277325   3.180   4.159   4.053  0.7266  1.3051  0.6982
18612TIP3   OH277326   4.424   1.285   2.135  0.2535 -0.1327  0.8931
18612TIP3    H177327   4.507   1.274   2.089  0.1369 -0.0798  0.6694
18612TIP3    H277328   4.377   1.203   2.118 -0.3442  0.4322 -0.2145
18613TIP3   OH277329   1.710   1.969   4.366  0.1001 -0.0232  0.1921
18613TIP3    H177330   1.801   1.956   4.342  0.0525  2.3118 -1.3870
18613TIP3    H277331   1.713   2.029   4.441 -0.1377 -0.4140  0.5232
18614TIP3   OH277332   3.301   2.632   2.810 -1.1304 -0.4093 -0.0941
18614TIP3    H177333   3.360   2.648   2.737  0.8513 -2.0871  1.0993
18614TIP3    H277334   3.292   2.536   2.814  2.0534 -0.6785  4.2982
18615TIP3   OH277335   5.163   6.569   2.161 -0.2598 -0.1721 -0.1873
18615TIP3    H177336   5.247   6.606   2.188  0.4201 -2.0242  0.2887
18615TIP3    H277337   5.182   6.523   2.079 -0.9008 -0.2169 -0.3112
18616TIP3   OH277338   5.491   1.439   0.476  0.2034 -0.2411  0.7148
18616TIP3    H177339   5.449   1.378   0.414 -0.8175  1.8407 -0.7172
18616TIP3    H277340   5.442   1.521   0.465  3.9868  1.9792 -0.2491
18617TIP3   OH277341   0.414   1.830   3.034 -0.4948  0.0264  0.3843
18617TIP3    H177342   0.464   1.840   3.115 -1.8637 -0.2607  1.2914
18617TIP3    H277343   0.444   1.748   2.996 -1.8295 -1.2500  2.0463
18618TIP3   OH277344   2.514   5.649   4.982  0.0049 -0.3626  0.3596
18618TIP3    H177345   2.520   5.741   4.958  0.5481 -1.1004 -2.5769
18618TIP3    H277346   2.421   5.635   5.002  0.2835  1.2717  3.0275
18619TIP3   OH277347   1.191   5.295   2.866  0.2540 -0.1536  0.4277
18619TIP3    H177348   1.200   5.388   2.887  0.0577 -0.0934  0.2429
18619TIP3    H277349   1.207   5.251   2.949 -2.1750  0.1515  1.1009
18620TIP3   OH277350   2.406   4.951  16.734 -0.5838 -1.0253  0.5607
18620TIP3    H177351   2.456   4.877  16.768  0.6343  0.0322  1.1000
18620TIP3    H277352   2.440   5.027  16.781  0.6306  0.3758 -2.4584
18621TIP3   OH277353   6.174   3.863  13.386 -0.7980 -0.1978 -0.0307
18621TIP3    H177354   6.105   3.926  13.407  1.0736  1.4149  1.4367
18621TIP3    H277355   6.170   3.798  13.457 -0.0081  0.5793  0.7308
18622TIP3   OH277356   4.084   0.423  14.813 -0.4294  0.2123 -0.0454
18622TIP3    H177357   4.067   0.511  14.778  0.6177  0.6913  0.6319
18622TIP3    H277358   3.998   0.382  14.816 -1.1020  1.6403  0.7838
18623TIP3   OH277359   1.658   1.610  15.652 -0.3253 -0.1571  0.5734
18623TIP3    H177360   1.645   1.551  15.577  1.4541  0.7990 -0.5198
18623TIP3    H277361   1.585   1.590  15.711 -0.5521 -2.4467 -0.4233
18624TIP3   OH277362   6.407   1.811  17.212  0.0257 -0.4727 -0.0657
18624TIP3    H177363   6.472   1.832  17.279 -0.2475  0.7613 -0.1636
18624TIP3    H277364   6.456   1.774  17.140  0.5569 -0.0717  0.0859
18625TIP3   OH277365   2.863   0.976  11.422 -0.3421 -0.2458 -0.2444
18625TIP3    H177366   2.827   0.892  11.448 -0.9092 -0.1572 -0.7365
18625TIP3    H277367   2.796   1.015  11.366 -0.3057  0.7509  0.3875
18626TIP3   OH277368   1.290   4.338  13.551 -0.2392  0.3850  0.2937
18626TIP3    H177369   1.359   4.382  13.602 -0.3092 -0.2404  0.9366
18626TIP3    H277370   1.257   4.270  13.610  2.0388 -2.6570 -1.7742
18627TIP3   OH277371   6.197   4.610   1.319 -0.4091  0.0250 -0.4454
18627TIP3    H177372   6.252   4.619   1.241  1.0632 -0.5228  0.5094
18627TIP3    H277373   6.148   4.529   1.304  2.0352 -1.6828  0.4672
18628TIP3   OH277374   0.764   4.764   6.451 -0.2299  0.6571 -0.0257
18628TIP3    H177375   0.692   4.716   6.410 -0.5673  1.4548 -0.3802
18628TIP3    H277376   0.752   4.749   6.545  0.9077 -1.6769 -0.2188
18629TIP3   OH277377   3.033   5.282  16.244  0.0356 -0.4977 -0.0992
18629TIP3    H177378   3.076   5.217  16.300  1.4148  1.0253  0.6361
18629TIP3    H277379   3.100   5.308  16.181 -0.9394 -0.7886 -1.2934
18630TIP3   OH277380   0.832   5.326   2.527 -0.2154  0.1739 -0.3377
18630TIP3    H177381   0.783   5.258   2.574  0.2012 -0.6593 -1.0819
18630TIP3    H277382   0.830   5.402   2.585 -0.1477 -0.6762  0.7915
18631TIP3   OH277383   5.894   4.597  14.097  0.4688 -0.3327  0.1872
18631TIP3    H177384   5.940   4.516  14.073  1.6185  0.4206 -0.1872
18631TIP3    H277385   5.959   4.649  14.144  0.0246  0.7748 -0.4071
18632TIP3   OH277386   0.318   5.157   1.101  0.5596  0.3329 -0.0615
18632TIP3    H177387   0.255   5.151   1.030  0.0107 -0.1268  0.4519
18632TIP3    H277388   0.402   5.172   1.058  0.2905 -0.3266 -0.8220
18633TIP3   OH277389   6.238   4.806   3.972  0.2592  0.4202  0.2167
18633TIP3    H177390   6.230   4.712   3.990 -1.0879  0.6756  0.9847
18633TIP3    H277391   6.159   4.845   4.010 -0.1684  1.6174 -1.8469
18634TIP3   OH277392   0.879   5.868   2.865  0.3323 -0.2406  0.3822
18634TIP3    H177393   0.860   5.888   2.773  2.7450 -2.1549 -0.6115
18634TIP3    H277394   0.805   5.816   2.895 -0.4166  0.2951 -0.5324
18635TIP3   OH277395   0.954   0.289  14.994 -0.3676  0.1226 -0.9037
18635TIP3    H177396   0.884   0.266  15.055 -0.4832 -1.3540 -1.5663
18635TIP3    H277397   1.032   0.248  15.030 -0.4556 -0.8441 -1.7793
18636TIP3   OH277398   2.757   4.340  14.440  0.2469 -0.2518 -0.3382
18636TIP3    H177399   2.780   4.418  14.389 -0.1918  1.9362  2.6212
18636TIP3    H277400   2.671   4.314  14.408 -0.0693  1.1608 -0.6570
18637TIP3   OH277401   1.295   6.073   4.997 -0.2719  1.0410 -0.0300
18637TIP3    H177402   1.353   6.062   4.922  1.8184  0.0159  1.6918
18637TIP3    H277403   1.299   5.989   5.043 -2.2976  1.3176  0.7172
18638TIP3   OH277404   0.357   4.290   6.713 -0.2589 -0.4358  0.0988
18638TIP3    H177405   0.327   4.301   6.623 -0.0211  0.2391  0.0968
18638TIP3    H277406   0.332   4.201   6.737  1.2946 -1.2420 -1.2398
18639TIP3   OH277407   6.100   2.397   3.346 -0.0427  0.2809 -0.0486
18639TIP3    H177408   6.142   2.429   3.267 -0.8200  0.3942 -0.4240
18639TIP3    H277409   6.010   2.379   3.319 -0.6316  1.4417  1.0915
18640TIP3   OH277410   2.252   4.467  12.539  0.4119  0.4161  0.0696
18640TIP3    H177411   2.177   4.466  12.479  1.6841  0.6476 -1.5346
18640TIP3    H277412   2.279   4.558  12.542  1.0105  0.2342  0.1863
18641TIP3   OH277413   5.414   1.642   1.190 -0.0044 -0.2366 -0.1298
18641TIP3    H177414   5.473   1.618   1.261 -1.8016 -2.4268  0.6875
18641TIP3    H277415   5.468   1.642   1.112  1.3471 -0.9319  0.7920
18642TIP3   OH277416   6.247   0.688   4.017 -0.3194 -0.5742 -0.0555
18642TIP3    H177417   6.156   0.716   4.030 -0.1376 -0.4663  1.0729
18642TIP3    H277418   6.241   0.597   3.990 -0.7063 -1.2801  2.2616
18643TIP3   OH277419   1.435   6.578   2.460  0.0899  0.0899 -0.6097
18643TIP3    H177420   1.384   6.628   2.523 -0.8387 -0.0782 -1.2153
18643TIP3    H277421   1.438   6.635   2.382 -1.0810 -0.8358 -1.3454
18644TIP3   OH277422   2.881   2.386  15.311  0.4897  0.5791 -0.1042
18644TIP3    H177423   2.843   2.299  15.306  2.2105 -0.1357 -1.2308
18644TIP3    H277424   2.919   2.401  15.225  2.7409  1.2516  0.9610
18645TIP3   OH277425   1.854   2.622   6.562 -0.2187 -0.6923  0.0317
18645TIP3    H177426   1.760   2.605   6.574 -0.6141  0.1359 -1.7862
18645TIP3    H277427   1.886   2.547   6.512  0.4411 -1.7317  1.9286
18646TIP3   OH277428   6.145   1.983   0.526  0.5961  0.3936 -0.6918
18646TIP3    H177429   6.175   2.001   0.615  1.3578 -0.8296 -0.6867
18646TIP3    H277430   6.148   1.888   0.519 -1.1114  0.3750 -1.4623
18647TIP3   OH277431   5.976   5.958   0.603 -0.4454  0.3886 -0.0175
18647TIP3    H177432   5.931   5.989   0.681 -1.0495  1.0330 -0.6129
18647TIP3    H277433   5.960   5.864   0.602  1.9023 -0.0949  2.1247
18648TIP3   OH277434   1.129   2.791   0.863 -0.0094 -0.2035  0.1069
18648TIP3    H177435   1.203   2.734   0.839 -0.6568 -1.2928  0.6329
18648TIP3    H277436   1.054   2.732   0.866 -1.1257  1.0989 -1.5036
18649TIP3   OH277437   0.752   6.082  11.557 -0.0626  0.0066  0.0824
18649TIP3    H177438   0.811   6.008  11.562 -1.3182 -1.2212 -2.4813
18649TIP3    H277439   0.717   6.091  11.646  1.7436 -1.0572  0.9266
18650TIP3   OH277440   5.742   5.797   1.293 -0.3032 -0.2189 -0.2848
18650TIP3    H177441   5.784   5.880   1.315 -1.8096  0.4524  0.1911
18650TIP3    H277442   5.716   5.807   1.201 -0.8230  0.0090 -0.1200
18651TIP3   OH277443   4.480   4.297   3.518 -0.3428  0.3190  0.5845
18651TIP3    H177444   4.445   4.211   3.543  0.8426  0.1235  1.5929
18651TIP3    H277445   4.551   4.313   3.580  1.3307  0.7413 -1.4153
18652TIP3   OH277446   6.215   2.484   1.094 -0.1452  0.1443 -0.0213
18652TIP3    H177447   6.168   2.488   1.011 -0.5611 -1.2273  0.1322
18652TIP3    H277448   6.154   2.523   1.157 -0.3133  0.1038 -0.1580
18653TIP3   OH277449   0.140   5.155  15.356 -0.1252 -0.0827  0.4606
18653TIP3    H177450   0.056   5.128  15.392 -1.0557  1.7210 -0.2757
18653TIP3    H277451   0.118   5.206  15.278  1.7068 -0.7737 -0.5490
18654TIP3   OH277452   1.038   2.724  17.223  0.1937  0.8732  0.1342
18654TIP3    H177453   0.996   2.638  17.213  2.7435 -0.5432  1.2523
18654TIP3    H277454   1.032   2.764  17.136 -2.0017  0.0397 -0.1275
18655TIP3   OH277455   0.451   4.926  15.480  0.0165 -0.1040  0.2806
18655TIP3    H177456   0.397   4.864  15.529  0.2090 -0.0247  0.5946
18655TIP3    H277457   0.431   4.908  15.388 -3.0223  2.1420  0.4672
18656TIP3   OH277458   3.137   6.315   4.580 -0.3279  0.0169 -0.6078
18656TIP3    H177459   3.167   6.381   4.518 -0.3933 -0.9852 -1.7243
18656TIP3    H277460   3.133   6.234   4.529 -0.9408 -0.7047  0.5589
18657TIP3   OH277461   3.669   5.019  12.983 -0.2200 -0.3050  0.3847
18657TIP3    H177462   3.581   5.054  13.001 -0.6393 -0.9540 -0.3250
18657TIP3    H277463   3.696   5.063  12.903  0.8224  1.1434  1.5128
18658TIP3   OH277464   4.538   2.594  13.128 -0.5150 -0.6803  0.1568
18658TIP3    H177465   4.557   2.670  13.183 -0.1853 -0.1401 -0.6888
18658TIP3    H277466   4.570   2.519  13.179  0.8030 -0.0924  0.2254
18659TIP3   OH277467   2.486   2.471   0.009  0.6169  0.1823 -0.4903
18659TIP3    H177468   2.446   2.384   0.014  1.1662 -0.0687 -0.4653
18659TIP3    H277469   2.456   2.516   0.088 -0.4870  0.3679 -0.9998
18660TIP3   OH277470   5.304   5.687   1.816  0.2791  0.7728 -0.1145
18660TIP3    H177471   5.321   5.772   1.856  1.5010  0.0744  0.8827
18660TIP3    H277472   5.287   5.629   1.891  1.5143 -0.3122 -0.6623
18661TIP3   OH277473   5.230   3.870   0.899 -0.2313 -0.2920 -0.6652
18661TIP3    H177474   5.302   3.835   0.848 -0.5641 -0.2827 -1.1382
18661TIP3    H277475   5.164   3.801   0.899 -0.1209 -0.4005 -0.0195
18662TIP3   OH277476   3.110   6.574   5.667 -0.0882  0.0407  0.7276
18662TIP3    H177477   3.056   6.495   5.661  1.4764 -0.9042 -1.4851
18662TIP3    H277478   3.140   6.577   5.758 -0.1007 -1.9439  0.8077
18663TIP3   OH277479   5.647   5.890   2.315  0.7250 -0.1784  0.1611
18663TIP3    H177480   5.620   5.930   2.398  0.0134  2.3802 -1.2399
18663TIP3    H277481   5.743   5.897   2.315  0.5899  1.9815 -0.2369
18664TIP3   OH277482   1.017   4.532   4.837  0.0529  0.1400  0.1153
18664TIP3    H177483   1.076   4.462   4.810 -0.4345 -0.6715  1.1377
18664TIP3    H277484   0.956   4.541   4.764  0.1690 -0.4397 -0.0566
18665TIP3   OH277485   5.692   0.040  15.416 -0.3580 -0.4216  0.5206
18665TIP3    H177486   5.734  -0.003  15.342 -0.4714  0.3592 -0.0098
18665TIP3    H277487   5.764   0.079  15.466 -0.4262  0.9160 -0.3865
18666TIP3   OH277488   6.329   6.551  11.027  0.1103 -0.2868 -0.3844
18666TIP3    H177489   6.395   6.512  11.084 -1.2178 -0.6311  0.9191
18666TIP3    H277490   6.292   6.476  10.979  0.0481 -0.1998 -0.4709
18667TIP3   OH277491   1.850   0.935   4.553  0.3853 -0.1381 -0.3689
18667TIP3    H177492   1.901   0.930   4.634 -0.4147 -1.0040  0.0798
18667TIP3    H277493   1.768   0.890   4.573  0.3576 -0.7460 -1.7881
18668TIP3   OH277494   2.917   5.746   6.394  0.3398 -0.2361 -0.1270
18668TIP3    H177495   3.002   5.786   6.410  0.3229 -1.2779  2.8469
18668TIP3    H277496   2.854   5.812   6.423  0.1802 -0.2999 -0.3305
18669TIP3   OH277497   5.849   4.257  11.283  0.3857 -0.6356 -0.2616
18669TIP3    H177498   5.766   4.290  11.316  1.3047 -0.3397  1.8591
18669TIP3    H277499   5.873   4.317  11.212 -0.6472 -0.0473 -0.1181
18670TIP3   OH277500   5.728   4.050   4.940  0.4428  0.4671 -0.2554
18670TIP3    H177501   5.681   4.132   4.929  0.9623  0.7327 -0.5241
18670TIP3    H277502   5.820   4.076   4.944  0.5296  0.0180  0.8870
18671TIP3   OH277503   3.390   5.387  16.136  0.0429  0.0771 -0.2856
18671TIP3    H177504   3.412   5.446  16.208 -0.7193  2.2344 -1.7799
18671TIP3    H277505   3.475   5.360  16.101  0.4052 -0.2036  0.7727
18672TIP3   OH277506   0.489   1.965  16.235 -0.2470  0.5997  0.0050
18672TIP3    H177507   0.463   2.034  16.174  0.3769 -0.0614 -1.0312
18672TIP3    H277508   0.582   1.982  16.251  0.3964 -1.1199 -1.7706
18673TIP3   OH277509   4.224   3.247  14.630  0.0458 -0.0605  0.2829
18673TIP3    H177510   4.206   3.155  14.610  0.1243  0.0779 -0.4328
18673TIP3    H277511   4.320   3.255  14.625  0.0960 -0.0942  1.0408
18674TIP3   OH277512   5.253   1.884   1.213  0.8459  0.2395  0.6933
18674TIP3    H177513   5.314   1.810   1.212 -0.1660 -0.5877 -1.1187
18674TIP3    H277514   5.185   1.861   1.150 -1.1644  1.3136  2.3972
18675TIP3   OH277515   4.667   6.077  14.458 -0.0242  0.3234  0.1261
18675TIP3    H177516   4.652   6.147  14.395  3.6066  0.7244 -0.4107
18675TIP3    H277517   4.691   6.122  14.539 -0.1301 -0.2447  0.4744
18676TIP3   OH277518   5.097   0.211  16.534  0.2113  0.0010 -0.4092
18676TIP3    H177519   5.059   0.293  16.566 -0.0556  0.5864 -2.1592
18676TIP3    H277520   5.192   0.222  16.547  0.1855  0.6355 -0.7467
18677TIP3   OH277521   5.623   0.773   5.421  0.0371 -0.3555 -0.1015
18677TIP3    H177522   5.557   0.785   5.353  1.0772 -0.9336 -1.2328
18677TIP3    H277523   5.696   0.827   5.393  0.0732  0.2239  1.1081
18678TIP3   OH277524   6.577   2.735  11.078 -0.6035  0.3026  0.4701
18678TIP3    H177525   6.635   2.806  11.049 -0.7505 -0.1783 -1.0516
18678TIP3    H277526   6.499   2.780  11.110 -1.0464  0.8326 -1.2760
18679TIP3   OH277527   4.699   5.425   1.115 -0.8099  0.5485  0.4054
18679TIP3    H177528   4.684   5.331   1.104 -0.6926  0.4273  1.2139
18679TIP3    H277529   4.636   5.451   1.182  1.5274  0.3383  2.7639
18680TIP3   OH277530   4.114   5.523   3.382  0.6641  0.5787  0.4816
18680TIP3    H177531   4.101   5.451   3.444 -0.1502  0.4907  0.2106
18680TIP3    H277532   4.202   5.509   3.348 -0.3686 -1.6926 -1.3856
18681TIP3   OH277533   5.052   3.908   3.657  0.1021  0.1189 -0.2697
18681TIP3    H177534   5.012   3.823   3.639  0.9070 -0.2864 -0.1820
18681TIP3    H277535   5.132   3.908   3.604  1.4743 -0.2636  1.7371
18682TIP3   OH277536   4.982   4.920   3.315  0.0577 -0.5695 -0.4818
18682TIP3    H177537   4.967   4.894   3.225 -1.9663  2.7059 -1.1932
18682TIP3    H277538   5.066   4.965   3.314 -0.3119  0.1127 -0.8894
18683TIP3   OH277539   5.648   5.942  11.720  0.3864  0.3021  0.1365
18683TIP3    H177540   5.716   5.963  11.656  0.1135 -1.7385 -0.8708
18683TIP3    H277541   5.566   5.960  11.674  0.2207  0.5237  0.5223
18684TIP3   OH277542   3.779   0.994   5.652  0.4091 -0.3644 -0.3463
18684TIP3    H177543   3.732   0.949   5.723  2.7385 -0.9750  0.8601
18684TIP3    H277544   3.782   0.929   5.581 -0.3945 -0.3791 -0.3756
18685TIP3   OH277545   0.074   3.150   5.716 -0.0267  1.0624 -0.1029
18685TIP3    H177546   0.068   3.182   5.806  2.1943 -0.1412  0.5184
18685TIP3    H277547  -0.004   3.096   5.704  1.0830 -1.1460  2.1101
18686TIP3   OH277548   2.108   3.525  15.217 -0.3358  0.1089  0.3743
18686TIP3    H177549   2.081   3.510  15.308  1.2450  0.4699  0.9318
18686TIP3    H277550   2.203   3.508  15.218 -0.2154  0.6767 -1.0827
18687TIP3   OH277551   6.689   1.310   2.654 -0.0528  0.2968 -0.3390
18687TIP3    H177552   6.613   1.312   2.711  0.8613 -2.0166  1.0240
18687TIP3    H277553   6.659   1.349   2.572 -2.6887 -0.5197  0.2020
18688TIP3   OH277554   5.769   0.124   3.973  0.7032  0.2955  0.0077
18688TIP3    H177555   5.767   0.109   3.879  1.4487 -0.6300  0.1349
18688TIP3    H277556   5.782   0.037   4.012 -2.0957  0.2987  1.0901
18689TIP3   OH277557   2.232   1.076  14.988  0.0021  0.5151  0.1761
18689TIP3    H177558   2.149   1.073  14.942 -0.1882  0.6551  0.5148
18689TIP3    H277559   2.286   1.010  14.943  0.2504  1.5590 -1.0778
18690TIP3   OH277560   4.523   2.743  15.723 -0.5558 -0.1507  0.5023
18690TIP3    H177561   4.524   2.684  15.798  0.4890  1.0602  1.4812
18690TIP3    H277562   4.614   2.773  15.715 -0.3300 -1.4566 -2.2356
18691TIP3   OH277563   1.064   1.495  11.525 -0.0093  0.2977  0.5771
18691TIP3    H177564   0.987   1.446  11.553  1.2531 -1.6690  0.7097
18691TIP3    H277565   1.056   1.500  11.430  0.5451 -1.4651  0.4029
18692TIP3   OH277566   3.907   1.053  16.717  0.0155 -0.2414 -0.0090
18692TIP3    H177567   3.968   1.074  16.788  0.6985  1.9488 -1.2082
18692TIP3    H277568   3.820   1.068  16.755  0.3604  0.6121  0.4539
18693TIP3   OH277569   0.004   1.824   2.241 -0.1099 -0.2631  0.7610
18693TIP3    H177570   0.075   1.793   2.186  0.4254  0.3724  1.0838
18693TIP3    H277571  -0.040   1.891   2.189 -1.3059 -1.5781  0.0380
18694TIP3   OH277572   3.273   3.265   0.700  0.0007 -0.4133 -0.0717
18694TIP3    H177573   3.282   3.273   0.795 -1.1260 -2.0729  0.1828
18694TIP3    H277574   3.352   3.217   0.673  0.1827 -0.1843  0.0437
18695TIP3   OH277575   6.720   2.969   2.974  0.0284 -0.3165 -0.1142
18695TIP3    H177576   6.640   2.916   2.970 -1.5534  2.0050  0.1245
18695TIP3    H277577   6.722   3.016   2.891  0.8146  0.1288  0.1511
18696TIP3   OH277578   2.651   4.091  11.058 -0.6102 -0.4907 -0.6724
18696TIP3    H177579   2.708   4.046  10.995  0.4223 -1.0752  0.6719
18696TIP3    H277580   2.650   4.182  11.028  1.2887 -0.4091 -0.5352
18697TIP3   OH277581   4.125   3.233   4.198  0.8409 -0.0088 -0.4432
18697TIP3    H177582   4.064   3.258   4.129  0.9213  0.8156 -0.2287
18697TIP3    H277583   4.077   3.169   4.251  0.5901 -0.2414 -0.9498
18698TIP3   OH277584   4.863   4.500  13.422  0.2957  0.0548  0.4538
18698TIP3    H177585   4.802   4.451  13.368 -1.6844  1.6889  1.1038
18698TIP3    H277586   4.942   4.508  13.369 -1.2907  0.8792 -1.8711
18699TIP3   OH277587   1.450   2.119   4.992  0.1509 -0.1791  0.3998
18699TIP3    H177588   1.519   2.185   4.989 -0.5913  0.5411 -1.1389
18699TIP3    H277589   1.488   2.042   4.950 -0.0205  0.2587 -0.5644
18700TIP3   OH277590   2.101   1.920  16.254  0.4057 -0.5662 -0.7170
18700TIP3    H177591   2.047   1.941  16.331 -1.5863 -0.7356 -2.0173
18700TIP3    H277592   2.173   1.982  16.258 -1.8615  2.1936 -0.9245
18701TIP3   OH277593   0.470   3.161   5.850 -0.3807 -0.3482  0.2776
18701TIP3    H177594   0.422   3.119   5.779 -0.5890 -0.9992  0.7926
18701TIP3    H277595   0.464   3.255   5.832 -0.0657 -0.5303 -0.7906
18702TIP3   OH277596   2.823   1.374   3.497  0.3343  0.2303  0.3577
18702TIP3    H177597   2.868   1.432   3.559  0.6785 -1.3954  1.6587
18702TIP3    H277598   2.894   1.327   3.453  0.0922  1.3589 -1.3014
18703TIP3   OH277599   6.553   6.688  13.130 -0.9048  0.5834  0.0907
18703TIP3    H177600   6.561   6.728  13.044 -0.0280 -1.4739 -0.8276
18703TIP3    H277601   6.468   6.643  13.127 -0.0065 -1.1140 -0.4322
18704TIP3   OH277602   6.220   4.575   0.162 -0.3380 -0.2090 -0.0540
18704TIP3    H177603   6.144   4.607   0.113  0.3970  0.7750 -0.5505
18704TIP3    H277604   6.292   4.576   0.099  0.0601 -1.3282  0.3571
18705TIP3   OH277605   6.224   0.789  10.832 -0.4704  0.3570  0.2238
18705TIP3    H177606   6.318   0.774  10.847  0.1740  4.4099  0.7419
18705TIP3    H277607   6.181   0.746  10.907  0.9169 -1.4927  0.0139
18706TIP3   OH277608   6.031   0.243   2.623 -0.7259  0.6898 -0.2776
18706TIP3    H177609   6.057   0.334   2.611  0.8376  0.1347 -1.1687
18706TIP3    H277610   6.087   0.193   2.564 -1.1755 -0.9114  0.6069
18707TIP3   OH277611   4.014   0.850  14.992 -0.7295 -0.1652  0.0778
18707TIP3    H177612   3.951   0.779  14.977 -0.1213 -1.2289  2.4168
18707TIP3    H277613   4.037   0.880  14.904 -1.9419 -2.0264 -0.9095
18708TIP3   OH277614   0.536   4.557   1.964 -0.3362  0.3897  0.3835
18708TIP3    H177615   0.614   4.575   1.912 -0.4171  1.1347  0.5269
18708TIP3    H277616   0.468   4.535   1.900 -0.1965  0.4141  0.2276
18709TIP3   OH277617   1.633   5.523  11.043 -0.8102  0.6910 -0.0092
18709TIP3    H177618   1.567   5.560  11.102 -0.3648 -1.1025  1.6667
18709TIP3    H277619   1.715   5.528  11.092 -0.3095 -0.2064 -0.7336
18710TIP3   OH277620   4.408   0.396  13.268  0.3818  0.7913 -0.3676
18710TIP3    H177621   4.459   0.467  13.308  2.0201 -1.2477  1.2571
18710TIP3    H277622   4.317   0.423  13.280  0.9773  2.8922 -0.3201
18711TIP3   OH277623   0.330   6.031  13.965 -0.2522  0.0878  0.2446
18711TIP3    H177624   0.337   5.960  14.029 -0.8627 -1.8513 -1.7750
18711TIP3    H277625   0.240   6.062  13.973 -0.5094 -0.5626 -0.0866
18712TIP3   OH277626   4.673   0.713   2.854  0.1295  0.4306 -0.1612
18712TIP3    H177627   4.673   0.748   2.765 -0.0712  1.6102  0.2842
18712TIP3    H277628   4.653   0.789   2.909  1.1475 -0.1001  0.9554
18713TIP3   OH277629   2.061   3.865  15.109  0.0138  0.0683  0.1822
18713TIP3    H177630   2.045   3.808  15.034 -1.1118  1.1536 -0.4170
18713TIP3    H277631   2.131   3.923  15.080  0.2282 -0.1258  0.3102
18714TIP3   OH277632   0.351   0.643   5.268  0.0477  0.3487 -0.2889
18714TIP3    H177633   0.364   0.557   5.307 -3.3889  0.1374  0.5857
18714TIP3    H277634   0.378   0.704   5.337 -1.0403 -0.0400  0.4947
18715TIP3   OH277635   1.887   0.789  16.422 -0.4129  0.6119  0.4552
18715TIP3    H177636   1.916   0.786  16.513 -0.7109  0.2272  0.5401
18715TIP3    H277637   1.896   0.880  16.397  1.7816  0.3368  0.1857
18716TIP3   OH277638   3.857   5.060  14.924  0.4284 -0.2934 -0.1692
18716TIP3    H177639   3.853   4.974  14.884 -0.0820  0.7488 -2.4369
18716TIP3    H277640   3.794   5.113  14.874 -0.6526  0.9284  2.3497
18717TIP3   OH277641   0.575   1.299  15.515 -0.2163 -0.0748  0.4257
18717TIP3    H177642   0.643   1.296  15.447 -1.7890 -3.5553 -1.0924
18717TIP3    H277643   0.497   1.267  15.472 -1.9917  0.4348  3.1555
18718TIP3   OH277644   1.648   6.190  13.903  0.3424  0.3488 -0.1045
18718TIP3    H177645   1.722   6.249  13.920  0.2536  0.5145 -0.2935
18718TIP3    H277646   1.579   6.220  13.963  0.9246 -0.7411  1.1356
18719TIP3   OH277647   5.462   6.044   3.327 -0.6216 -0.4592  0.5864
18719TIP3    H177648   5.460   5.974   3.393 -2.3333 -1.0781 -0.0981
18719TIP3    H277649   5.447   6.000   3.244 -1.6516  0.7037  0.1352
18720TIP3   OH277650   4.293   0.109  15.014  0.1513 -0.0503 -0.1337
18720TIP3    H177651   4.377   0.117  15.060  0.1605  0.6197 -0.2525
18720TIP3    H277652   4.266   0.200  15.000  0.1323 -0.2422 -1.3957
18721TIP3   OH277653   4.398   1.112  14.965 -0.0103  0.1137  0.5904
18721TIP3    H177654   4.448   1.149  14.893 -1.9217  0.1944 -0.7132
18721TIP3    H277655   4.460   1.111  15.038  0.8998  3.3604 -0.0391
18722TIP3   OH277656   5.167   3.668   0.550  0.4515 -0.9340  0.2776
18722TIP3    H177657   5.161   3.572   0.546  0.4092 -0.9299  0.2483
18722TIP3    H277658   5.144   3.698   0.462 -0.8178 -0.8414  0.6291
18723TIP3   OH277659   5.084   4.769  11.658  0.4908  0.2636 -0.0951
18723TIP3    H177660   4.993   4.742  11.675  0.2181  1.0658 -0.2429
18723TIP3    H277661   5.080   4.865  11.657  0.9773  0.2920 -1.9652
18724TIP3   OH277662   4.871   5.385  13.802  0.0254 -0.2342  0.3152
18724TIP3    H177663   4.856   5.480  13.801 -1.1059 -0.4131 -1.7046
18724TIP3    H277664   4.955   5.375  13.757  0.2891 -0.1744  0.7904
18725TIP3   OH277665   3.211   4.294  16.538 -0.4554  0.1502 -0.7844
18725TIP3    H177666   3.242   4.384  16.548  0.7579 -0.3101 -0.3521
18725TIP3    H277667   3.290   4.241  16.537 -1.1978 -1.0022 -0.1391
18726TIP3   OH277668   2.214   0.930   6.821  0.1085  0.3486 -0.0517
18726TIP3    H177669   2.288   0.907   6.878  1.9310  1.1313 -2.0469
18726TIP3    H277670   2.179   0.847   6.792  1.4880 -0.0291 -0.6860
18727TIP3   OH277671   5.451   5.221   0.351  0.1886  0.1472  0.9658
18727TIP3    H177672   5.369   5.219   0.302 -0.0077  1.7506  1.2089
18727TIP3    H277673   5.425   5.199   0.441  0.1806 -0.3623  0.8400
18728TIP3   OH277674   4.277   3.990   1.325  0.1777  0.0155 -1.0888
18728TIP3    H177675   4.348   3.949   1.276  0.3515 -0.3140 -0.5689
18728TIP3    H277676   4.293   4.084   1.317 -0.1885 -0.0149 -2.2344
18729TIP3   OH277677   3.653   0.215   5.935  0.0394 -0.0592 -0.2393
18729TIP3    H177678   3.586   0.146   5.942 -0.5858  0.5992  0.4143
18729TIP3    H277679   3.614   0.289   5.981  1.0998  0.4330 -0.1407
18730TIP3   OH277680   2.609   4.137  13.819 -0.6296  0.3534 -0.4793
18730TIP3    H177681   2.630   4.205  13.755 -0.9796  0.7928 -0.1288
18730TIP3    H277682   2.654   4.165  13.899 -2.6771  1.3810  0.3234
18731TIP3   OH277683   3.915   3.235   3.517  0.3105  0.0353  0.5625
18731TIP3    H177684   3.848   3.167   3.518 -0.3432  0.6575  2.0541
18731TIP3    H277685   3.868   3.315   3.538  1.1160  0.9186 -0.9172
18732TIP3   OH277686   5.146   4.660   0.250 -0.3758  0.5585  0.1713
18732TIP3    H177687   5.200   4.623   0.319  0.0830 -0.3202 -0.6395
18732TIP3    H277688   5.152   4.755   0.262  2.8994  0.5514 -1.0585
18733TIP3   OH277689   0.347   5.917   2.832  0.4370  0.1944 -0.6488
18733TIP3    H177690   0.308   5.997   2.797 -0.0058 -0.3994 -1.5458
18733TIP3    H277691   0.441   5.933   2.831  0.2489  1.5136  1.2128
18734TIP3   OH277692   2.455   2.365   4.063 -0.0559  0.1236 -0.1786
18734TIP3    H177693   2.428   2.457   4.052  0.2148  0.1220 -0.8555
18734TIP3    H277694   2.431   2.345   4.154  2.2052  1.6420  0.8008
18735TIP3   OH277695   3.507   3.968  13.170 -0.2049  0.2935 -0.3315
18735TIP3    H177696   3.516   4.016  13.087  0.1271  0.4334 -0.2196
18735TIP3    H277697   3.593   3.978  13.212  0.0831 -0.9555 -0.5982
18736TIP3   OH277698   0.019   1.083  11.558  0.0851 -0.4033  0.5177
18736TIP3    H177699   0.014   1.174  11.587 -0.5077 -0.7929  1.6486
18736TIP3    H277700   0.028   1.089  11.463  2.1061  0.8874  0.7510
18737TIP3   OH277701   6.272   4.170  13.329 -0.3685 -0.0988 -0.1197
18737TIP3    H177702   6.276   4.153  13.423 -1.9546 -1.6547 -0.3147
18737TIP3    H277703   6.339   4.237  13.315  2.3208 -2.2706  1.5755
18738TIP3   OH277704   2.919   3.420   5.008 -0.1137 -0.1546  0.3596
18738TIP3    H177705   2.939   3.468   4.928 -0.5267 -1.1912 -0.3738
18738TIP3    H277706   2.840   3.460   5.042  0.0762  0.3007  0.2654
18739TIP3   OH277707   0.003   3.938  15.670  0.0809 -0.0107 -0.3898
18739TIP3    H177708   0.018   3.926  15.576 -1.4702 -0.4683 -0.5934
18739TIP3    H277709  -0.031   4.027  15.677  1.2240  0.4250 -0.1149
18740TIP3   OH277710   3.461   2.510  12.975 -0.2278  0.4330  0.7649
18740TIP3    H177711   3.385   2.566  12.994 -0.1669  1.2537 -1.3625
18740TIP3    H277712   3.460   2.445  13.046 -2.7417  0.6115  0.9559
18741TIP3   OH277713   3.339   5.116  11.289 -0.1558 -0.4928 -0.0621
18741TIP3    H177714   3.264   5.176  11.293  0.6280  0.3193  4.6161
18741TIP3    H277715   3.302   5.029  11.302 -0.3635 -0.1172  1.9822
18742TIP3   OH277716   2.162   1.645   5.779 -0.1136  0.2395  0.7200
18742TIP3    H177717   2.079   1.629   5.824  0.0229 -1.4106  0.4533
18742TIP3    H277718   2.145   1.616   5.689 -0.2683  3.1062 -0.2268
18743TIP3   OH277719   1.389   2.101  13.659 -0.1064 -0.3298 -0.0976
18743TIP3    H177720   1.482   2.125  13.657  0.0106 -0.8122 -0.5745
18743TIP3    H277721   1.386   2.023  13.715 -0.1575 -0.6041 -0.4836
18744TIP3   OH277722   2.138   0.784  11.812 -0.8440  0.0033 -0.2312
18744TIP3    H177723   2.093   0.700  11.821  0.2765 -0.6558 -0.6850
18744TIP3    H277724   2.186   0.777  11.730  0.6477  0.4293  0.5890
18745TIP3   OH277725   4.925   2.712   2.344  0.2529 -0.0669 -0.3039
18745TIP3    H177726   4.983   2.749   2.410 -1.0819  1.9485 -0.1870
18745TIP3    H277727   4.966   2.735   2.260  1.3325 -1.5776 -0.1916
18746TIP3   OH277728   3.674   2.986   1.533  0.5738 -0.2312  0.2124
18746TIP3    H177729   3.727   2.984   1.453  0.1060 -0.9418 -0.0878
18746TIP3    H277730   3.595   3.034   1.508  1.6558  2.0783  1.0430
18747TIP3   OH277731   6.159   5.861   3.444  0.2716 -0.3626 -0.7250
18747TIP3    H177732   6.217   5.837   3.371  1.8191  1.0435  0.0014
18747TIP3    H277733   6.126   5.948   3.419  1.6881  0.6240  0.7259
18748TIP3   OH277734   1.161   2.101   2.947 -0.3407 -0.0060  0.4530
18748TIP3    H177735   1.111   2.100   3.029  0.6243  0.3644  1.0550
18748TIP3    H277736   1.106   2.150   2.886 -1.8867 -1.8096  0.3376
18749TIP3   OH277737   3.987   4.799   4.434  0.2731  0.2760  0.0917
18749TIP3    H177738   4.050   4.788   4.505  0.7800 -0.9412 -0.5421
18749TIP3    H277739   4.026   4.754   4.359 -0.6040  0.8988 -0.7565
18750TIP3   OH277740   5.871   4.410  14.509  0.0843 -0.7080 -0.1580
18750TIP3    H177741   5.825   4.361  14.441 -1.1472 -0.3854  0.4198
18750TIP3    H277742   5.802   4.440  14.568  0.8043  1.5743 -0.4041
18751TIP3   OH277743   1.804   3.874   1.856  0.3830 -0.2095  0.4419
18751TIP3    H177744   1.723   3.830   1.830  0.3485 -0.4459  0.9434
18751TIP3    H277745   1.867   3.803   1.869  0.6423 -0.0331  0.1528
18752TIP3   OH277746   1.100   5.037  16.500 -0.0322 -0.1205 -0.3250
18752TIP3    H177747   1.171   5.101  16.511 -0.3587  0.1075  0.4870
18752TIP3    H277748   1.108   5.008  16.409  0.0289  1.1881 -0.7501
18753TIP3   OH277749   6.406   3.161  11.760 -0.0887  0.5743  0.2938
18753TIP3    H177750   6.495   3.127  11.768 -1.0515 -1.6655  2.0700
18753TIP3    H277751   6.352   3.083  11.746 -1.9026  1.7775  0.4136
18754TIP3   OH277752   0.422   6.712   4.301  0.8013  0.1801  0.2880
18754TIP3    H177753   0.498   6.734   4.247  0.6312  1.8554  0.7031
18754TIP3    H277754   0.402   6.793   4.348 -0.9900 -0.3615  0.4910
18755TIP3   OH277755   3.751   4.096  13.267  0.1401 -1.0531 -0.3539
18755TIP3    H177756   3.780   4.017  13.222 -0.9946 -1.7932  0.1717
18755TIP3    H277757   3.781   4.085  13.357  0.0756 -0.8300 -0.3042
18756TIP3   OH277758   1.530   2.289   0.039  0.0641  0.5705 -0.3568
18756TIP3    H177759   1.541   2.374   0.082  1.2882  0.1454  0.1791
18756TIP3    H277760   1.476   2.238   0.099  1.2493  0.1922  0.3974
18757TIP3   OH277761   4.999   5.362   5.205  0.2624 -0.1925 -0.4223
18757TIP3    H177762   5.079   5.413   5.211  0.2236 -0.3503  1.8960
18757TIP3    H277763   5.028   5.271   5.205  0.1349 -0.2338 -0.5152
18758TIP3   OH277764   4.685   2.231  15.104 -0.6864 -0.6264 -0.0622
18758TIP3    H177765   4.629   2.309  15.096  0.3749 -0.1440 -3.6511
18758TIP3    H277766   4.623   2.159  15.110 -1.7374  0.1604 -1.0141
18759TIP3   OH277767   1.259   2.608  14.273 -0.0765 -0.2199 -0.2999
18759TIP3    H177768   1.191   2.599  14.206 -0.2181  0.9300 -0.3232
18759TIP3    H277769   1.222   2.565  14.350 -0.6916  0.0938 -0.4116
18760TIP3   OH277770   2.696   4.759  12.453 -0.1864  0.1729  0.3708
18760TIP3    H177771   2.640   4.713  12.390 -0.5303 -0.7762  1.3480
18760TIP3    H277772   2.636   4.785  12.523  0.5777 -0.8486  1.4234
18761TIP3   OH277773   4.059   3.658  15.418 -0.1229  0.5506  0.0696
18761TIP3    H177774   4.055   3.623  15.329 -0.7391 -0.0796  0.3394
18761TIP3    H277775   4.147   3.637  15.449  0.1360  0.8905 -0.4396
18762TIP3   OH277776   4.935   2.399  14.516 -0.6456  0.0231 -0.2633
18762TIP3    H177777   4.960   2.312  14.485 -1.0855 -0.2087  0.0261
18762TIP3    H277778   4.985   2.460  14.461  0.9514 -0.4278  0.6670
18763TIP3   OH277779   3.654   1.445  14.241 -0.7799 -0.3635  0.2398
18763TIP3    H177780   3.700   1.377  14.191  1.4143  0.1086  1.5612
18763TIP3    H277781   3.580   1.469  14.185  1.1172 -0.4306 -2.4139
18764TIP3   OH277782   2.453   2.994  11.579 -0.0961 -0.8264  0.1333
18764TIP3    H177783   2.541   2.958  11.582  0.0715 -0.5561 -1.3025
18764TIP3    H277784   2.398   2.921  11.551 -0.4246 -1.1464  1.5732
18765TIP3   OH277785   3.840   6.106  13.292  0.0872 -0.1997  0.0618
18765TIP3    H177786   3.897   6.040  13.331  1.0428  0.6261  0.0941
18765TIP3    H277787   3.864   6.187  13.337 -1.3060  0.1034  0.2630
18766TIP3   OH277788   1.830   5.433  12.297 -0.2930 -0.6160 -0.6418
18766TIP3    H177789   1.921   5.411  12.277  0.0503  0.7829 -0.6993
18766TIP3    H277790   1.831   5.528  12.310 -1.4469 -0.8088  1.0043
18767TIP3   OH277791   4.748   4.130  10.790  0.0287  0.1588  0.0303
18767TIP3    H177792   4.658   4.106  10.768  0.4942 -1.4968 -0.0984
18767TIP3    H277793   4.775   4.188  10.719  0.0686 -1.7465 -1.5437
18768TIP3   OH277794   3.883   4.676   0.615  0.0321  0.3016  0.1694
18768TIP3    H177795   3.954   4.665   0.551 -0.4722 -0.7630 -0.2110
18768TIP3    H277796   3.848   4.763   0.597  0.3466  0.2845 -0.5471
18769TIP3   OH277797   4.722   2.919   1.091  0.3124 -0.7408  0.4045
18769TIP3    H177798   4.721   2.847   1.028  2.4920 -0.3860 -0.0736
18769TIP3    H277799   4.778   2.887   1.162 -1.2659 -0.7210  1.6896
18770TIP3   OH277800   0.186   0.978   5.365 -0.3304  0.1749 -0.0336
18770TIP3    H177801   0.120   1.004   5.429  0.3674 -1.3521  1.3517
18770TIP3    H277802   0.168   0.885   5.350  1.1564 -0.1138 -0.0581
18771TIP3   OH277803   3.179   0.999   6.535  0.9383  0.0096  0.2987
18771TIP3    H177804   3.221   1.011   6.619  0.8363 -0.4405  0.4172
18771TIP3    H277805   3.163   1.088   6.502  1.2147  0.1812  0.6312
18772TIP3   OH277806   3.081   4.806  10.545 -0.0786 -0.9981  0.1800
18772TIP3    H177807   3.102   4.865  10.473 -1.8742 -0.5454 -0.0034
18772TIP3    H277808   3.163   4.796  10.593  1.1084 -1.2298 -1.8624
18773TIP3   OH277809   3.349   0.398  11.636 -0.0020 -0.2656 -0.0402
18773TIP3    H177810   3.345   0.365  11.546 -2.1746 -1.3329  0.4125
18773TIP3    H277811   3.373   0.321  11.688 -1.6335 -0.3410  0.6209
18774TIP3   OH277812   3.112   3.925   1.488 -0.2234 -0.3511  0.3796
18774TIP3    H177813   3.108   3.843   1.537  0.0547 -0.7113 -0.2007
18774TIP3    H277814   3.190   3.918   1.433  0.2840  0.6535  0.9492
18775TIP3   OH277815   2.718   2.662  17.263  0.0674  0.5987  0.0071
18775TIP3    H177816   2.641   2.608  17.280  1.1686 -0.7290  0.8455
18775TIP3    H277817   2.702   2.700  17.177 -1.3619  0.0575  0.0201
18776TIP3   OH277818   2.476   4.496  15.986  0.3378  0.1597  0.2467
18776TIP3    H177819   2.450   4.589  15.983 -0.0087  0.0675  0.3045
18776TIP3    H277820   2.452   4.467  16.074  1.9047  0.4254  0.7715
18777TIP3   OH277821   3.400   4.762   5.369  0.2089  0.0289 -0.3339
18777TIP3    H177822   3.429   4.701   5.301  0.7465  0.5088 -0.5477
18777TIP3    H277823   3.343   4.710   5.426  0.2748 -0.5431 -0.7842
18778TIP3   OH277824   2.816   3.014   6.756  0.2005  0.5121  0.2618
18778TIP3    H177825   2.833   3.104   6.728  1.5502 -0.2612 -1.4568
18778TIP3    H277826   2.903   2.978   6.775 -0.2179 -0.8430 -0.3655
18779TIP3   OH277827   5.632   5.843  16.489  0.2707 -0.6216 -0.6725
18779TIP3    H177828   5.697   5.826  16.421  2.3436 -2.2015  1.6358
18779TIP3    H277829   5.647   5.774  16.555 -2.2391  0.3380  0.9686
18780TIP3   OH277830   2.922   4.963  11.861  0.0033 -0.9350 -0.2279
18780TIP3    H177831   2.914   5.025  11.788  2.1377 -0.8388 -0.4334
18780TIP3    H277832   2.895   4.879  11.824 -0.2033 -0.6354 -0.7624
18781TIP3   OH277833   2.381   6.720   5.616 -0.2698  0.0804  0.2798
18781TIP3    H177834   2.299   6.675   5.636 -0.8048  1.3962  1.1446
18781TIP3    H277835   2.367   6.759   5.530 -0.0186 -0.8992 -0.2108
18782TIP3   OH277836   2.422   1.992   0.272 -0.0952  0.1217  0.2672
18782TIP3    H177837   2.503   2.042   0.280  0.5804 -1.0481  0.7835
18782TIP3    H277838   2.445   1.917   0.218 -0.7912 -0.3144  0.5727
18783TIP3   OH277839   2.515   0.603   5.012 -0.4711  0.3479  0.6157
18783TIP3    H177840   2.534   0.590   4.919  0.0496 -1.9182  0.9888
18783TIP3    H277841   2.465   0.525   5.037 -2.5281  1.9725  1.7449
18784TIP3   OH277842   5.101   2.636   5.311 -0.0348 -0.4424  0.4578
18784TIP3    H177843   5.039   2.687   5.258 -1.4398 -1.6523  0.9123
18784TIP3    H277844   5.187   2.664   5.279 -0.8259  0.0411 -1.3511
18785TIP3   OH277845   3.438   1.511   1.123  0.2691 -0.1485 -0.1822
18785TIP3    H177846   3.506   1.501   1.057 -0.2879  1.0140 -0.9500
18785TIP3    H277847   3.484   1.507   1.207  0.8952 -2.3741 -0.5890
18786TIP3   OH277848   6.142   4.999  15.988 -0.1120  0.0856  0.5154
18786TIP3    H177849   6.096   5.051  16.054  0.5795  0.3715  0.7794
18786TIP3    H277850   6.225   5.045  15.975  1.0419 -1.6044  1.6592
18787TIP3   OH277851   1.073   0.731  12.431 -0.3145  0.2863 -0.6384
18787TIP3    H177852   1.145   0.777  12.389  1.0557 -0.4020  0.9091
18787TIP3    H277853   1.107   0.643  12.448 -1.4696 -0.0005  0.2522
18788TIP3   OH277854   6.352   2.741  12.779 -0.2204 -0.8671 -0.3184
18788TIP3    H177855   6.394   2.695  12.707  0.3595 -2.0554  0.7711
18788TIP3    H277856   6.264   2.703  12.785  0.0508 -1.4109  0.1958
18789TIP3   OH277857   5.965   6.681   5.391 -0.1858  0.1713 -0.4455
18789TIP3    H177858   5.943   6.738   5.318 -0.2325  0.3842 -0.2657
18789TIP3    H277859   6.020   6.735   5.449 -1.3283  0.4629  0.3815
18790TIP3   OH277860   3.393   4.665   2.946  0.1454 -0.8194  0.4793
18790TIP3    H177861   3.453   4.591   2.934  0.3748 -0.7075  0.9417
18790TIP3    H277862   3.309   4.633   2.912  0.8266 -0.4399 -1.6353
18791TIP3   OH277863   4.082   6.343  12.187  0.4147 -0.1854 -0.0024
18791TIP3    H177864   4.150   6.288  12.150  0.2305 -2.4047  2.8026
18791TIP3    H277865   4.008   6.284  12.202 -0.2719  1.0674  1.8236
18792TIP3   OH277866   2.332   6.312  13.652  0.7551  0.7538  0.6507
18792TIP3    H177867   2.337   6.288  13.745 -0.7019  1.2910  0.8829
18792TIP3    H277868   2.334   6.407  13.652 -0.9965  0.8160  0.2829
18793TIP3   OH277869   4.366   4.536   3.419  0.0296 -0.3303  0.0308
18793TIP3    H177870   4.323   4.572   3.497  0.6546 -0.7077  0.5609
18793TIP3    H277871   4.421   4.465   3.453  1.6842  0.6601 -0.5293
18794TIP3   OH277872   5.747   4.764   2.159 -0.3050  0.2879 -0.3722
18794TIP3    H177873   5.823   4.768   2.217 -1.2301  1.4954  0.7688
18794TIP3    H277874   5.783   4.779   2.071  0.9596 -0.5777 -0.0138
18795TIP3   OH277875   5.225   0.885  16.499 -0.3692 -0.1677  0.0181
18795TIP3    H177876   5.228   0.897  16.594  0.1958  1.3988 -0.1868
18795TIP3    H277877   5.253   0.969  16.463 -2.7847  0.0122 -1.5583
18796TIP3   OH277878   4.377   0.668   2.654 -0.8083 -0.1016  0.2629
18796TIP3    H177879   4.456   0.679   2.601 -0.6464 -0.0563  0.5147
18796TIP3    H277880   4.342   0.757   2.664 -0.4782 -0.0321  0.7885
18797TIP3   OH277881   3.980   2.598  15.761  0.2941  0.0642 -0.0601
18797TIP3    H177882   3.990   2.692  15.776 -0.4642  0.4315 -1.7083
18797TIP3    H277883   4.063   2.560  15.789 -0.1441  0.9518  2.6367
18798TIP3   OH277884   2.954   2.716   5.354 -0.0568  0.0097  0.0370
18798TIP3    H177885   2.929   2.644   5.411 -0.5928  0.2518  0.1120
18798TIP3    H277886   2.892   2.712   5.281 -0.9901  1.2436  0.7387
18799TIP3   OH277887   1.875   0.018   3.469 -0.4593  0.3020  0.1772
18799TIP3    H177888   1.854   0.053   3.556 -0.7752  0.5623 -0.0036
18799TIP3    H277889   1.834   0.079   3.408 -1.6328 -0.7776 -0.1297
18800TIP3   OH277890   1.284   3.167  11.618  0.1889 -0.0300  0.0191
18800TIP3    H177891   1.230   3.240  11.588  1.6311 -0.1610 -3.1312
18800TIP3    H277892   1.367   3.207  11.642  0.3355 -0.4142  0.1557
18801TIP3   OH277893   5.816   0.366   2.470  0.4303  0.0944  0.1491
18801TIP3    H177894   5.859   0.335   2.550  0.4996 -0.2467 -0.0179
18801TIP3    H277895   5.882   0.356   2.402  0.5521  0.9028  0.1436
18802TIP3   OH277896   4.217   0.473   5.580 -0.4366  0.0942 -0.2763
18802TIP3    H177897   4.251   0.509   5.662 -0.6746 -1.1740  0.3866
18802TIP3    H277898   4.122   0.474   5.591 -0.4562 -0.4718 -0.3618
18803TIP3   OH277899   3.900   0.935   1.711  0.0225 -0.0375  0.1624
18803TIP3    H177900   3.984   0.973   1.685 -0.3785  0.2128 -0.8181
18803TIP3    H277901   3.915   0.899   1.798  1.2313 -0.2747 -0.1371
18804TIP3   OH277902   2.175   1.218   0.398  0.5055 -0.4921  0.4965
18804TIP3    H177903   2.134   1.150   0.344  1.8986 -1.1171  0.2112
18804TIP3    H277904   2.264   1.187   0.413  1.7361  2.0455 -1.0566
18805TIP3   OH277905   4.622   6.104   3.960 -0.0421  0.2465 -0.0125
18805TIP3    H177906   4.611   6.191   3.922  0.1951  1.1639  1.9446
18805TIP3    H277907   4.715   6.085   3.952 -0.2183 -0.1570 -1.1274
18806TIP3   OH277908   2.454   2.914  15.343 -0.3035 -0.8893  0.2014
18806TIP3    H177909   2.514   2.892  15.415  1.1574 -0.1252 -0.7609
18806TIP3    H277910   2.418   2.829  15.316 -0.8385 -1.1960  1.7738
18807TIP3   OH277911   4.530   4.786   0.834  0.2629  0.3419 -0.4461
18807TIP3    H177912   4.621   4.764   0.855  0.1774 -2.2998 -2.6616
18807TIP3    H277913   4.478   4.726   0.886 -0.2080  1.1780  0.0568
18808TIP3   OH277914   1.594   5.502   2.039  0.1479  0.6240  0.3564
18808TIP3    H177915   1.638   5.586   2.051  3.8269 -1.1514  0.0788
18808TIP3    H277916   1.605   5.457   2.123 -1.3065  0.2013  0.3269
18809TIP3   OH277917   1.352   0.742   3.141 -0.2413  0.1319 -0.2038
18809TIP3    H177918   1.334   0.831   3.109  0.2708  0.2784 -0.0855
18809TIP3    H277919   1.413   0.706   3.077 -1.0385 -0.4122 -0.6711
18810TIP3   OH277920   0.685   4.638  13.564  0.1144  0.0327  0.5256
18810TIP3    H177921   0.768   4.672  13.595 -0.2202 -0.0467  1.5350
18810TIP3    H277922   0.704   4.549  13.536  0.7139  0.5745 -0.8604
18811TIP3   OH277923   1.248   2.024  17.221 -0.0318  0.2513  0.2538
18811TIP3    H177924   1.158   2.017  17.191 -0.4654  1.3752  1.2622
18811TIP3    H277925   1.272   1.935  17.248 -1.0323  0.0703  0.5370
18812TIP3   OH277926   4.657   0.109  13.672 -0.3791  0.6306 -0.5595
18812TIP3    H177927   4.674   0.033  13.616  0.1812 -0.5132  1.1560
18812TIP3    H277928   4.706   0.180  13.630  0.1511 -0.2389 -1.4455
18813TIP3   OH277929   5.084   6.253  16.553 -0.0261  0.0567 -0.4204
18813TIP3    H177930   5.175   6.278  16.536  0.7897 -1.2455  1.7629
18813TIP3    H277931   5.053   6.316  16.618 -0.9676  1.0001 -1.7655
18814TIP3   OH277932   6.202   4.308  16.647  0.3674 -0.1463  0.0121
18814TIP3    H177933   6.231   4.234  16.700  0.7778  0.8753  1.2456
18814TIP3    H277934   6.175   4.374  16.711 -0.0720  0.7408 -1.0700
18815TIP3   OH277935   1.048   1.169  14.907  0.1485  0.3301  0.0553
18815TIP3    H177936   1.123   1.229  14.913  0.2335  0.1112  1.2854
18815TIP3    H277937   0.979   1.212  14.958 -0.0816 -0.1914  0.1838
18816TIP3   OH277938   2.029   5.885   4.129  0.0789  0.5171 -0.1386
18816TIP3    H177939   2.034   5.820   4.060 -0.4572 -2.6032  2.6281
18816TIP3    H277940   1.935   5.901   4.140  0.2023  1.7270 -0.7311
18817TIP3   OH277941   0.646   6.723  16.851  0.1577 -0.4771  0.7020
18817TIP3    H177942   0.583   6.785  16.812 -0.1375  0.4929  2.6799
18817TIP3    H277943   0.720   6.724  16.790 -1.3975 -1.0989 -1.2890
18818TIP3   OH277944   2.697   0.240  11.847 -0.0220 -0.1377 -0.5563
18818TIP3    H177945   2.619   0.296  11.846 -1.9877 -2.7117  1.6249
18818TIP3    H277946   2.688   0.183  11.771 -0.3527 -0.5478 -0.2099
18819TIP3   OH277947   6.061   1.902   3.534  0.3286  0.4131  0.4168
18819TIP3    H177948   6.008   1.840   3.485  2.2838  0.3405 -1.6751
18819TIP3    H277949   6.125   1.848   3.580  0.1196  0.6818  1.0349
18820TIP3   OH277950   6.358   4.119   2.519  0.3632 -0.1061  0.5507
18820TIP3    H177951   6.263   4.132   2.522  0.1535 -1.3680 -0.3673
18820TIP3    H277952   6.388   4.147   2.605 -0.6896  1.4215  0.4541
18821TIP3   OH277953   1.945   0.599   3.544 -0.1837  0.5408  0.7205
18821TIP3    H177954   1.871   0.656   3.523  0.4382  0.9153 -0.4873
18821TIP3    H277955   2.022   0.654   3.529  0.4652 -0.8331 -1.2300
18822TIP3   OH277956   5.573   0.299  15.804 -0.2388  0.3990 -0.0086
18822TIP3    H177957   5.583   0.393  15.821  0.6087  0.1910  0.6678
18822TIP3    H277958   5.655   0.273  15.763  0.4715 -0.4995  1.8983
18823TIP3   OH277959   3.513   1.518  13.936  0.1418 -0.2658  0.0007
18823TIP3    H177960   3.549   1.595  13.892 -0.3821 -0.0771 -0.1011
18823TIP3    H277961   3.530   1.445  13.877  0.5778 -0.2164  0.0654
18824TIP3   OH277962   3.081   0.179  12.837 -0.1721 -0.1581  0.3984
18824TIP3    H177963   3.162   0.173  12.889  1.4697  1.4696 -1.8556
18824TIP3    H277964   3.051   0.269  12.852  0.2445  0.2772 -1.3346
18825TIP3   OH277965   4.774   0.747   1.336 -0.0694 -0.1917  0.0306
18825TIP3    H177966   4.831   0.684   1.380 -2.0458 -0.3694  2.4458
18825TIP3    H277967   4.718   0.694   1.279  0.1998 -0.3192 -0.1146
18826TIP3   OH277968   2.284   0.552  11.243 -0.1048 -0.5605 -0.9670
18826TIP3    H177969   2.205   0.533  11.193  0.3533  0.9841 -2.3287
18826TIP3    H277970   2.351   0.497  11.203 -0.2090 -0.9328 -0.6335
18827TIP3   OH277971   2.091   5.501  12.565  0.2636 -0.1157 -0.4124
18827TIP3    H177972   2.120   5.567  12.627 -2.8461 -1.8036  3.0553
18827TIP3    H277973   2.016   5.541  12.521  0.1543 -0.3015 -0.3936
18828TIP3   OH277974   1.021   0.386  12.274  0.6919  0.5677 -0.8152
18828TIP3    H177975   1.083   0.421  12.211  2.4127 -0.4491  0.2576
18828TIP3    H277976   1.051   0.420  12.359 -1.0029  1.1307 -0.4184
18829TIP3   OH277977   3.788   1.839  10.793  0.7304 -0.0470 -0.1216
18829TIP3    H177978   3.729   1.885  10.733  0.8142  1.7251  1.1189
18829TIP3    H277979   3.869   1.891  10.792  0.6621  0.1224  1.6533
18830TIP3   OH277980   5.150   0.460   1.245 -0.2862 -0.4334  0.1781
18830TIP3    H177981   5.163   0.555   1.246 -0.2412 -0.4374 -0.0139
18830TIP3    H277982   5.057   0.448   1.262 -0.3869 -0.3385 -0.3114
18831TIP3   OH277983   2.218   6.657  12.391 -0.1292  0.0193 -0.1047
18831TIP3    H177984   2.302   6.642  12.435  0.1467 -0.0362 -0.6511
18831TIP3    H277985   2.174   6.723  12.445 -0.1386 -0.6456  0.7217
18832TIP3   OH277986   1.332   1.161  10.738  0.7245 -0.2483  0.2510
18832TIP3    H177987   1.315   1.108  10.660  0.0307  0.9214 -0.3999
18832TIP3    H277988   1.374   1.241  10.704 -2.6324  1.7889  0.6752
18833TIP3   OH277989   1.925   6.707  12.941 -0.4806 -0.7579 -0.4302
18833TIP3    H177990   2.013   6.689  12.910 -0.1146 -1.4898  0.9625
18833TIP3    H277991   1.868   6.687  12.867  0.3528 -2.5148 -0.6200
18834TIP3   OH277992   2.951   4.046  16.109  0.1034 -0.2749  0.5226
18834TIP3    H177993   2.935   3.956  16.138 -3.5887  0.1033 -0.0399
18834TIP3    H277994   2.864   4.088  16.111  1.4226  2.7383 -1.0135
18835TIP3   OH277995   2.634   3.694  14.851 -0.2967 -0.9457  0.2434
18835TIP3    H177996   2.681   3.724  14.929  0.5815 -2.3474  0.2826
18835TIP3    H277997   2.592   3.772  14.816 -0.5832 -0.2785  2.0377
18836TIP3   OH277998   0.624   5.917   3.914 -0.1517 -0.0921  1.1990
18836TIP3    H177999   0.621   5.829   3.951  3.1790 -0.0055  1.7829
18836TIP3    H278000   0.551   5.963   3.957 -1.5861 -2.3527  1.3002
18837TIP3   OH278001   2.167   6.071   2.101  0.5706  0.3367 -0.3735
18837TIP3    H178002   2.216   6.148   2.072  1.4698 -0.2660 -0.4854
18837TIP3    H278003   2.083   6.106   2.131  0.2164  1.1424 -2.2212
18838TIP3   OH278004   3.943   5.443   5.160 -0.2643  0.6697 -0.4490
18838TIP3    H178005   4.002   5.479   5.227  0.2666 -0.3884 -0.3300
18838TIP3    H278006   3.968   5.487   5.079  0.0460  0.9289 -0.2127
18839TIP3   OH278007   3.738   6.414   1.198 -0.2410  0.5569 -0.0987
18839TIP3    H178008   3.732   6.486   1.261  0.9980 -0.5596  1.3344
18839TIP3    H278009   3.665   6.428   1.139  1.1251  4.1374 -1.0806
18840TIP3   OH278010   0.970   5.414   4.689 -0.0111  0.2204  0.0151
18840TIP3    H178011   0.901   5.358   4.653 -0.8625  0.3627  1.4046
18840TIP3    H278012   0.964   5.402   4.784  1.2312  0.9910  0.2015
18841TIP3   OH278013   4.215   2.348  14.464  0.0981 -0.1311 -0.4055
18841TIP3    H178014   4.187   2.335  14.554 -0.0868  2.1297 -0.1178
18841TIP3    H278015   4.310   2.335  14.466  0.1618  0.4464  0.2086
18842TIP3   OH278016   0.908   3.076   3.909 -0.0908  0.0763  0.3146
18842TIP3    H178017   0.926   3.131   3.985  1.3845  1.4390 -0.9958
18842TIP3    H278018   0.994   3.054   3.874 -0.7587 -0.0526 -1.3064
18843TIP3   OH278019   2.872   2.184  13.031 -0.4952  0.2896  0.7179
18843TIP3    H178020   2.915   2.264  13.062 -3.3640  1.3054  2.2687
18843TIP3    H278021   2.856   2.199  12.938  1.1477  0.4859  0.4529
18844TIP3   OH278022   5.592   0.226  16.067  0.7429  0.1801  0.8305
18844TIP3    H178023   5.608   0.236  15.973  0.9350 -0.8634  0.7411
18844TIP3    H278024   5.524   0.291  16.087 -0.7234 -0.9176 -0.4380
18845TIP3   OH278025   1.001   3.769   1.029  0.1364 -0.1169 -0.6880
18845TIP3    H178026   1.063   3.721   0.975 -1.8573 -2.0964 -1.2934
18845TIP3    H278027   0.920   3.770   0.978 -0.2906  2.6425 -0.0356
18846TIP3   OH278028   0.200   4.660  12.454  0.0656  0.1397  0.4266
18846TIP3    H178029   0.269   4.656  12.521 -0.0035 -0.3407  0.4724
18846TIP3    H278030   0.123   4.692  12.501  0.4761  1.4959  0.1934
18847TIP3   OH278031   5.448   0.789   1.140 -0.8407 -0.1697  0.5570
18847TIP3    H178032   5.360   0.796   1.103 -0.2580 -1.8259 -1.1485
18847TIP3    H278033   5.491   0.721   1.089  1.8946  1.5444  0.4783
18848TIP3   OH278034   3.776   6.293   6.475  0.2315 -0.1661  0.8715
18848TIP3    H178035   3.759   6.200   6.491 -2.1862 -0.4726 -2.8864
18848TIP3    H278036   3.864   6.296   6.438  0.2365 -0.9590  0.8119
18849TIP3   OH278037   5.844   2.720   5.891  0.1631 -0.1281  0.1199
18849TIP3    H178038   5.874   2.640   5.935 -2.3056 -1.0825  0.1528
18849TIP3    H278039   5.803   2.772   5.960 -1.2118 -0.3527 -0.5188
18850TIP3   OH278040   3.329   3.362   6.607 -0.8375  0.6254  0.4863
18850TIP3    H178041   3.321   3.270   6.630  0.5394  0.1242 -0.9251
18850TIP3    H278042   3.309   3.409   6.687  0.8427 -0.9719  1.8904
18851TIP3   OH278043   6.729   2.967  16.050 -0.4822 -0.1082 -1.3461
18851TIP3    H178044   6.752   2.974  16.143 -0.5031  3.3752 -1.5609
18851TIP3    H278045   6.812   2.950  16.006 -0.6747 -3.4407 -0.6301
18852TIP3   OH278046   1.506   1.402  13.653 -0.5361 -0.1753  0.8118
18852TIP3    H178047   1.583   1.352  13.681  0.1292  0.7153  0.5856
18852TIP3    H278048   1.502   1.390  13.558  0.6833  1.6682  0.5121
18853TIP3   OH278049   4.583   5.554  16.690 -0.4271 -1.1826 -0.3430
18853TIP3    H178050   4.632   5.630  16.658  1.2592 -1.7435  0.8344
18853TIP3    H278051   4.511   5.593  16.741  0.6025 -0.3481  0.5140
18854TIP3   OH278052   4.028   5.177  14.583  0.1031  0.4702 -0.1212
18854TIP3    H178053   4.102   5.175  14.523  0.8411 -2.3906  0.8254
18854TIP3    H278054   3.952   5.188  14.526  1.0135  0.6130 -1.3378
18855TIP3   OH278055   3.117   0.609   1.932  0.6736 -0.2076  0.5519
18855TIP3    H178056   3.052   0.610   1.863  0.4798 -0.0669  0.7380
18855TIP3    H278057   3.195   0.648   1.893  1.0308 -1.4909 -0.0548
18856TIP3   OH278058   5.339   5.240   1.949 -0.0740  0.2315  0.0084
18856TIP3    H178059   5.429   5.243   1.917  0.5157 -0.3414  1.5267
18856TIP3    H278060   5.341   5.294   2.028 -0.8267 -0.5779  0.5850
18857TIP3   OH278061   5.326   5.193   4.988  0.2954 -0.6572  0.3140
18857TIP3    H178062   5.340   5.194   5.083  1.0248 -0.3525  0.2109
18857TIP3    H278063   5.414   5.184   4.951  0.3896  2.6109 -0.4207
18858TIP3   OH278064   2.699   5.004   5.927 -0.2951 -0.1812  0.2981
18858TIP3    H178065   2.633   4.973   5.864 -0.5696  1.4502 -0.2348
18858TIP3    H278066   2.650   5.062   5.985  0.9618  2.3236 -1.0736
18859TIP3   OH278067   5.181   4.333  11.281  0.0761 -0.5803 -1.0257
18859TIP3    H178068   5.200   4.267  11.215  3.3722  1.3352 -2.1244
18859TIP3    H278069   5.248   4.320  11.348 -2.0763 -1.2719  1.0799
18860TIP3   OH278070   3.133   2.948   0.356 -0.2323 -0.1249 -0.0116
18860TIP3    H178071   3.146   2.872   0.299  1.4037 -0.5429  0.9086
18860TIP3    H278072   3.116   2.911   0.442  0.8415  0.5396  0.4959
18861TIP3   OH278073   6.204   2.554  11.399 -0.0749 -0.0919 -0.0424
18861TIP3    H178074   6.254   2.482  11.437  0.5984  1.2062  1.5502
18861TIP3    H278075   6.117   2.517  11.382  0.7007 -1.6848 -0.6376
18862TIP3   OH278076   6.480   3.605  12.690 -0.3561 -0.1078 -0.6845
18862TIP3    H178077   6.516   3.528  12.645  2.2015  0.7020 -0.0956
18862TIP3    H278078   6.545   3.626  12.757 -1.8142  1.6120  0.2271
18863TIP3   OH278079   5.527   3.148  14.230 -0.4609 -0.5274  0.1653
18863TIP3    H178080   5.600   3.136  14.169 -1.7971  0.0974 -1.6412
18863TIP3    H278081   5.473   3.216  14.188 -0.8568  0.7013  2.6194
18864TIP3   OH278082   2.020   5.202   2.679  0.4682  0.3226 -0.5341
18864TIP3    H178083   1.986   5.290   2.664 -3.3654 -0.8908  0.4946
18864TIP3    H278084   2.046   5.202   2.772  0.7545  0.4275 -0.6121
18865TIP3   OH278085   0.957   5.690   1.718 -0.1981 -0.2643 -0.3161
18865TIP3    H178086   0.924   5.774   1.686  1.4926  0.1150 -1.1223
18865TIP3    H278087   0.879   5.635   1.726 -1.3691  1.4505  0.4695
18866TIP3   OH278088   6.424   2.645   0.901  0.1821 -0.4396  0.0008
18866TIP3    H178089   6.405   2.591   0.977  1.1794  1.1614  1.4304
18866TIP3    H278090   6.347   2.702   0.892 -0.5827 -1.6083 -1.1128
18867TIP3   OH278091   0.913   1.641  12.309  0.1705 -0.2033  0.2222
18867TIP3    H178092   0.892   1.638  12.215  0.2505 -3.1814  0.2563
18867TIP3    H278093   0.829   1.625  12.353 -0.1024  2.4004  0.7367
18868TIP3   OH278094   4.135   6.202  13.952 -0.0694  0.7716  0.2763
18868TIP3    H178095   4.110   6.115  13.982 -1.9750  1.0009 -0.5381
18868TIP3    H278096   4.182   6.241  14.025 -0.7466 -0.2977  1.2869
18869TIP3   OH278097   1.091   5.969  12.557  0.4955 -0.0431 -0.1008
18869TIP3    H178098   1.145   5.995  12.631  0.4813 -1.0588  0.2718
18869TIP3    H278099   1.111   5.876  12.543  1.9260  0.5902 -2.5924
18870TIP3   OH278100   0.346   1.855  13.109  0.0625  0.0779 -0.2193
18870TIP3    H178101   0.293   1.786  13.071 -0.8302  0.7214 -0.1638
18870TIP3    H278102   0.363   1.825  13.198 -1.9268  0.7778  0.4337
18871TIP3   OH278103   6.114   1.824   3.241 -0.2345 -0.5589  0.7068
18871TIP3    H178104   6.180   1.850   3.306  0.3896  2.7140 -1.1157
18871TIP3    H278105   6.145   1.739   3.208  2.1324  0.0717  1.1822
18872TIP3   OH278106   4.568   0.360  15.165 -0.1510  0.5234  0.2005
18872TIP3    H178107   4.622   0.349  15.244 -0.3884 -0.5912  0.2065
18872TIP3    H278108   4.481   0.329  15.190 -0.3137  0.4783 -0.4074
18873TIP3   OH278109   5.605   0.922  17.218 -0.3706 -0.2383  0.6401
18873TIP3    H178110   5.516   0.925  17.182 -0.6495  0.9789  1.3662
18873TIP3    H278111   5.609   0.999  17.276  1.2245 -0.1651  0.4449
18874TIP3   OH278112   4.242   4.248  15.726 -0.0578 -0.0470 -0.2015
18874TIP3    H178113   4.303   4.257  15.799  0.1521 -0.5155 -0.3122
18874TIP3    H278114   4.168   4.302  15.750  0.5595  0.8165 -0.2266
18875TIP3   OH278115   1.081   5.994   5.617  0.0752 -0.3368  0.5013
18875TIP3    H178116   1.054   5.956   5.700 -1.8793 -1.5499 -0.6469
18875TIP3    H278117   1.174   6.014   5.629 -0.3549  0.3103  3.2374
18876TIP3   OH278118   1.778   6.503  11.428  0.6279 -0.3726 -0.1318
18876TIP3    H178119   1.782   6.508  11.333 -1.8212 -1.3318 -0.3319
18876TIP3    H278120   1.712   6.568  11.453  0.8695 -0.4939  0.8574
18877TIP3   OH278121   2.787   3.143  14.553  0.5843  0.1312 -0.1473
18877TIP3    H178122   2.838   3.077  14.505  1.1891 -0.0063  0.6601
18877TIP3    H278123   2.788   3.111  14.643  0.5327  1.0417  0.1731
18878TIP3   OH278124   1.821   0.995  16.011  0.1226  0.7236 -0.5778
18878TIP3    H178125   1.859   1.083  16.007  0.2957  0.8014  2.1063
18878TIP3    H278126   1.890   0.941  16.049 -0.8859 -0.0575  0.1657
18879TIP3   OH278127   1.489   6.237   5.201 -0.1268  0.0940 -0.0999
18879TIP3    H178128   1.532   6.283   5.129  0.0532  0.7539  0.4208
18879TIP3    H278129   1.398   6.230   5.174  0.4716 -2.3397 -1.7364
18880TIP3   OH278130   4.336   3.966   0.318 -0.0152  0.0869  0.3692
18880TIP3    H178131   4.292   4.050   0.302  0.8400  0.5199  0.2887
18880TIP3    H278132   4.399   3.984   0.388 -0.1623 -0.6012  0.6820
18881TIP3   OH278133   0.014   1.951  16.583 -0.1442 -0.3173  0.2398
18881TIP3    H178134   0.067   2.027  16.561 -1.1326  0.6412  1.1173
18881TIP3    H278135   0.032   1.934  16.675 -1.7980  0.3829  0.7019
18882TIP3   OH278136   5.880   4.166  16.260 -0.8658 -0.1940  0.8014
18882TIP3    H178137   5.914   4.124  16.181 -0.3414 -0.0691  0.9555
18882TIP3    H278138   5.957   4.206  16.301 -1.6676  2.6142 -0.3654
18883TIP3   OH278139   0.305   4.493   2.710  0.2480 -0.4513  0.4536
18883TIP3    H178140   0.246   4.512   2.783 -0.6518 -2.9134  0.4193
18883TIP3    H278141   0.293   4.566   2.650 -1.1788  0.1590  1.4503
18884TIP3   OH278142   6.029   2.584  13.204  0.0987 -0.0206 -1.0163
18884TIP3    H178143   6.028   2.648  13.276 -0.2061  0.3697 -1.3598
18884TIP3    H278144   5.990   2.505  13.242  0.7262 -0.0890 -0.5117
18885TIP3   OH278145   0.670   3.854  16.306  0.6415 -0.4521  0.2304
18885TIP3    H178146   0.762   3.828  16.303  1.4659  2.3375 -0.4604
18885TIP3    H278147   0.671   3.939  16.351 -1.7701 -1.0487  1.4933
18886TIP3   OH278148   3.458   1.648  14.937  0.1467 -0.5582  0.1888
18886TIP3    H178149   3.458   1.626  14.843 -3.5009 -0.3316  0.0809
18886TIP3    H278150   3.444   1.742  14.939 -2.1834 -0.8967  0.9767
18887TIP3   OH278151   4.564   2.097   4.180 -0.1718  0.4010 -0.0878
18887TIP3    H178152   4.473   2.078   4.202 -0.1195  1.5237  1.1111
18887TIP3    H278153   4.611   2.016   4.199 -0.8094  0.0182 -0.1240
18888TIP3   OH278154   1.447   6.111  15.219  0.3730  0.7170 -0.1691
18888TIP3    H178155   1.541   6.132  15.215  0.5786 -0.2281 -0.6767
18888TIP3    H278156   1.435   6.074  15.306  1.0442 -1.6184 -1.0116
18889TIP3   OH278157   5.945   6.818  11.356  0.2484  0.0697  0.2474
18889TIP3    H178158   6.041   6.809  11.357  0.1227 -1.3788  0.2862
18889TIP3    H278159   5.923   6.848  11.444  0.7121  1.0138  0.0514
18890TIP3   OH278160   2.164   5.997   1.059  0.2400  0.2814  0.9034
18890TIP3    H178161   2.120   5.912   1.051 -0.2614  0.6260 -0.0114
18890TIP3    H278162   2.195   6.017   0.971  2.0710  0.1401  1.4806
18891TIP3   OH278163   1.292   1.616   3.330  0.0400 -0.0050  0.0680
18891TIP3    H178164   1.361   1.679   3.351  0.8124 -0.6283 -0.5911
18891TIP3    H278165   1.215   1.650   3.375  0.5975  1.0851  0.2186
18892TIP3   OH278166   0.600   0.670   1.809  0.1507 -0.0946 -0.2697
18892TIP3    H178167   0.521   0.643   1.762  0.4007  1.8617 -1.9142
18892TIP3    H278168   0.646   0.589   1.830 -2.1197 -1.2193  0.3944
18893TIP3   OH278169   5.237   4.483  11.726  0.2539  1.0466 -0.7807
18893TIP3    H178170   5.297   4.540  11.677 -0.3773  0.9878 -1.6443
18893TIP3    H278171   5.184   4.544  11.777 -0.0555  1.2118 -1.2882
18894TIP3   OH278172   6.044   0.049   1.049  0.6790 -0.3552 -0.0349
18894TIP3    H178173   6.097   0.028   1.126 -0.3475 -5.0347 -0.4478
18894TIP3    H278174   6.099   0.024   0.975 -0.0502 -0.1190 -0.6549
18895TIP3   OH278175   2.730   0.099   5.592  0.1482  0.0585 -0.2354
18895TIP3    H178176   2.816   0.071   5.626 -0.4849 -0.7169  0.7602
18895TIP3    H278177   2.751   0.149   5.513  1.5906  1.0136  0.7304
18896TIP3   OH278178   0.757   1.307   2.486  0.4953  0.5148 -0.0230
18896TIP3    H178179   0.772   1.212   2.488  0.2122  0.4744  0.1000
18896TIP3    H278180   0.685   1.322   2.546 -0.6958  0.5802 -1.4380
18897TIP3   OH278181   2.230   2.332  15.734 -0.0311 -0.2766 -0.1009
18897TIP3    H178182   2.271   2.356  15.651  0.3128  0.7713  0.3650
18897TIP3    H278183   2.227   2.414  15.783 -1.2600 -0.6679  0.4818
18898TIP3   OH278184   2.297   1.353   3.830 -0.0655 -0.1176  0.1971
18898TIP3    H178185   2.340   1.399   3.759  3.1069 -0.3305  1.8636
18898TIP3    H278186   2.312   1.260   3.811 -0.6595 -0.2270  0.2632
18899TIP3   OH278187   4.418   2.082  12.194 -0.3099 -0.4077  0.2008
18899TIP3    H178188   4.348   2.148  12.200  0.6183  0.6218 -0.0354
18899TIP3    H278189   4.402   2.023  12.268 -1.0437  0.2115  0.5417
18900TIP3   OH278190   1.395   6.496   0.858 -0.2724  0.0110 -0.1625
18900TIP3    H178191   1.478   6.544   0.861  0.6443 -1.5900  0.1829
18900TIP3    H278192   1.414   6.411   0.897 -1.8493 -0.7161 -0.9263
18901TIP3   OH278193   1.620   3.705  17.061 -0.1361 -0.0197  0.7670
18901TIP3    H178194   1.714   3.722  17.064 -0.4692  1.6231  2.5288
18901TIP3    H278195   1.609   3.622  17.108  0.4925 -0.5562 -0.0223
18902TIP3   OH278196   6.694   5.511   0.711 -0.1672  0.0260 -0.1509
18902TIP3    H178197   6.629   5.577   0.687 -0.6917 -0.3832  0.1407
18902TIP3    H278198   6.678   5.493   0.803  1.8567  1.5965  0.5178
18903TIP3   OH278199   0.392   1.376  12.299  0.4596 -0.6440  0.5200
18903TIP3    H178200   0.385   1.453  12.355 -1.1559 -0.4314  0.0391
18903TIP3    H278201   0.323   1.317  12.331  2.0051 -2.1099  1.2210
18904TIP3   OH278202   6.667   1.191  16.673  0.2447 -0.4078  0.2189
18904TIP3    H178203   6.665   1.165  16.581  0.1350 -1.2623  0.4588
18904TIP3    H278204   6.586   1.157  16.710 -1.1908  2.5389 -0.0411
18905TIP3   OH278205   1.578   2.734   2.929 -0.2803 -0.4147 -0.0288
18905TIP3    H178206   1.596   2.645   2.958  1.1517 -0.1170  0.0130
18905TIP3    H278207   1.586   2.731   2.834 -0.9801 -0.4888 -0.0908
18906TIP3   OH278208   2.074   0.648   1.424 -0.0461  0.0901  0.2523
18906TIP3    H178209   2.052   0.555   1.410 -0.0295  0.1304 -0.0586
18906TIP3    H278210   2.031   0.693   1.351  1.9080  0.0660 -0.9329
18907TIP3   OH278211   1.038   1.506   6.226 -0.5211  0.1468  0.7019
18907TIP3    H178212   1.060   1.469   6.312 -1.1732  1.1413  1.3136
18907TIP3    H278213   0.973   1.574   6.246 -0.7870  0.2782 -0.6003
18908TIP3   OH278214   2.029   0.565   4.468  0.1477 -0.3654  0.0193
18908TIP3    H178215   2.044   0.647   4.422  0.6779 -0.9130 -0.8074
18908TIP3    H278216   1.968   0.587   4.538  0.5767  0.8080  0.0406
18909TIP3   OH278217   4.586   6.391  16.694 -0.5821 -0.0361 -0.3518
18909TIP3    H178218   4.511   6.356  16.743 -0.6082 -0.1902 -0.5009
18909TIP3    H278219   4.606   6.474  16.738  0.1325 -0.7276  0.6576
18910TIP3   OH278220   2.462   3.744  12.283  0.0534  0.1775  0.4188
18910TIP3    H178221   2.493   3.792  12.360  0.0482 -1.1551  1.2522
18910TIP3    H278222   2.542   3.724  12.234  0.1819 -0.1043  0.7382
18911TIP3   OH278223   0.074   4.835   2.335 -0.1353 -0.1731 -0.3924
18911TIP3    H178224   0.047   4.765   2.275  0.1689  0.0617 -0.8083
18911TIP3    H278225   0.003   4.899   2.331 -0.8294 -0.8603  0.6589
18912TIP3   OH278226   6.763   4.629   3.214 -0.0166 -0.5543  0.8840
18912TIP3    H178227   6.796   4.707   3.168 -1.8416 -0.1306  0.2403
18912TIP3    H278228   6.734   4.571   3.144  2.2307 -2.2771  1.3189
18913TIP3   OH278229   6.438   3.316   4.308  0.0246  0.5052  0.1447
18913TIP3    H178230   6.521   3.272   4.291  0.4154  1.0539  0.6148
18913TIP3    H278231   6.382   3.248   4.345  0.6035  0.3830  0.8078
18914TIP3   OH278232   1.174   5.849  13.382  0.7856 -0.7644  0.9441
18914TIP3    H178233   1.095   5.881  13.427  1.4675 -1.0983  2.4087
18914TIP3    H278234   1.226   5.809  13.451  3.1718  1.2499  0.3670
18915TIP3   OH278235   4.327   6.749   6.182  0.5834 -0.0543  0.0734
18915TIP3    H178236   4.396   6.723   6.243  1.0923  0.3856 -0.3094
18915TIP3    H278237   4.311   6.841   6.202  0.1927 -0.1267  0.0828
18916TIP3   OH278238   5.198   0.528  11.173  0.3805 -0.1652  0.1029
18916TIP3    H178239   5.237   0.578  11.244 -0.8133 -0.7109  1.1685
18916TIP3    H278240   5.133   0.587  11.135  2.1794  0.7450 -1.6691
18917TIP3   OH278241   5.726   1.283   0.611  0.4882 -0.6913 -0.2475
18917TIP3    H178242   5.734   1.374   0.639  0.2886 -0.2362 -1.5940
18917TIP3    H278243   5.637   1.277   0.575 -0.1129 -1.8843  1.4231
18918TIP3   OH278244   1.800   6.147  16.446  0.1598  0.2991 -0.3533
18918TIP3    H178245   1.837   6.115  16.529  0.0993  1.8852  0.2901
18918TIP3    H278246   1.856   6.108  16.379  1.1280  0.2096  0.4945
18919TIP3   OH278247   0.619   2.916  13.056 -0.2000  0.3454 -0.1976
18919TIP3    H178248   0.597   2.830  13.092  0.0043  0.7660  0.9475
18919TIP3    H278249   0.610   2.905  12.962  1.3587 -1.3596 -0.1792
18920TIP3   OH278250   4.148   0.079   3.434 -0.1515  0.3234  0.1701
18920TIP3    H178251   4.241   0.062   3.421 -0.4557 -1.0293 -0.2859
18920TIP3    H278252   4.143   0.173   3.453  1.0616  0.9492 -2.3682
18921TIP3   OH278253   3.896   0.070   4.010 -0.5376 -0.2744 -0.4680
18921TIP3    H178254   3.888  -0.024   4.029  2.9769 -0.8014 -1.2753
18921TIP3    H278255   3.980   0.095   4.047  0.5526  1.5793 -3.9869
18922TIP3   OH278256   2.167   4.565   3.303 -0.1313 -0.1482  0.3669
18922TIP3    H178257   2.164   4.552   3.208  1.1608 -0.6036  0.3829
18922TIP3    H278258   2.238   4.508   3.333 -0.4398  0.0988  1.5930
18923TIP3   OH278259   2.480   0.794  13.347  0.0118  0.4033  0.2810
18923TIP3    H178260   2.505   0.886  13.348  1.4577  0.0363 -0.2078
18923TIP3    H278261   2.559   0.747  13.375 -0.1226 -0.7935 -1.2503
18924TIP3   OH278262   5.282   2.159   3.934 -0.0257 -0.7462  0.7667
18924TIP3    H178263   5.305   2.245   3.969  0.8757 -0.4348 -0.5433
18924TIP3    H278264   5.343   2.146   3.861  0.0409 -2.6266  1.1491
18925TIP3   OH278265   3.051   6.626  14.203 -0.0711 -0.3623  0.0151
18925TIP3    H178266   3.052   6.531  14.191  1.3853 -0.4593  0.7972
18925TIP3    H278267   3.114   6.659  14.139  0.8026 -0.0977  0.9917
18926TIP3   OH278268   6.116   5.567   4.833 -0.0649  0.0614  0.4413
18926TIP3    H178269   6.109   5.479   4.869 -1.4721 -0.0260 -0.0068
18926TIP3    H278270   6.063   5.621   4.892  0.6127  0.5654  0.5876
18927TIP3   OH278271   2.328   4.054   1.043  0.2784 -0.8110  0.0065
18927TIP3    H178272   2.267   3.993   1.001 -0.8057 -0.3739  0.9264
18927TIP3    H278273   2.380   3.999   1.102  0.9375 -1.2186 -0.9398
18928TIP3   OH278274   4.964   4.355   3.890  0.5610  0.0653  0.3713
18928TIP3    H178275   4.965   4.267   3.852 -1.9347 -0.2705  0.9495
18928TIP3    H278276   5.002   4.411   3.824  3.8477 -1.6913  0.6804
18929TIP3   OH278277   1.551   0.219  11.614 -0.2478  0.1732 -0.2613
18929TIP3    H178278   1.495   0.200  11.539  1.3848 -2.1859 -0.9539
18929TIP3    H278279   1.506   0.178  11.688 -0.1859 -0.4231 -0.5514
18930TIP3   OH278280   6.472   2.409  14.651 -0.6481 -0.0540 -0.5101
18930TIP3    H178281   6.440   2.438  14.566 -0.6679  0.9773 -0.1654
18930TIP3    H278282   6.397   2.364  14.690 -1.7475  2.3391  0.2874
18931TIP3   OH278283   2.179   0.018   0.689 -0.1034  0.0232 -0.3553
18931TIP3    H178284   2.195  -0.062   0.738  0.8887 -0.1730 -0.9832
18931TIP3    H278285   2.225   0.005   0.606 -3.0237 -0.2771 -1.9831
18932TIP3   OH278286   5.698   3.992  14.182  0.1595 -0.6164 -0.0372
18932TIP3    H178287   5.730   3.961  14.266  1.8385 -0.2808 -0.5387
18932TIP3    H278288   5.603   3.999  14.193  0.5473  1.1975  2.4291
18933TIP3   OH278289   5.114   2.564   1.803 -0.1923 -0.0135  0.2547
18933TIP3    H178290   5.031   2.606   1.782 -0.2124 -0.1899 -0.0244
18933TIP3    H278291   5.095   2.470   1.800  0.4126 -0.0899 -1.4983
18934TIP3   OH278292   1.621   2.378   5.007 -1.0109  0.1699  0.2149
18934TIP3    H178293   1.638   2.467   4.977 -1.7272  0.3960  0.4554
18934TIP3    H278294   1.596   2.388   5.099 -1.0052 -0.2874  0.2660
18935TIP3   OH278295   2.125   6.507  12.724  0.2827 -0.4287 -0.2376
18935TIP3    H178296   2.086   6.467  12.802  0.5961 -0.1445  0.0662
18935TIP3    H278297   2.051   6.545  12.676  0.1418 -0.2114  0.1497
18936TIP3   OH278298   5.324   2.830   1.135 -0.3590 -0.0524  0.2081
18936TIP3    H178299   5.297   2.808   1.224  2.1096  1.8303  1.4723
18936TIP3    H278300   5.406   2.783   1.123 -0.0621  0.6776 -0.6470
18937TIP3   OH278301   1.631   0.560  13.787 -0.3002 -0.5263  0.3884
18937TIP3    H178302   1.677   0.640  13.762  0.3224 -0.4916  1.5912
18937TIP3    H278303   1.676   0.491  13.739  0.5066 -0.3889  0.9224
18938TIP3   OH278304   0.661   6.184  15.485 -0.0508 -0.2377  0.5527
18938TIP3    H178305   0.660   6.142  15.399  0.9819  0.4617  0.1874
18938TIP3    H278306   0.676   6.112  15.546  0.4532 -0.5784  0.0345
18939TIP3   OH278307   3.638   0.649   4.120 -0.4683  0.0548  0.3971
18939TIP3    H178308   3.551   0.645   4.159  0.4178 -0.7584  2.3787
18939TIP3    H278309   3.676   0.563   4.139 -0.1243 -0.5068 -2.6137
18940TIP3   OH278310   6.128   5.983  13.681  0.0524  0.1311  0.4334
18940TIP3    H178311   6.216   6.014  13.699  0.7520  0.3584 -2.9742
18940TIP3    H278312   6.127   5.892  13.711  1.9819 -0.3807 -1.0076
18941TIP3   OH278313   1.021   5.777  15.095  0.3582  0.0803  0.3225
18941TIP3    H178314   0.972   5.718  15.152  1.9841  0.0758  1.7254
18941TIP3    H278315   0.964   5.854  15.087 -1.6809 -1.5105 -1.3562
18942TIP3   OH278316   2.320   6.191   6.501  0.4083 -1.0660 -0.0144
18942TIP3    H178317   2.314   6.237   6.417  1.0523 -0.4407  0.2770
18942TIP3    H278318   2.413   6.184   6.519  0.2751  0.6403  1.6263
18943TIP3   OH278319   5.348   6.660   1.840 -0.0173 -0.1267  0.2050
18943TIP3    H178320   5.393   6.576   1.838  1.0906  0.4692 -0.7687
18943TIP3    H278321   5.255   6.638   1.834  0.3086 -1.2584 -0.9830
18944TIP3   OH278322   1.548   6.478  16.731 -0.2524 -0.5385 -0.1507
18944TIP3    H178323   1.507   6.421  16.665  1.1669 -1.0387 -0.6077
18944TIP3    H278324   1.514   6.565  16.712 -0.6525 -0.8557 -0.8920
18945TIP3   OH278325   4.457   3.443  15.334 -0.0293  0.1092 -0.1855
18945TIP3    H178326   4.485   3.356  15.304  1.2626  0.3148  0.3687
18945TIP3    H278327   4.527   3.502  15.305 -0.0531  0.6984  0.9040
18946TIP3   OH278328   2.921   6.144  11.829  0.3279  0.0421 -0.0157
18946TIP3    H178329   2.920   6.100  11.744 -1.7090  0.0064  0.0131
18946TIP3    H278330   2.874   6.084  11.887  0.5038  0.7048  0.8077
18947TIP3   OH278331   2.547   2.683  14.397 -0.3225  0.7024  0.2855
18947TIP3    H178332   2.596   2.744  14.342  2.6655 -1.6397  0.2054
18947TIP3    H278333   2.484   2.642  14.338 -0.3850  1.6250 -0.2990
18948TIP3   OH278334   1.644   4.574  13.088  0.4788 -0.0471  0.6065
18948TIP3    H178335   1.610   4.504  13.144  3.0618  0.5145  3.0178
18948TIP3    H278336   1.646   4.651  13.145  0.2134  1.3376 -1.2105
18949TIP3   OH278337   1.071   2.151   2.471 -0.2152 -0.4809 -0.1810
18949TIP3    H178338   1.123   2.137   2.551 -0.7002 -0.2612  0.1748
18949TIP3    H278339   1.002   2.212   2.498 -0.5965 -0.6923 -0.6775
18950TIP3   OH278340   3.370   0.195  13.207 -0.3888 -0.1029  0.1097
18950TIP3    H178341   3.344   0.149  13.127  0.2021 -0.2837  0.0115
18950TIP3    H278342   3.464   0.212  13.194  0.3669 -2.5934  1.9552
18951TIP3   OH278343   1.554   5.153   3.827  0.5834  0.4750  0.0074
18951TIP3    H178344   1.531   5.203   3.748 -0.3979 -0.5054 -0.3482
18951TIP3    H278345   1.636   5.110   3.805 -0.3679 -0.8863 -1.0140
18952TIP3   OH278346   2.824   6.456   7.125  0.4459  0.1704 -0.4843
18952TIP3    H178347   2.766   6.382   7.106  0.2322  0.6550 -1.7557
18952TIP3    H278348   2.856   6.439   7.214 -1.3073 -0.3215  0.0669
18953TIP3   OH278349   3.652   2.956   0.117  0.1885 -1.2639 -0.0155
18953TIP3    H178350   3.685   2.935   0.205 -1.2011 -1.9486  0.3537
18953TIP3    H278351   3.612   2.875   0.087 -0.0362 -0.8015 -0.9655
18954TIP3   OH278352   2.968   3.920   3.017 -0.2760 -0.1221  0.0460
18954TIP3    H178353   2.889   3.948   2.970  0.7530  0.2952 -1.4852
18954TIP3    H278354   2.999   3.844   2.968  1.7182  1.2911 -0.9554
18955TIP3   OH278355   6.208   1.270   6.212  0.4875  0.0200 -0.3371
18955TIP3    H178356   6.291   1.300   6.248  0.3239 -1.4785  1.3606
18955TIP3    H278357   6.229   1.188   6.168  0.0922  0.1815 -0.8364
18956TIP3   OH278358   4.891   1.223  12.498 -0.4138 -0.1591  0.3394
18956TIP3    H178359   4.891   1.235  12.593 -0.0877  1.8241  0.1155
18956TIP3    H278360   4.811   1.266  12.468 -0.2914 -0.3944 -0.3380
18957TIP3   OH278361   1.616   3.440   5.992 -0.2569 -0.2764  0.3618
18957TIP3    H178362   1.705   3.411   6.012  0.1094  1.1336  0.8197
18957TIP3    H278363   1.609   3.527   6.032 -0.4638  1.4262 -3.2304
18958TIP3   OH278364   1.920   1.256  16.014 -0.4895 -0.2377  0.4946
18958TIP3    H178365   1.858   1.328  16.001  0.3255  0.5294  0.8231
18958TIP3    H278366   2.001   1.299  16.041  0.5409 -1.1383 -1.1017
18959TIP3   OH278367   6.618   1.766   4.016 -0.3243 -1.2211 -0.4673
18959TIP3    H178368   6.535   1.801   4.047  0.3951 -1.9763  2.5048
18959TIP3    H278369   6.683   1.831   4.040  0.3870 -2.2719  0.5254
18960TIP3   OH278370   4.991   0.851   1.851  0.7741 -0.1742 -0.6925
18960TIP3    H178371   5.066   0.791   1.851  0.3429 -0.7200 -0.7151
18960TIP3    H278372   4.951   0.838   1.765 -0.3135 -1.1180 -0.0637
18961TIP3   OH278373   0.662   1.893   0.230 -0.6747 -0.0973 -0.1525
18961TIP3    H178374   0.723   1.891   0.157  0.1318 -1.0988  0.5395
18961TIP3    H278375   0.587   1.841   0.200 -0.7608  0.2820 -0.6108
18962TIP3   OH278376   5.762   3.345   6.625  0.3057 -0.5836 -0.2391
18962TIP3    H178377   5.690   3.401   6.594 -0.2062 -0.6398  0.8065
18962TIP3    H278378   5.834   3.363   6.565  0.1904  1.2947  0.1637
18963TIP3   OH278379   2.637   4.738  11.334 -0.0357  0.1500  0.3018
18963TIP3    H178380   2.558   4.685  11.348  0.2587 -0.2978  0.2880
18963TIP3    H278381   2.605   4.828  11.327 -0.6368 -0.1305 -0.5899
18964TIP3   OH278382   1.997   4.370   5.169 -0.1573 -0.1511  0.0910
18964TIP3    H178383   1.916   4.398   5.127  0.9062  0.1690 -1.8430
18964TIP3    H278384   1.976   4.285   5.209 -1.2266 -0.4519 -1.0764
18965TIP3   OH278385   3.467   0.131  13.446  0.0090 -0.0419  0.0880
18965TIP3    H178386   3.396   0.128  13.381  0.0194  0.2663  0.0609
18965TIP3    H278387   3.544   0.158  13.396  0.2050 -0.6446  0.0681
18966TIP3   OH278388   1.156   1.943  12.707  0.2160 -0.3238 -0.2524
18966TIP3    H178389   1.204   2.004  12.651 -0.5645  1.7479  1.2466
18966TIP3    H278390   1.217   1.925  12.779 -0.0293 -0.2773 -0.0317
18967TIP3   OH278391   1.989   0.410   0.819  0.0248  0.0051 -0.0287
18967TIP3    H178392   1.966   0.447   0.904  1.6610  2.6185 -0.6463
18967TIP3    H278393   2.082   0.431   0.809  0.0221 -0.8844 -2.1645
18968TIP3   OH278394   2.419   0.383  13.435 -0.2186  0.0059  0.1521
18968TIP3    H178395   2.449   0.318  13.372  1.2921  1.5623 -0.7718
18968TIP3    H278396   2.359   0.439  13.386  0.5047  0.8609  0.2174
18969TIP3   OH278397   6.745   6.356  11.165  0.3138 -0.1195 -0.6602
18969TIP3    H178398   6.765   6.446  11.192 -0.1468 -0.1189 -0.3191
18969TIP3    H278399   6.650   6.351  11.167  0.3787 -1.2556  1.4791
18970TIP3   OH278400   0.624   0.567  16.665 -0.3216 -0.3764  0.1039
18970TIP3    H178401   0.569   0.499  16.703 -1.7615  1.7562  2.0067
18970TIP3    H278402   0.562   0.635  16.638  1.1760  0.8037 -0.4350
18971TIP3   OH278403   4.529   2.080   2.985  0.8358 -0.2816  0.3512
18971TIP3    H178404   4.458   2.027   3.021  0.1117  0.2199 -0.3336
18971TIP3    H278405   4.541   2.048   2.896  0.8426  0.2581  0.1557
18972TIP3   OH278406   0.821   5.476   1.138 -0.4143  1.2595  0.3807
18972TIP3    H178407   0.818   5.562   1.094  2.7072  2.2984  2.0907
18972TIP3    H278408   0.879   5.423   1.083 -0.0340  1.1437  0.9012
18973TIP3   OH278409   0.861   4.869  14.107  0.5908  0.0071 -0.3801
18973TIP3    H178410   0.811   4.810  14.050  0.3998  1.1552 -1.4188
18973TIP3    H278411   0.805   4.946  14.117  0.9833  0.1590  0.6957
18974TIP3   OH278412   5.650   4.939  15.619 -0.3837 -0.5409 -0.3657
18974TIP3    H178413   5.705   5.013  15.591 -0.1891  0.1250  1.6742
18974TIP3    H278414   5.560   4.971  15.609 -0.2904  1.1963  3.4606
18975TIP3   OH278415   3.161   0.441  10.918 -0.0953  0.0132 -0.0961
18975TIP3    H178416   3.128   0.458  10.830 -1.5228  0.7762  0.5732
18975TIP3    H278417   3.090   0.396  10.963 -0.2576  1.6278  1.3458
18976TIP3   OH278418   0.488   2.929  13.707 -0.1538 -0.0056 -0.4318
18976TIP3    H178419   0.522   2.883  13.784  0.2288  1.9112  0.5770
18976TIP3    H278420   0.556   2.918  13.641  0.1845 -0.4142 -0.0263
18977TIP3   OH278421   3.523   0.006   4.018 -0.0997 -0.0105  0.0259
18977TIP3    H178422   3.495  -0.085   4.011 -0.7768  0.1996  0.0240
18977TIP3    H278423   3.471   0.052   3.952 -0.8155  0.6310  1.0404
18978TIP3   OH278424   1.057   5.075   2.748  0.1352 -0.2138 -0.0217
18978TIP3    H178425   1.119   5.133   2.792 -0.9227  0.1129  1.0661
18978TIP3    H278426   1.058   4.994   2.799 -2.3672  0.7660  1.7058
18979TIP3   OH278427   4.271   4.859   4.926  0.3710 -0.0033 -0.5055
18979TIP3    H178428   4.332   4.818   4.987  0.7291  2.2484  0.6825
18979TIP3    H278429   4.191   4.871   4.977  1.0137  2.8716 -0.0795
18980TIP3   OH278430   4.032   1.576  13.416 -0.3727  0.0190  0.2468
18980TIP3    H178431   4.053   1.484  13.429 -2.6809 -0.8355 -1.7633
18980TIP3    H278432   3.937   1.577  13.401 -0.6727  2.9200  1.9129
18981TIP3   OH278433   0.541   0.594  11.441 -0.4924  0.1012  0.9372
18981TIP3    H178434   0.532   0.507  11.401  2.0681  0.0461  0.3553
18981TIP3    H278435   0.597   0.642  11.380  0.3167  1.2783  2.5691
18982TIP3   OH278436   1.644   2.114   5.930  0.0575 -0.3275 -0.0024
18982TIP3    H178437   1.564   2.061   5.938  0.8797 -1.6795 -0.6567
18982TIP3    H278438   1.694   2.095   6.009 -0.6146  1.1362  0.7948
18983TIP3   OH278439   2.122   5.110  15.821 -0.4003  0.4388  0.0593
18983TIP3    H178440   2.072   5.047  15.873  1.2246  1.9673  3.6471
18983TIP3    H278441   2.204   5.065  15.800 -0.8093  0.0299 -0.6598
18984TIP3   OH278442   6.773   3.845  17.248  0.0006 -0.2491 -0.2196
18984TIP3    H178443   6.851   3.796  17.222  0.2322  1.2335 -2.4884
18984TIP3    H278444   6.776   3.848  17.343  1.8463 -1.6041 -0.2238
18985TIP3   OH278445   0.469   4.160   3.997  0.2368  0.3096 -0.0747
18985TIP3    H178446   0.527   4.094   4.036 -2.8000 -1.2714  1.9718
18985TIP3    H278447   0.405   4.178   4.066 -1.8510  1.8097 -2.3607
18986TIP3   OH278448   3.063   4.378   5.235 -0.0492 -0.2356 -0.3827
18986TIP3    H178449   3.033   4.418   5.317  0.4481 -1.1528  0.2471
18986TIP3    H278450   2.983   4.371   5.182 -0.8352 -1.8886  0.9617
18987TIP3   OH278451   2.175   2.462   3.013  0.0173  0.3532 -0.8519
18987TIP3    H178452   2.241   2.420   3.070  0.2877 -0.7284 -1.9328
18987TIP3    H278453   2.192   2.555   3.022  1.3140  0.1111 -0.6347
18988TIP3   OH278454   0.267   0.930   3.109 -0.7972 -0.0332 -0.2635
18988TIP3    H178455   0.355   0.965   3.097 -1.2214  0.5887 -1.5959
18988TIP3    H278456   0.217   1.002   3.147 -0.4436 -0.7764  1.6955
18989TIP3   OH278457   4.091   5.621  15.132  0.0939 -0.1883  0.3537
18989TIP3    H178458   4.163   5.681  15.112  1.4447 -1.6531  0.7948
18989TIP3    H278459   4.129   5.534  15.125 -1.8996 -1.0147 -0.4193
18990TIP3   OH278460   3.786   5.634  14.492  0.3617 -0.1737 -0.1038
18990TIP3    H178461   3.694   5.636  14.468  0.4590 -2.6978 -0.8338
18990TIP3    H278462   3.786   5.638  14.588 -0.4590  0.3893 -0.1209
18991TIP3   OH278463   3.691   2.793   6.560  0.1361 -0.2551  0.1673
18991TIP3    H178464   3.783   2.771   6.546 -0.0075 -0.4272 -0.5619
18991TIP3    H278465   3.650   2.709   6.581  0.6947  0.2984  3.6313
18992TIP3   OH278466   4.040   4.575   0.410  0.0411  0.5200 -0.7279
18992TIP3    H178467   4.034   4.528   0.327  0.0076 -0.4569 -0.1710
18992TIP3    H278468   4.129   4.609   0.412 -0.3757  1.7164 -1.7908
18993TIP3   OH278469   3.349   2.927   1.284 -0.0078 -0.4421  0.7225
18993TIP3    H178470   3.422   2.868   1.262 -1.9302 -2.6823  0.2259
18993TIP3    H278471   3.306   2.945   1.200  0.0347  1.0140  0.9934
18994TIP3   OH278472   5.669   4.269   3.249  0.1193  0.4008  0.0313
18994TIP3    H178473   5.748   4.217   3.236  0.3888  0.3711  1.6766
18994TIP3    H278474   5.662   4.323   3.170  0.9772 -0.6440 -0.7603
18995TIP3   OH278475   0.169   3.665  15.982 -0.9755  0.3375  0.7903
18995TIP3    H178476   0.152   3.732  16.048  0.4621  0.7399  0.7682
18995TIP3    H278477   0.214   3.594  16.030 -2.6560 -0.7088  0.8549
18996TIP3   OH278478   5.087   2.547   3.686 -0.0419  0.1606 -0.2578
18996TIP3    H178479   5.011   2.591   3.724  0.0583  1.1750 -1.1947
18996TIP3    H278480   5.069   2.454   3.696 -1.3925  0.3977 -0.4302
18997TIP3   OH278481   6.172   4.293  15.832  0.0276 -0.0047 -0.8783
18997TIP3    H178482   6.235   4.327  15.768 -0.0167  1.9683  0.1086
18997TIP3    H278483   6.212   4.212  15.863  2.2319  1.3318 -0.0897
18998TIP3   OH278484   3.170   3.651   0.486  0.4313 -0.4115 -0.1901
18998TIP3    H178485   3.129   3.577   0.442 -1.4092 -0.5416  1.6572
18998TIP3    H278486   3.237   3.611   0.542  2.3837 -0.2908 -2.3853
18999TIP3   OH278487   3.578   0.530  11.670 -0.2110  0.1978  0.5616
18999TIP3    H178488   3.483   0.524  11.662 -0.2313 -0.0986  0.9868
18999TIP3    H278489   3.609   0.544  11.581 -0.6600  0.3618  0.4301
19000TIP3   OH278490   1.935   3.703   6.635 -1.0521 -0.2893  0.2068
19000TIP3    H178491   2.021   3.707   6.677 -1.3998  0.0586  0.8996
19000TIP3    H278492   1.901   3.617   6.659 -0.0619 -1.2611 -1.7543
19001TIP3   OH278493   4.979   4.755   2.371  0.0643  0.2643 -0.4255
19001TIP3    H178494   5.025   4.671   2.359  0.2548  0.3383 -0.2213
19001TIP3    H278495   4.966   4.761   2.466 -2.5125 -0.8968 -0.6516
19002TIP3   OH278496   3.290   5.947   4.516  0.4640  0.1033 -0.6554
19002TIP3    H178497   3.243   5.874   4.556  1.6732 -2.2577 -3.4171
19002TIP3    H278498   3.372   5.953   4.565  0.8075 -1.0490 -1.0955
19003TIP3   OH278499   2.342   3.118   5.774 -0.1418 -0.1244 -1.0388
19003TIP3    H178500   2.420   3.156   5.815  0.4741 -1.1861 -1.1985
19003TIP3    H278501   2.269   3.169   5.809  0.5607  0.3551 -0.2508
19004TIP3   OH278502   1.501   6.063  14.196 -0.1488  0.5644 -0.1413
19004TIP3    H178503   1.573   6.125  14.194 -0.8915  1.4586  0.5294
19004TIP3    H278504   1.526   5.999  14.263  0.9916 -0.3459 -1.4066
19005TIP3   OH278505   2.346   6.224   5.809  0.2416 -0.4141  0.6906
19005TIP3    H178506   2.400   6.251   5.884  1.9887  2.2397 -1.4371
19005TIP3    H278507   2.257   6.249   5.835  1.0469  2.0470  1.2660
19006TIP3   OH278508   5.435   3.498  13.838  0.8362  0.5109  0.2337
19006TIP3    H178509   5.446   3.568  13.903  0.2305  2.4559 -1.6998
19006TIP3    H278510   5.482   3.530  13.761  1.3116 -1.6464 -0.3859
19007TIP3   OH278511   3.473   5.880  14.330  0.3382  0.3965  0.3433
19007TIP3    H178512   3.555   5.916  14.363  0.1455  1.9245 -0.7963
19007TIP3    H278513   3.463   5.797  14.377  2.6382  0.0759  0.3267
19008TIP3   OH278514   2.464   3.839   1.928 -0.0081 -0.4138  0.2378
19008TIP3    H178515   2.522   3.874   1.860 -0.1921 -0.4338  0.0695
19008TIP3    H278516   2.394   3.904   1.934 -1.2488 -1.5839 -1.2719
19009TIP3   OH278517   4.572   3.243   5.325 -0.3825  1.0385 -0.3613
19009TIP3    H178518   4.582   3.338   5.331  5.7837  0.6487 -0.7519
19009TIP3    H278519   4.602   3.211   5.410 -0.0498 -0.6538 -1.1052
19010TIP3   OH278520   2.186   2.397   3.350 -0.0137 -0.0859 -0.0146
19010TIP3    H178521   2.150   2.485   3.356 -0.9436 -0.5167  0.9138
19010TIP3    H278522   2.112   2.339   3.366  0.2172 -1.0985 -2.3803
19011TIP3   OH278523   4.044   4.520  13.997 -0.2052 -0.1574 -0.2525
19011TIP3    H178524   4.106   4.526  14.069 -0.3105 -1.9771 -0.0042
19011TIP3    H278525   3.963   4.488  14.037 -1.1566  1.6490 -0.6713
19012TIP3   OH278526   1.247   0.515   0.103 -0.0091  0.2524 -0.2831
19012TIP3    H178527   1.174   0.455   0.113  0.6773 -0.3379  1.3007
19012TIP3    H278528   1.251   0.563   0.186  0.8884  0.8657 -0.6685
19013TIP3   OH278529   0.345   6.508  16.154 -0.9069  0.4863  0.4567
19013TIP3    H178530   0.340   6.412  16.145 -2.3578  0.8404 -3.8173
19013TIP3    H278531   0.271   6.530  16.210 -1.9218 -0.7175 -0.3762
19014TIP3   OH278532   1.636   1.185  17.152 -0.1684  0.2276 -0.3137
19014TIP3    H178533   1.571   1.179  17.082 -1.3698 -0.3576  0.8135
19014TIP3    H278534   1.678   1.100  17.154  1.7045  1.0724 -2.0108
19015TIP3   OH278535   5.479   5.559   4.684 -0.4552 -0.3873 -0.1527
19015TIP3    H178536   5.406   5.607   4.645  0.6045 -0.2651 -2.0300
19015TIP3    H278537   5.557   5.589   4.636  0.4717 -2.5976 -0.1219
19016TIP3   OH278538   6.640   1.925   2.468 -0.0588 -0.0573  0.1310
19016TIP3    H178539   6.635   1.917   2.564  0.2363 -1.2815  0.0546
19016TIP3    H278540   6.715   1.870   2.444 -0.2141  0.1460 -0.8250
19017TIP3   OH278541   6.591   1.113  15.934  0.3523 -0.3267 -0.5857
19017TIP3    H178542   6.571   1.025  15.902 -1.1091 -0.4427  0.5778
19017TIP3    H278543   6.617   1.161  15.855  2.9175 -2.2379 -0.9541
19018TIP3   OH278544   6.555   6.597   1.897 -0.2049 -0.5301  0.3744
19018TIP3    H178545   6.608   6.523   1.927  0.1176 -0.6802 -0.5490
19018TIP3    H278546   6.506   6.563   1.822 -0.5495  0.0040  0.3507
19019TIP3   OH278547   4.707   3.216  11.966  0.2881 -0.3145 -0.1379
19019TIP3    H178548   4.650   3.182  12.035  2.0021  0.7394  1.8357
19019TIP3    H278549   4.656   3.288  11.927  0.2385  0.6196  1.6004
19020TIP3   OH278550   2.226   1.099  11.882 -0.2066  0.7813  1.1385
19020TIP3    H178551   2.311   1.123  11.919  0.0934  0.6561  0.5508
19020TIP3    H278552   2.209   1.166  11.816 -1.1016  1.4397  2.0304
19021TIP3   OH278553   0.713   5.260   5.169  0.7822 -0.4532 -0.4020
19021TIP3    H178554   0.630   5.225   5.200  0.2560 -1.1009 -2.4332
19021TIP3    H278555   0.697   5.353   5.155  1.0849 -0.1126  1.3884
19022TIP3   OH278556   0.905   0.503   5.443  0.0806  0.8577 -0.7890
19022TIP3    H178557   0.987   0.517   5.490  0.1274  1.1612 -0.9571
19022TIP3    H278558   0.868   0.424   5.482 -0.1147  1.3648  0.0860
19023TIP3   OH278559   6.614   0.222  16.965 -0.4027  0.2831  0.0070
19023TIP3    H178560   6.522   0.247  16.952 -0.2361  0.4654 -0.8441
19023TIP3    H278561   6.610   0.129  16.985 -0.8960  0.6164  1.4953
19024TIP3   OH278562   1.957   3.583  12.596 -0.0714 -0.3533 -1.0520
19024TIP3    H178563   2.000   3.503  12.627  0.6225  0.2807 -0.3456
19024TIP3    H278564   1.865   3.558  12.586 -0.0967 -0.8966  0.4198
19025TIP3   OH278565   6.426   0.302   5.574 -0.1941  0.4045 -0.0440
19025TIP3    H178566   6.513   0.265   5.585  0.9006  2.9806  0.3569
19025TIP3    H278567   6.383   0.289   5.659 -0.9521 -2.6207 -0.8375
19026TIP3   OH278568   1.220   3.697   2.585 -0.5606  0.7127 -0.1143
19026TIP3    H178569   1.303   3.708   2.539 -0.4874  0.7544  0.0268
19026TIP3    H278570   1.194   3.606   2.566 -0.4986  0.7090 -0.1816
19027TIP3   OH278571   3.257   4.029   6.070  0.2907 -0.5414  0.6201
19027TIP3    H178572   3.185   4.087   6.047  1.4750 -0.2441 -2.5921
19027TIP3    H278573   3.301   4.073   6.143 -1.4897  0.3348  1.1902
19028TIP3   OH278574   6.399   3.564   3.891 -0.1040  0.4095 -0.9640
19028TIP3    H178575   6.465   3.585   3.825  2.7592  0.1630  1.7151
19028TIP3    H278576   6.417   3.623   3.963 -2.6963  0.1528 -0.0312
19029TIP3   OH278577   5.730   4.576  14.817 -0.0983 -0.4985  0.1742
19029TIP3    H178578   5.731   4.484  14.791  2.3049 -0.7824  1.0800
19029TIP3    H278579   5.766   4.576  14.906 -3.5458  0.9553  1.6452
19030TIP3   OH278580   1.136   5.589   1.545  0.0032  0.6605 -0.1707
19030TIP3    H178581   1.086   5.611   1.623 -2.1948 -1.7450 -0.8121
19030TIP3    H278582   1.205   5.530   1.576 -0.0330  0.7930  0.1582
19031TIP3   OH278583   2.047   0.746   6.156 -0.4515 -0.5327 -0.4149
19031TIP3    H178584   1.962   0.721   6.192 -0.2736  0.7448  0.9576
19031TIP3    H278585   2.099   0.665   6.157 -0.9477 -0.8559  0.8145
19032TIP3   OH278586   1.695   4.717  12.775 -0.1690  0.3770  0.1574
19032TIP3    H178587   1.732   4.728  12.687  0.7133  0.0775  0.4922
19032TIP3    H278588   1.624   4.781  12.778 -0.8873 -0.3239 -1.1479
19033TIP3   OH278589   0.302   5.269  10.942 -0.2519  0.6627 -0.4930
19033TIP3    H178590   0.271   5.360  10.945 -0.6504  0.5693 -1.4375
19033TIP3    H278591   0.232   5.221  10.898 -0.1993 -0.1735  0.3229
19034TIP3   OH278592   1.967   2.198   4.458  0.7106 -0.2876  0.0881
19034TIP3    H178593   1.899   2.182   4.523  1.2760 -0.0841  0.7261
19034TIP3    H278594   2.010   2.113   4.446  0.6555 -0.3077  0.0308
19035TIP3   OH278595   0.696   5.012  13.756 -0.3904  0.2163 -0.5382
19035TIP3    H178596   0.690   5.100  13.718 -0.0102 -0.1633 -1.5047
19035TIP3    H278597   0.717   5.027  13.848 -0.2453  1.1394 -0.7123
19036TIP3   OH278598   3.905   0.623  14.384  0.6443 -0.0220 -0.1633
19036TIP3    H178599   3.821   0.577  14.391 -0.3447  0.7523 -4.7632
19036TIP3    H278600   3.882   0.716  14.385  1.7974  0.2580  1.5831
19037TIP3   OH278601   4.818   4.515  12.028 -0.1574  0.2962  0.2321
19037TIP3    H178602   4.742   4.466  12.058  0.0652 -0.9804 -1.2262
19037TIP3    H278603   4.785   4.569  11.956 -0.2192  1.6447  1.2735
19038TIP3   OH278604   1.596   2.040  12.257 -0.4764  0.0750  0.5440
19038TIP3    H178605   1.600   2.103  12.185  0.3671 -0.4881  0.0905
19038TIP3    H278606   1.622   1.956  12.218  1.0653 -0.0288  1.7240
19039TIP3   OH278607   6.818   2.753   0.257  0.3394  0.4746 -0.5751
19039TIP3    H178608   6.780   2.828   0.210  1.1403  0.2154 -1.6447
19039TIP3    H278609   6.876   2.792   0.322  1.3502  0.7591 -1.6491
19040TIP3   OH278610   2.851   4.009  13.240 -0.3523 -0.3194 -0.3248
19040TIP3    H178611   2.885   4.084  13.290 -1.4917  0.2925 -0.4490
19040TIP3    H278612   2.849   3.937  13.303  0.2178 -0.1068 -0.0541
19041TIP3   OH278613   2.429   2.635   0.239 -0.3712  0.0573 -0.3601
19041TIP3    H178614   2.338   2.629   0.270 -0.6809  0.8303 -1.0952
19041TIP3    H278615   2.475   2.679   0.311 -0.6847  0.1046 -0.1861
19042TIP3   OH278616   4.764   1.668   4.437 -0.0081  0.2278 -0.6697
19042TIP3    H178617   4.786   1.583   4.400 -0.6107  0.2797 -1.1695
19042TIP3    H278618   4.813   1.731   4.384  1.1985  0.1414  0.3157
19043TIP3   OH278619   6.272   0.701  16.788  0.0193  0.2662  0.3604
19043TIP3    H178620   6.277   0.796  16.774 -1.5175 -0.0083 -2.5590
19043TIP3    H278621   6.178   0.683  16.796  0.2006 -1.1657 -0.5490
19044TIP3   OH278622   5.220   3.305   2.217  0.0812  0.3868  0.3488
19044TIP3    H178623   5.191   3.242   2.283 -0.2633  1.4758  1.2497
19044TIP3    H278624   5.180   3.274   2.135 -0.1927 -0.4822  0.8053
19045TIP3   OH278625   4.779   1.246  11.336 -0.1836  0.2077  0.4102
19045TIP3    H178626   4.861   1.258  11.287 -0.9627 -0.2292 -1.0351
19045TIP3    H278627   4.747   1.334  11.351 -0.6606  0.3208 -1.1534
19046TIP3   OH278628   4.506   5.254   4.843  0.1295  0.7398 -0.2427
19046TIP3    H178629   4.583   5.282   4.793 -0.6742  0.2927 -1.7779
19046TIP3    H278630   4.451   5.333   4.848  0.3169  0.8478  0.1623
19047TIP3   OH278631   2.779   5.502  17.189  0.4209 -0.1394 -0.1109
19047TIP3    H178632   2.791   5.588  17.150  0.9039 -0.3347 -0.3952
19047TIP3    H278633   2.690   5.476  17.166 -0.8044  1.5570  2.4760
19048TIP3   OH278634   0.637   2.934  11.774  0.5363  0.5116 -0.1434
19048TIP3    H178635   0.669   3.003  11.715  0.1564 -0.0100 -0.9747
19048TIP3    H278636   0.717   2.893  11.808  0.7673 -0.1272 -1.4284
19049TIP3   OH278637   3.438   5.544   0.093  0.2368  0.0293  0.1878
19049TIP3    H178638   3.423   5.452   0.072  0.0649 -0.2837  1.5827
19049TIP3    H278639   3.527   5.545   0.129  0.4081  0.4855 -0.2495
19050TIP3   OH278640   4.760   5.061  14.537 -0.4724 -0.4773 -0.1226
19050TIP3    H178641   4.819   5.049  14.462 -0.5972 -0.3793 -0.2366
19050TIP3    H278642   4.774   5.151  14.564 -2.4719  0.3875 -1.8014
19051TIP3   OH278643   4.721   6.027   0.859 -0.0377  0.4995  0.1612
19051TIP3    H178644   4.749   5.974   0.933 -0.9819  2.1509  1.7378
19051TIP3    H278645   4.762   6.112   0.873  0.9415  0.4086 -1.9876
19052TIP3   OH278646   1.825   6.761   4.661 -0.7918  0.7539  0.3079
19052TIP3    H178647   1.800   6.823   4.728  1.4559  1.4879  0.5192
19052TIP3    H278648   1.786   6.795   4.580  0.4318  2.4941  0.4169
19053TIP3   OH278649   4.647   3.233   3.576 -0.2514 -0.0284 -0.0542
19053TIP3    H178650   4.661   3.159   3.516 -0.6128  0.0725 -0.2627
19053TIP3    H278651   4.658   3.311   3.521  0.4473  0.0814  0.2330
19054TIP3   OH278652   0.880   4.969  13.056 -0.0704  0.7881 -0.1723
19054TIP3    H178653   0.787   4.955  13.039  0.1159  1.6420 -1.9907
19054TIP3    H278654   0.890   5.064  13.059  1.1990  0.7996 -2.8806
19055TIP3   OH278655   6.718   2.077  12.138  0.4355 -0.5218 -0.1071
19055TIP3    H178656   6.664   2.115  12.069  1.1156 -1.9656 -1.4811
19055TIP3    H278657   6.683   1.989  12.151  1.7298 -1.0786 -0.2466
19056TIP3   OH278658   2.083   0.890   0.200 -0.5846 -0.0213 -0.2277
19056TIP3    H178659   2.009   0.907   0.258 -0.6582  1.0451 -0.6173
19056TIP3    H278660   2.043   0.850   0.122 -0.6972  0.1721 -0.2695
19057TIP3   OH278661   3.283   0.658   0.880  0.1072  0.1513 -0.3041
19057TIP3    H178662   3.345   0.630   0.947 -0.3417 -1.7656 -0.6538
19057TIP3    H278663   3.320   0.738   0.844  0.8578  0.6607  1.5344
19058TIP3   OH278664   3.842   4.683  10.747  0.3668  0.1064  0.5669
19058TIP3    H178665   3.897   4.658  10.673  0.1125 -1.7562  1.0046
19058TIP3    H278666   3.752   4.667  10.716  0.1568  1.1978  0.5847
19059TIP3   OH278667   3.985   0.806   1.979 -0.3197  0.3441  0.2777
19059TIP3    H178668   3.948   0.811   2.067 -1.6915 -0.0906 -0.2663
19059TIP3    H278669   4.025   0.719   1.975 -0.6381  0.1962  0.3157
19060TIP3   OH278670   3.833   0.203   3.507 -0.0460 -0.5949 -0.0551
19060TIP3    H178671   3.871   0.215   3.594  1.1514 -1.9255 -0.3561
19060TIP3    H278672   3.841   0.108   3.492 -1.9545 -0.6317 -0.8380
19061TIP3   OH278673   1.311   4.197  12.772  0.5115 -0.0271  0.1203
19061TIP3    H178674   1.340   4.206  12.682  0.1012 -0.4209 -0.0520
19061TIP3    H278675   1.258   4.117  12.773  0.4999 -0.0173  0.7023
19062TIP3   OH278676   2.975   5.776  15.790  0.1253 -0.4041 -0.2132
19062TIP3    H178677   2.883   5.776  15.818  0.3225 -1.9290  0.4626
19062TIP3    H278678   2.970   5.769  15.694 -0.4741  1.0513 -0.3045
19063TIP3   OH278679   5.801   4.727   4.652 -0.3890  0.2363 -0.0126
19063TIP3    H178680   5.786   4.817   4.683  0.4386 -0.1493  1.5548
19063TIP3    H278681   5.880   4.699   4.698 -1.2253 -1.6594  0.2918
19064TIP3   OH278682   3.452   1.997   4.273 -0.1338  0.1299 -0.8121
19064TIP3    H178683   3.415   2.054   4.340 -0.1291  1.2934 -1.7789
19064TIP3    H278684   3.524   1.951   4.317 -1.2212 -0.4131  0.4317
19065TIP3   OH278685   5.155   3.671  13.508  0.2369 -0.3076 -0.3565
19065TIP3    H178686   5.224   3.730  13.538 -0.2445  0.7429 -1.2819
19065TIP3    H278687   5.176   3.587  13.550  1.4895  0.2521  0.1843
19066TIP3   OH278688   1.698   2.127   4.601  0.2490  0.0275 -0.1927
19066TIP3    H178689   1.653   2.211   4.594  0.9370  0.4566  0.5049
19066TIP3    H278690   1.710   2.114   4.695  1.2819 -0.2478 -0.3619
19067TIP3   OH278691   3.095   4.347   0.861  0.2870 -0.3539 -0.0786
19067TIP3    H178692   3.054   4.409   0.922 -0.8654 -0.1779 -1.0183
19067TIP3    H278693   3.122   4.274   0.916  0.0031  0.1652  0.7706
19068TIP3   OH278694   1.047   1.264   1.743 -0.5368  0.1789 -0.0801
19068TIP3    H178695   0.990   1.188   1.759  0.2484 -0.6734 -1.2891
19068TIP3    H278696   1.096   1.241   1.664 -0.2584  1.9387 -0.4312
19069TIP3   OH278697   3.838   5.880   0.207  0.4970  0.1680  0.1136
19069TIP3    H178698   3.766   5.943   0.209  0.9196  0.6426  0.3624
19069TIP3    H278699   3.843   5.848   0.297 -1.4723 -2.2223 -0.5625
19070TIP3   OH278700   2.609   2.852   4.426 -0.3783  0.2698  0.1535
19070TIP3    H178701   2.547   2.877   4.358  1.0297  2.6318 -0.3099
19070TIP3    H278702   2.689   2.829   4.379 -0.1427 -0.4187  0.8706
19071TIP3   OH278703   3.953   1.404   2.697 -0.2465 -0.4151 -0.2113
19071TIP3    H178704   3.914   1.322   2.668  0.0711 -0.4599 -0.5265
19071TIP3    H278705   3.895   1.472   2.662  1.8851 -0.3256 -3.8677
19072TIP3   OH278706   2.793   5.400  16.470 -0.2011 -0.2627 -0.0884
19072TIP3    H178707   2.820   5.479  16.516 -0.3378  0.2950 -0.9548
19072TIP3    H278708   2.875   5.354  16.451 -0.1998 -0.8454  1.3358
19073TIP3   OH278709   4.783   6.584   2.090 -0.0999 -0.1248 -0.3126
19073TIP3    H178710   4.829   6.644   2.032 -0.2272 -0.4779 -0.7871
19073TIP3    H278711   4.693   6.582   2.055 -0.6574  1.1040  1.0240
19074TIP3   OH278712   6.299   0.309  15.394  0.6125 -0.3351 -0.0933
19074TIP3    H178713   6.337   0.354  15.318  0.2106  0.0458 -0.0703
19074TIP3    H278714   6.295   0.217  15.368  3.4490 -0.7201  0.6652
19075TIP3   OH278715   4.516   3.516  16.660 -0.3369 -0.5869  0.1156
19075TIP3    H178716   4.460   3.440  16.647  1.6640 -2.2493  0.8393
19075TIP3    H278717   4.589   3.501  16.599  0.8094 -0.0070  1.3353
19076TIP3   OH278718   2.205   4.762   3.638 -0.6534  0.1328 -0.0378
19076TIP3    H178719   2.143   4.732   3.705 -0.3666 -0.3969  0.0012
19076TIP3    H278720   2.281   4.792   3.687  0.1892 -1.7138 -0.1562
19077TIP3   OH278721   0.941   1.552  16.301  0.3831 -0.0954  0.2275
19077TIP3    H178722   0.927   1.480  16.362 -0.0935  1.1389  1.6176
19077TIP3    H278723   1.020   1.595  16.332 -2.0921  3.0217  2.5606
19078TIP3   OH278724   2.143   0.446  13.182 -0.4888  0.3382 -0.1354
19078TIP3    H178725   2.218   0.425  13.126  1.0864  0.3046  1.9359
19078TIP3    H278726   2.113   0.361  13.215 -0.0910  0.5360  0.7346
19079TIP3   OH278727   2.762   1.222   4.866 -0.2299  0.0260  0.2434
19079TIP3    H178728   2.718   1.251   4.946  0.1883 -2.0692  1.2876
19079TIP3    H278729   2.744   1.128   4.863  1.1431 -0.1987 -1.2709
19080TIP3   OH278730   6.164   6.505  16.818  0.1798  0.2083 -0.3004
19080TIP3    H178731   6.134   6.414  16.826 -0.5216  0.3325 -1.4610
19080TIP3    H278732   6.126   6.536  16.736  1.6337  1.0839 -0.6635
19081TIP3   OH278733   6.741   1.474   3.387  0.4797 -0.6752  0.0525
19081TIP3    H178734   6.798   1.494   3.462 -0.6172  0.2001  0.6744
19081TIP3    H278735   6.729   1.379   3.391  2.9557 -1.0511 -0.8792
19082TIP3   OH278736   2.819   5.084   2.570 -0.5808 -0.2838  0.0917
19082TIP3    H178737   2.842   5.003   2.615 -0.8282 -0.4937 -0.1570
19082TIP3    H278738   2.723   5.086   2.570 -0.5840 -0.2517 -0.3626
19083TIP3   OH278739   1.921   1.170  11.947 -0.8428  0.1267  0.9349
19083TIP3    H178740   1.981   1.208  12.011  1.2104  0.1915 -0.9846
19083TIP3    H278741   1.891   1.244  11.894  1.1632 -0.5056 -1.1651
19084TIP3   OH278742   5.607   4.911  14.138  0.5075  0.6511  0.1406
19084TIP3    H178743   5.646   4.966  14.206  0.7891  0.2452  0.3081
19084TIP3    H278744   5.532   4.870  14.181  0.3227  0.8707  0.0290
19085TIP3   OH278745   5.135   5.254   3.378 -0.1729  0.1399  0.2841
19085TIP3    H178746   5.044   5.283   3.389 -0.3476 -1.4421  3.8782
19085TIP3    H278747   5.141   5.228   3.287 -3.2029  0.7905 -0.1706
19086TIP3   OH278748   1.348   1.285   1.962 -0.1137 -0.0784 -0.2179
19086TIP3    H178749   1.379   1.361   1.914 -1.3356 -0.3697 -1.4911
19086TIP3    H278750   1.385   1.210   1.914 -1.2126 -0.3633 -0.6345
19087TIP3   OH278751   4.423   2.012  11.388 -0.0194  0.5150 -0.0039
19087TIP3    H178752   4.379   2.009  11.303 -1.7050 -1.1346  0.8889
19087TIP3    H278753   4.360   2.054  11.447  1.2788  1.9796  0.3788
19088TIP3   OH278754   3.616   4.932  16.538 -0.5513 -0.3506  0.0876
19088TIP3    H178755   3.585   4.968  16.455  0.6408  0.1555 -0.1577
19088TIP3    H278756   3.694   4.984  16.558 -1.7994  0.6968  2.4007
19089TIP3   OH278757   0.941   4.823   0.928  0.3409  0.1513  0.0531
19089TIP3    H178758   0.871   4.888   0.927 -0.2931 -0.5352 -1.0743
19089TIP3    H278759   0.984   4.835   1.012 -1.7529 -0.0791  1.1748
19090TIP3   OH278760   1.809   5.618   4.680 -0.1335  0.4648 -0.5118
19090TIP3    H178761   1.891   5.583   4.646 -0.4222 -0.6404 -0.1041
19090TIP3    H278762   1.834   5.666   4.759 -0.0189 -0.9486  0.3267
19091TIP3   OH278763   2.446   1.586  11.279 -0.1888  0.1346 -0.7629
19091TIP3    H178764   2.495   1.661  11.315 -0.2736  0.3740 -1.1427
19091TIP3    H278765   2.492   1.564  11.198  0.0335 -0.4384 -0.4849
19092TIP3   OH278766   3.805   2.126  11.449 -0.1450 -0.1916 -0.7995
19092TIP3    H178767   3.899   2.135  11.434  0.4759 -0.8621  2.1720
19092TIP3    H278768   3.774   2.215  11.467  0.2238 -0.1396 -0.4047
19093TIP3   OH278769   3.391   0.635  11.273 -0.3126 -0.2428  0.2041
19093TIP3    H178770   3.477   0.607  11.306  0.2648  1.0226 -0.2299
19093TIP3    H278771   3.400   0.632  11.178 -0.1915  1.5993  0.1551
19094TIP3   OH278772   5.520   2.772   6.166  0.7461  0.3328  0.4086
19094TIP3    H178773   5.484   2.720   6.095  0.6339  1.2035 -0.1795
19094TIP3    H278774   5.596   2.817   6.127  0.6727  0.8307  0.8286
19095TIP3   OH278775   1.066   0.188  12.493  0.3266 -0.2760  0.1931
19095TIP3    H178776   1.002   0.254  12.521  0.5745  1.0329 -2.2050
19095TIP3    H278777   1.018   0.105  12.498 -1.4626  0.6390 -1.2063
19096TIP3   OH278778   3.694   6.251  12.816 -0.4804  0.4684 -0.1786
19096TIP3    H178779   3.647   6.318  12.766  0.2895  0.0957 -1.4035
19096TIP3    H278780   3.672   6.270  12.907 -1.4785  1.4656 -0.6172
19097TIP3   OH278781   6.592   6.052  17.221 -0.1257  0.1110 -0.7675
19097TIP3    H178782   6.508   6.087  17.191 -0.7216 -1.9011 -1.4682
19097TIP3    H278783   6.641   6.034  17.141 -0.0955 -1.3143 -0.4325
19098TIP3   OH278784   2.310   5.958  13.299  0.0946  0.0668 -0.5642
19098TIP3    H178785   2.279   5.868  13.302  1.2647 -0.3276  0.2168
19098TIP3    H278786   2.243   6.008  13.346 -0.1111 -0.5335 -0.2175
19099TIP3   OH278787   1.310   2.130  16.655 -0.6106  0.5646 -0.1862
19099TIP3    H178788   1.342   2.042  16.636 -0.5915  0.4751  0.2560
19099TIP3    H278789   1.277   2.124  16.745  1.2826  1.5403  0.5796
19100TIP3   OH278790   3.417   4.756   0.667  0.5530  0.4965 -0.6945
19100TIP3    H178791   3.509   4.740   0.687 -0.1758 -1.4590  1.2861
19100TIP3    H278792   3.372   4.677   0.697 -2.0999  2.5000  0.7430
19101TIP3   OH278793   5.042   2.819   2.115  0.9473  0.6067 -0.7959
19101TIP3    H178794   4.995   2.780   2.040  0.7534 -0.2372 -0.2459
19101TIP3    H278795   5.063   2.908   2.086 -1.9916  1.4047 -0.6428
19102TIP3   OH278796   2.904   5.924   3.728 -0.7005  0.2182 -0.1139
19102TIP3    H178797   2.882   5.876   3.808 -0.4768 -0.4079 -0.4210
19102TIP3    H278798   2.919   5.856   3.663 -1.9974  0.7561 -0.9872
19103TIP3   OH278799   4.841   1.737   2.237  0.0107  0.0731 -0.0611
19103TIP3    H178800   4.835   1.777   2.150 -1.1007  0.4462  0.1745
19103TIP3    H278801   4.754   1.748   2.274  0.7376  0.8034  1.4857
19104TIP3   OH278802   2.147   2.516   6.761  0.0476  0.3785  0.4186
19104TIP3    H178803   2.150   2.608   6.735 -1.2737  0.7288  1.4456
19104TIP3    H278804   2.058   2.504   6.795  0.2654 -1.2350  0.4432
19105TIP3   OH278805   2.678   5.931   3.308  0.4625  0.2303 -0.0169
19105TIP3    H178806   2.720   6.006   3.265  0.4977  0.3629  0.2493
19105TIP3    H278807   2.750   5.886   3.353  0.4427  0.0317 -0.1847
19106TIP3   OH278808   0.128   2.250  15.571  0.0676  0.0796 -0.3351
19106TIP3    H178809   0.094   2.328  15.615  2.0113  0.2644  0.8834
19106TIP3    H278810   0.050   2.209  15.531 -0.9673  2.6331 -1.0243
19107TIP3   OH278811   5.045   4.626   0.997 -0.2416 -0.5959  0.5309
19107TIP3    H178812   4.996   4.550   0.964  0.3231 -0.4585 -0.6649
19107TIP3    H278813   5.092   4.594   1.073  0.5036 -1.6205 -0.3497
19108TIP3   OH278814   5.126   6.012   1.643 -0.2851  0.1620  0.2435
19108TIP3    H178815   5.064   5.956   1.597  0.2752  0.0232 -0.3541
19108TIP3    H278816   5.166   6.065   1.574 -0.0342  0.5344  0.6714
19109TIP3   OH278817   6.742   5.557  15.843  0.0870  0.6935  0.3051
19109TIP3    H178818   6.758   5.483  15.783 -3.3307  0.2310 -0.1129
19109TIP3    H278819   6.767   5.523  15.929  1.2288  0.0114 -0.2842
19110TIP3   OH278820   4.830   4.060   4.575 -0.0919 -0.0465 -1.0136
19110TIP3    H178821   4.801   4.073   4.665 -1.1343 -0.2643 -1.3163
19110TIP3    H278822   4.880   4.138   4.554 -0.7174  0.4707 -0.5904
19111TIP3   OH278823   5.088   6.534   3.246 -0.0192  0.2740  0.1023
19111TIP3    H178824   5.164   6.495   3.289  1.7163  1.2140 -2.0378
19111TIP3    H278825   5.090   6.501   3.157 -2.9002 -0.7130  0.3438
19112TIP3   OH278826   6.340   4.757  12.727 -0.4163  0.0178 -0.0866
19112TIP3    H178827   6.295   4.839  12.706  0.3567  0.8388  1.4194
19112TIP3    H278828   6.332   4.704  12.647 -4.1452  0.0835  0.1420
19113TIP3   OH278829   5.203   4.492   1.850 -0.0846 -0.2130  0.4866
19113TIP3    H178830   5.210   4.488   1.945  0.0942  2.7651  0.6554
19113TIP3    H278831   5.118   4.532   1.834 -0.1013 -0.6766 -0.6029
19114TIP3   OH278832   3.267   5.249  13.116  0.1420 -0.1935  0.6034
19114TIP3    H178833   3.345   5.251  13.171  0.0293 -0.6654  0.7789
19114TIP3    H278834   3.236   5.340  13.115  0.1365 -0.1859  1.3224
19115TIP3   OH278835   5.273   2.390   1.632 -0.1050  0.1227  0.4895
19115TIP3    H178836   5.197   2.368   1.578  0.9114  1.6775 -1.6202
19115TIP3    H278837   5.254   2.476   1.667  0.1952  0.0312  0.8819
19116TIP3   OH278838   4.786   6.397   1.177  0.0680  0.1567 -0.2180
19116TIP3    H178839   4.695   6.398   1.146  0.0405  0.1258 -0.1399
19116TIP3    H278840   4.781   6.436   1.265  0.2454  0.8956 -0.5303
19117TIP3   OH278841   2.868   6.407   4.775  0.3381  0.3571  0.4732
19117TIP3    H178842   2.847   6.469   4.845 -1.2011  0.1352  0.2329
19117TIP3    H278843   2.884   6.324   4.821 -1.1209  0.1026  0.5529
19118TIP3   OH278844   2.387   5.861   0.079  0.3424  1.1424  0.4150
19118TIP3    H178845   2.351   5.807   0.009  0.7101 -1.1797  1.9774
19118TIP3    H278846   2.329   5.937   0.082 -0.2343  0.8333 -1.7597
19119TIP3   OH278847   2.331   5.261  15.313 -0.5859  0.2624 -0.0381
19119TIP3    H178848   2.371   5.277  15.227  0.5136  1.4221  0.6700
19119TIP3    H278849   2.311   5.349  15.347 -1.5016 -0.2104  0.6765
19120TIP3   OH278850   4.119   6.036   4.375  0.3712  0.6159 -0.1713
19120TIP3    H178851   4.144   6.029   4.283  0.2446 -0.0196 -0.1596
19120TIP3    H278852   4.028   6.068   4.372  0.7579  1.7201 -0.2373
19121TIP3   OH278853   3.306   1.723  11.897  0.0061  0.3002 -0.0134
19121TIP3    H178854   3.299   1.805  11.946  1.4240  0.5123 -0.1479
19121TIP3    H278855   3.398   1.699  11.904 -0.3586 -1.1986 -0.1284
19122TIP3   OH278856   0.500   0.984   4.536  0.0739 -0.7826  0.1355
19122TIP3    H178857   0.449   0.903   4.528  0.6010 -1.0960 -0.0946
19122TIP3    H278858   0.490   1.011   4.627 -2.7876  0.6753 -0.5627
19123TIP3   OH278859   2.071   5.874   3.589  0.1954 -0.4785  0.0596
19123TIP3    H178860   2.053   5.950   3.645  1.5800  0.5597 -0.8784
19123TIP3    H278861   2.011   5.806   3.621 -0.5523  0.7745  1.3807
19124TIP3   OH278862   0.209   0.579  16.422  0.0654  0.5872 -0.1212
19124TIP3    H178863   0.165   0.570  16.507  1.1941  0.9444  0.5044
19124TIP3    H278864   0.221   0.489  16.392  0.2008  0.4426  0.3659
19125TIP3   OH278865   4.677   3.515   3.438 -0.0246 -0.5358  0.9457
19125TIP3    H178866   4.589   3.547   3.417 -0.2035 -2.1148 -0.7956
19125TIP3    H278867   4.730   3.538   3.362  1.3690  1.3687  2.4257
19126TIP3   OH278868   3.975   5.903   3.785 -0.0087  0.0468 -0.1775
19126TIP3    H178869   4.065   5.922   3.814 -0.4162 -0.5656  1.5832
19126TIP3    H278870   3.984   5.825   3.730  0.7429  0.9938 -1.4080
19127TIP3   OH278871   0.333   2.145  13.044 -0.1074  0.4017 -0.0463
19127TIP3    H178872   0.332   2.051  13.063 -1.1231  0.3715 -0.2126
19127TIP3    H278873   0.422   2.173  13.065  0.8673 -1.0444 -2.0951
19128TIP3   OH278874   1.188   4.546  12.523 -0.0515  0.0840  0.5285
19128TIP3    H178875   1.270   4.498  12.536  0.1717 -0.4921 -2.6506
19128TIP3    H278876   1.211   4.638  12.539  0.8081 -0.2436  1.2457
19129TIP3   OH278877   1.099   0.566  15.414 -0.2574  0.0450  0.2744
19129TIP3    H178878   1.065   0.487  15.456 -0.1369 -0.8515 -1.2707
19129TIP3    H278879   1.035   0.634  15.434 -2.0672 -1.2021 -1.0936
19130TIP3   OH278880   0.368   2.074   0.058  0.3977 -0.2696  0.5013
19130TIP3    H178881   0.352   2.102   0.149 -0.1478 -0.3505  0.4378
19130TIP3    H278882   0.411   2.150   0.018  0.1993 -0.0460  0.7017
19131TIP3   OH278883   4.068   6.729   2.831  0.5895 -0.0841  0.5128
19131TIP3    H178884   4.012   6.652   2.827  1.2051 -0.4793 -0.8069
19131TIP3    H278885   4.143   6.702   2.884  0.7723 -0.3788  0.1079
19132TIP3   OH278886   4.274   3.185   5.923 -0.5002 -0.7610 -0.3298
19132TIP3    H178887   4.366   3.212   5.920 -0.6036 -0.5022 -1.8585
19132TIP3    H278888   4.230   3.255   5.973  0.3318 -1.5658  1.5583
19133TIP3   OH278889   5.598   0.128  16.977 -0.0089 -0.2033 -0.1882
19133TIP3    H178890   5.578   0.207  17.028  0.3186  0.0138 -0.3969
19133TIP3    H278891   5.522   0.071  16.991  1.1388 -1.1808  2.5830
19134TIP3   OH278892   5.143   4.920   5.684 -0.6489 -0.2182 -0.1234
19134TIP3    H178893   5.216   4.976   5.658  0.2363 -1.9084 -1.3777
19134TIP3    H278894   5.159   4.837   5.639 -1.6896 -1.6427  2.0383
19135TIP3   OH278895   2.753   5.178  15.194  0.0406 -0.0548  0.8532
19135TIP3    H178896   2.701   5.181  15.274  1.0983 -0.2393  1.5658
19135TIP3    H278897   2.738   5.090  15.158 -1.8379  0.6392 -0.1258
19136TIP3   OH278898   0.859   5.206  11.633  0.2545  0.0069 -0.4549
19136TIP3    H178899   0.779   5.205  11.686  0.2234  0.6725 -0.4854
19136TIP3    H278900   0.828   5.194  11.543  0.4416 -2.8453 -0.1789
19137TIP3   OH278901   2.230   4.077   0.050 -0.2241  0.2230 -0.5133
19137TIP3    H178902   2.223   4.131   0.129 -0.6901  0.2129 -0.5471
19137TIP3    H278903   2.280   4.131  -0.012  1.2872 -0.2857  0.2410
19138TIP3   OH278904   0.761   2.247   5.185 -0.2004  0.0966 -0.5828
19138TIP3    H178905   0.834   2.261   5.245  1.3422 -0.4258 -2.2789
19138TIP3    H278906   0.784   2.300   5.108 -1.3375 -0.5075 -1.3393
19139TIP3   OH278907   4.250   5.839  11.866 -0.0171 -0.4166 -0.3778
19139TIP3    H178908   4.333   5.887  11.867 -0.5210  0.5875 -2.7666
19139TIP3    H278909   4.253   5.787  11.786 -2.3743  0.9612 -1.4373
19140TIP3   OH278910   2.736   0.125   1.113 -0.4538 -0.1697  0.2437
19140TIP3    H178911   2.723   0.038   1.148  0.4474 -0.0804  0.8091
19140TIP3    H278912   2.828   0.144   1.128 -0.4530  0.5538 -0.6147
19141TIP3   OH278913   2.834   3.924  15.437 -0.0301 -0.3270  0.0816
19141TIP3    H178914   2.762   3.916  15.500 -0.0160  0.3352  0.1839
19141TIP3    H278915   2.904   3.966  15.487 -0.3352  1.0399 -0.6301
19142TIP3   OH278916   2.610   5.633  16.595 -0.3163 -0.4910  1.1988
19142TIP3    H178917   2.527   5.594  16.565  0.7740 -1.1370 -1.0398
19142TIP3    H278918   2.623   5.709  16.539 -0.7881  1.2981  3.4350
19143TIP3   OH278919   2.823   1.957  12.070  0.1759  0.2668 -0.4112
19143TIP3    H178920   2.881   2.029  12.046  1.9941 -0.6832  0.9278
19143TIP3    H278921   2.850   1.884  12.014  0.4852 -0.2535  0.3954
19144TIP3   OH278922   1.215   5.937  16.214  0.8728 -0.1611  0.1991
19144TIP3    H178923   1.127   5.914  16.242  0.5920  2.2614  1.4051
19144TIP3    H278924   1.262   5.853  16.212 -0.7091 -1.1439  2.1636
19145TIP3   OH278925   0.107   3.093   4.557 -0.1301 -0.2495 -0.2848
19145TIP3    H178926   0.162   3.015   4.561 -0.9509 -0.7418  2.2250
19145TIP3    H278927   0.018   3.060   4.545 -0.1240  0.4744 -2.6062
19146TIP3   OH278928   5.411   1.612  15.761  0.1587  0.1102  0.3232
19146TIP3    H178929   5.332   1.559  15.752  0.4521 -0.2647 -0.0630
19146TIP3    H278930   5.474   1.555  15.806  0.8854 -0.3103 -1.1839
19147TIP3   OH278931   0.123   2.921  15.650  0.2669  0.3076  0.0353
19147TIP3    H178932   0.210   2.920  15.691  1.3208 -0.6256 -2.1278
19147TIP3    H278933   0.079   2.997  15.689  2.8076  2.0615 -0.3400
19148TIP3   OH278934   4.344   2.508   5.585 -0.5640  0.4004 -0.3948
19148TIP3    H178935   4.416   2.513   5.648 -1.0857 -0.6042  0.2997
19148TIP3    H278936   4.381   2.462   5.510 -0.1950  0.7818 -0.4478
19149TIP3   OH278937   0.995   1.379   2.593 -0.5496 -0.5784  0.4464
19149TIP3    H178938   1.013   1.322   2.668 -2.1530  1.7142  2.6969
19149TIP3    H278939   0.917   1.340   2.552 -1.8603  0.1330  2.1879
19150TIP3   OH278940   3.583   1.141  16.334 -0.5669  0.0073 -0.3453
19150TIP3    H178941   3.605   1.081  16.263 -2.7079 -1.8860  0.5396
19150TIP3    H278942   3.513   1.197  16.298  1.0521  1.6613 -0.9892
19151TIP3   OH278943   3.867   6.196  10.950 -0.1779  0.0938 -0.2584
19151TIP3    H178944   3.951   6.202  10.905 -0.1970 -1.7574 -0.5795
19151TIP3    H278945   3.862   6.275  11.004  1.9198  0.0382  0.0306
19152TIP3   OH278946   1.271   6.109   4.687 -0.0586 -0.2749  0.5142
19152TIP3    H178947   1.240   6.041   4.627  1.9353 -2.2533  1.6577
19152TIP3    H278948   1.200   6.119   4.750 -1.0946 -0.0263 -0.6826
19153TIP3   OH278949   4.076   0.640   6.541  0.2740  0.3974 -0.2321
19153TIP3    H178950   4.161   0.681   6.553 -0.3090  1.2350  1.1538
19153TIP3    H278951   4.013   0.704   6.575 -0.7645 -0.9525  0.4380
19154TIP3   OH278952   5.148   1.876  12.097  0.1442 -0.1589 -0.4608
19154TIP3    H178953   5.115   1.953  12.144  0.4976 -0.4760  0.3102
19154TIP3    H278954   5.119   1.889  12.007  1.7074  1.7777 -0.7242
19155TIP3   OH278955   2.182   1.578   2.837  0.0692  0.2664 -0.1075
19155TIP3    H178956   2.264   1.627   2.833  0.1634  0.0514 -0.8138
19155TIP3    H278957   2.142   1.589   2.750  0.2292 -1.1388 -0.3759
19156TIP3   OH278958   5.436   3.057   4.405 -0.0310 -0.2057 -0.3041
19156TIP3    H178959   5.411   3.023   4.491 -2.3135  1.2343 -0.3296
19156TIP3    H278960   5.479   2.984   4.361 -0.8883 -1.6711  1.2409
19157TIP3   OH278961   5.003   5.800   5.392  0.0799 -0.5703 -0.0322
19157TIP3    H178962   4.933   5.736   5.399 -0.3359 -0.1049  0.1227
19157TIP3    H278963   5.070   5.757   5.339 -1.0626 -0.3925 -1.6770
19158TIP3   OH278964   4.573   3.474   2.644  0.4528 -0.3568  0.7521
19158TIP3    H178965   4.529   3.511   2.721  0.5503  2.7801 -0.5929
19158TIP3    H278966   4.504   3.470   2.577  1.3124  0.9618 -0.2288
19159TIP3   OH278967   5.439   2.320  14.355  0.0372  0.2819 -0.2359
19159TIP3    H178968   5.407   2.346  14.269  0.3580 -0.4404 -0.5754
19159TIP3    H278969   5.471   2.231  14.343 -0.1671  0.0758  0.6954
19160TIP3   OH278970   2.953   1.435  15.542  0.0932 -0.0572  0.2021
19160TIP3    H178971   2.939   1.516  15.592  1.1139 -0.5498  1.3156
19160TIP3    H278972   3.043   1.443  15.510  0.4864 -1.0998  1.0064
19161TIP3   OH278973   6.596   3.064  14.326 -0.4366 -0.3222  1.2518
19161TIP3    H178974   6.574   3.028  14.241 -0.7658  1.2701  0.6453
19161TIP3    H278975   6.670   3.012  14.356 -0.3246 -0.8967 -0.0034
19162TIP3   OH278976   2.957   1.443   2.020 -0.2336  0.0523  0.2486
19162TIP3    H178977   3.004   1.510   2.069  0.5614 -0.2104 -0.1474
19162TIP3    H278978   2.886   1.491   1.976 -0.5706  0.3830  1.1409
19163TIP3   OH278979   5.338   4.024  16.333  0.1540 -0.6234 -0.5771
19163TIP3    H178980   5.327   4.004  16.240  1.4717  0.6893 -1.0331
19163TIP3    H278981   5.308   4.115  16.341  0.7474 -0.4847  0.1384
19164TIP3   OH278982   3.247   6.233  15.829  0.0633  0.5015 -0.3679
19164TIP3    H178983   3.158   6.257  15.853 -0.1305 -1.4250  1.0382
19164TIP3    H278984   3.302   6.276  15.895 -0.1068 -0.8387  0.6955
19165TIP3   OH278985   0.312   5.897  16.577  0.4381 -0.7879  0.0735
19165TIP3    H178986   0.288   5.863  16.490 -1.0379 -0.7848  0.4580
19165TIP3    H278987   0.258   5.846  16.637  1.5369 -0.8579  1.0001
19166TIP3   OH278988   5.588   2.012  13.467 -0.1229 -0.4355  0.2763
19166TIP3    H178989   5.617   2.035  13.379  1.2611 -1.9068  0.3277
19166TIP3    H278990   5.669   1.997  13.516 -0.8890 -0.0494  1.6931
19167TIP3   OH278991   1.546   0.941  14.812  0.1302 -0.1215  0.5023
19167TIP3    H178992   1.582   1.030  14.807 -0.5470  0.1202 -0.1606
19167TIP3    H278993   1.454   0.951  14.785  0.2608 -1.1543 -0.3290
19168TIP3   OH278994   1.645   2.841  10.982 -0.2816 -0.5370  0.1028
19168TIP3    H178995   1.563   2.855  11.028 -1.2450  0.3250 -1.8229
19168TIP3    H278996   1.624   2.775  10.915  0.2554  0.5656 -1.1854
19169TIP3   OH278997   1.797   0.197  17.042  0.4020  0.3107 -0.4049
19169TIP3    H178998   1.753   0.119  17.010  1.1315  0.7611 -2.6113
19169TIP3    H278999   1.882   0.166  17.073  1.2172  0.3878 -2.5037
19170TIP3   OH279000   1.367   5.987   1.629 -0.5814 -0.0592 -0.1254
19170TIP3    H179001   1.342   5.937   1.551  1.3440  0.4658 -1.1229
19170TIP3    H279002   1.428   5.930   1.676 -0.2055  0.4046 -0.0454
19171TIP3   OH279003   6.665   3.971   3.906  0.1646  0.1881 -0.0656
19171TIP3    H179004   6.733   4.005   3.964  0.2770  0.0824 -0.1375
19171TIP3    H279005   6.583   3.988   3.954  0.2216  0.5398 -0.0904
19172TIP3   OH279006   6.076   0.440  13.433  0.3967 -0.2125  0.0795
19172TIP3    H179007   5.993   0.485  13.419  0.3597 -0.8447 -1.7840
19172TIP3    H279008   6.077   0.421  13.527 -0.9183  1.0341  0.3689
19173TIP3   OH279009   1.920   4.475   1.775  0.1068 -0.0894  0.2091
19173TIP3    H179010   1.871   4.482   1.693  0.9191 -1.2110 -0.3708
19173TIP3    H279011   1.982   4.547   1.772 -0.5483  0.4868  0.3072
19174TIP3   OH279012   1.765   4.966  16.814  0.3342 -0.1789 -0.1667
19174TIP3    H179013   1.702   5.007  16.873 -0.3539 -1.1788 -0.1991
19174TIP3    H279014   1.827   4.921  16.871 -0.0864 -0.7959 -0.2045
19175TIP3   OH279015   3.191   4.315  12.578  0.3266  0.5529 -0.2049
19175TIP3    H179016   3.251   4.384  12.550  0.7134  0.2404 -0.1331
19175TIP3    H279017   3.162   4.344  12.665 -0.5554  1.3076 -0.7304
19176TIP3   OH279018   5.784   4.055  13.904 -0.7778 -0.3506  0.0202
19176TIP3    H179019   5.744   4.014  13.981 -1.7272  2.2623  0.9587
19176TIP3    H279020   5.868   4.011  13.895 -1.2359 -1.6567  1.7224
19177TIP3   OH279021   4.873   0.638   2.024  0.0597 -0.1118 -0.6269
19177TIP3    H179022   4.907   0.658   2.111  0.9431 -1.2981 -0.6881
19177TIP3    H279023   4.881   0.720   1.976 -0.7778  0.6550  0.5008
19178TIP3   OH279024   6.713   5.266  11.024  0.3042  0.3826  0.2233
19178TIP3    H179025   6.677   5.345  10.984  0.6652  0.9557  1.0126
19178TIP3    H279026   6.788   5.243  10.970 -0.0004  0.3900 -0.2007
19179TIP3   OH279027   4.633   1.160   2.332  0.0947 -0.0304  0.3816
19179TIP3    H179028   4.581   1.131   2.407 -2.9763  1.8838 -0.9445
19179TIP3    H279029   4.585   1.129   2.256  2.1894 -0.2830 -0.8976
19180TIP3   OH279030   1.587   4.246  17.082  0.4742  0.5201  0.0505
19180TIP3    H179031   1.514   4.307  17.081  0.3866  0.4113 -0.4192
19180TIP3    H279032   1.649   4.282  17.146  0.5015  1.1852 -0.3509
19181TIP3   OH279033   1.465   4.444   3.051  0.6161  0.0239 -0.3233
19181TIP3    H179034   1.520   4.402   3.117  1.5984  1.6189 -0.0763
19181TIP3    H279035   1.504   4.531   3.040 -1.1760  0.7731 -0.9927
19182TIP3   OH279036   4.899   6.511  17.018 -0.1097 -0.0436  0.1388
19182TIP3    H179037   4.875   6.587  16.965 -1.0741 -0.5170 -0.1234
19182TIP3    H279038   4.922   6.444  16.953 -0.8500 -0.4792  0.3208
19183TIP3   OH279039   2.195   4.852   2.572 -0.0370 -0.2243  0.1179
19183TIP3    H179040   2.118   4.893   2.534 -0.2674  0.3108  1.1593
19183TIP3    H279041   2.262   4.859   2.504 -0.0961  1.8284  0.2595
19184TIP3   OH279042   5.699   2.746  14.731 -0.6507 -0.2279  0.1641
19184TIP3    H179043   5.779   2.716  14.774  0.0431  2.0414  0.5009
19184TIP3    H279044   5.694   2.695  14.650  0.8329 -0.7724  0.4096
19185TIP3   OH279045   2.507   2.599  12.188  0.0703 -0.4217 -0.4749
19185TIP3    H179046   2.572   2.558  12.245  0.8218  0.7712 -0.4733
19185TIP3    H279047   2.440   2.632  12.247 -0.9263 -2.2980 -0.5206
19186TIP3   OH279048   5.619   5.316  15.920  0.4000  0.0752 -0.0058
19186TIP3    H179049   5.669   5.357  15.990  0.5835 -0.7535  0.3632
19186TIP3    H279050   5.676   5.246  15.888 -1.4840 -2.5731  2.1511
19187TIP3   OH279051   1.352   2.624   5.467  0.8267 -0.3703  0.2280
19187TIP3    H179052   1.329   2.717   5.468  1.1870 -0.2683 -0.6229
19187TIP3    H279053   1.291   2.583   5.528 -0.1305  0.2465 -0.3068
19188TIP3   OH279054   0.454   5.731  11.488 -0.3366  0.2311  0.1504
19188TIP3    H179055   0.361   5.735  11.511 -0.2499  0.1518  0.5158
19188TIP3    H279056   0.468   5.640  11.461 -0.9437  0.8383 -2.3877
19189TIP3   OH279057   5.759   4.857   2.996 -0.1104  0.6607  0.2029
19189TIP3    H179058   5.761   4.923   3.065 -0.4545  0.0034  0.8499
19189TIP3    H279059   5.706   4.896   2.927 -1.3787  0.5520  1.1082
19190TIP3   OH279060   0.937   2.121  10.825  0.3259  0.2236 -0.4314
19190TIP3    H179061   0.900   2.205  10.854  0.1698  0.3194 -0.9034
19190TIP3    H279062   0.879   2.055  10.864 -0.6938  0.3884 -1.6439
19191TIP3   OH279063   5.626   4.088   1.927 -0.6530 -0.3279 -0.1419
19191TIP3    H179064   5.547   4.037   1.909 -0.6030 -1.7425  3.2365
19191TIP3    H279065   5.697   4.037   1.889 -0.7805 -2.1005  1.8934
19192TIP3   OH279066   3.098   3.320  15.810  0.4748  0.0956 -1.0788
19192TIP3    H179067   3.149   3.280  15.741  0.6049 -0.7455 -0.4967
19192TIP3    H279068   3.124   3.412  15.809  1.5300 -0.1998 -1.2043
19193TIP3   OH279069   5.969   3.618   3.396  0.2385 -0.5129 -0.5451
19193TIP3    H179070   6.040   3.607   3.459  0.6065 -2.0723 -1.2071
19193TIP3    H279071   6.008   3.597   3.311 -0.4243  0.9137 -1.2133
19194TIP3   OH279072   5.907   1.022  10.424  0.1778 -0.0881  0.0064
19194TIP3    H179073   5.974   1.085  10.396  1.5783 -1.4614  0.1531
19194TIP3    H279074   5.955   0.960  10.480 -0.8485 -2.0940 -1.2841
19195TIP3   OH279075   6.382   0.447  14.749  0.1140  0.6643 -0.1080
19195TIP3    H179076   6.455   0.502  14.775  0.0093  1.8203 -2.1974
19195TIP3    H279077   6.402   0.420  14.659 -0.6757 -1.2968  0.2718
19196TIP3   OH279078   1.950   6.618   5.125 -0.1024 -0.5053  0.2380
19196TIP3    H179079   2.034   6.580   5.100  0.4192  0.8135 -0.0611
19196TIP3    H279080   1.890   6.543   5.131  1.2884 -1.5487  1.3034
19197TIP3   OH279081   1.644   2.291   2.157  0.3703 -0.0391 -0.1315
19197TIP3    H179082   1.589   2.215   2.173 -0.7331  0.6570 -0.6029
19197TIP3    H279083   1.595   2.365   2.191  0.4004  0.7567 -1.7783
19198TIP3   OH279084   5.809   5.108  17.242  0.0571  0.3287  0.2183
19198TIP3    H179085   5.897   5.143  17.257  0.9272 -1.5907 -0.3714
19198TIP3    H279086   5.802   5.034  17.303 -1.7437  1.4188  1.3910
19199TIP3   OH279087   0.121   5.511   0.868 -0.6369 -0.4914  0.3373
19199TIP3    H179088   0.048   5.503   0.806 -0.9815  0.1790  0.6613
19199TIP3    H279089   0.187   5.562   0.821 -0.9280  0.0802  0.5489
19200TIP3   OH279090   0.777   3.444   3.646 -0.3449 -0.1729  0.1869
19200TIP3    H179091   0.746   3.389   3.718 -1.7649 -2.5327 -2.1376
19200TIP3    H279092   0.703   3.500   3.626 -0.6583 -0.9200 -0.7530
19201TIP3   OH279093   2.014   3.190   3.559 -0.2741 -0.1137 -0.1618
19201TIP3    H179094   1.994   3.098   3.538 -1.1658  0.5153 -2.2253
19201TIP3    H279095   2.103   3.187   3.592 -0.4987 -1.8095  0.3860
19202TIP3   OH279096   5.061   4.773   3.092 -0.1480  0.3496 -0.1109
19202TIP3    H179097   5.083   4.681   3.104 -0.6292  0.0586 -1.3299
19202TIP3    H279098   5.131   4.807   3.035  1.0817  1.2257  1.8723
19203TIP3   OH279099   3.871   2.280   4.110 -0.1016 -0.3222  0.1178
19203TIP3    H179100   3.906   2.250   4.026  0.1030  1.9378 -0.6459
19203TIP3    H279101   3.785   2.315   4.089 -0.6811 -1.1298  1.1149
19204TIP3   OH279102   2.405   0.752  13.063 -0.1157 -0.5170 -0.2485
19204TIP3    H179103   2.494   0.781  13.046 -0.2791  0.1406 -0.0189
19204TIP3    H279104   2.395   0.759  13.158 -0.4423 -0.4732 -0.2811
19205TIP3   OH279105   3.107   0.116  15.430  0.3364  0.1080 -0.7428
19205TIP3    H179106   3.150   0.078  15.507  0.4531  0.4629 -0.6314
19205TIP3    H279107   3.069   0.041  15.384 -0.2051 -0.0372 -0.0489
19206TIP3   OH279108   3.923   6.333   2.360  0.1832  0.5787 -0.7195
19206TIP3    H179109   4.003   6.345   2.309 -0.7683  4.7555 -1.3587
19206TIP3    H279110   3.954   6.326   2.451  1.3617  0.8176 -1.0878
19207TIP3   OH279111   0.084   6.466   0.568  0.6044  0.1371  0.2260
19207TIP3    H179112   0.135   6.543   0.541  1.4091 -0.0874  1.0662
19207TIP3    H279113   0.123   6.394   0.519 -0.9432  0.4281 -1.4942
19208TIP3   OH279114   2.957   4.258  15.196  0.1736  0.4183 -0.4118
19208TIP3    H179115   2.997   4.298  15.272 -1.7934  3.1375 -0.7542
19208TIP3    H279116   2.881   4.210  15.230  0.4456 -0.0427 -0.4429
19209TIP3   OH279117   1.272   3.989   4.714 -0.0598 -0.0598 -0.0229
19209TIP3    H179118   1.303   4.031   4.794 -1.1199 -1.1848  1.0097
19209TIP3    H279119   1.351   3.962   4.668  0.5553 -1.1832  1.6313
19210TIP3   OH279120   6.165   4.581   2.458  0.2432  0.3476 -0.2779
19210TIP3    H179121   6.139   4.490   2.444  2.7580 -0.7749  1.8351
19210TIP3    H279122   6.114   4.611   2.533  2.1550 -0.6303  1.4721
19211TIP3   OH279123   0.207   0.030   5.795 -0.0105  0.1563 -0.0813
19211TIP3    H179124   0.150  -0.044   5.815 -0.3299  0.2341 -0.6757
19211TIP3    H279125   0.264   0.039   5.871  0.3406 -1.0012 -0.1915
19212TIP3   OH279126   1.486   6.639   5.064  0.0094 -0.5315  0.3941
19212TIP3    H179127   1.484   6.702   4.992  1.1620  0.4012  1.1732
19212TIP3    H279128   1.464   6.690   5.142 -1.2905 -1.5458  0.7141
19213TIP3   OH279129   1.014   4.205  17.124 -0.0853  0.0335  0.0981
19213TIP3    H179130   0.919   4.196  17.118 -0.1521  0.4252  0.4631
19213TIP3    H279131   1.028   4.257  17.204  0.4606 -0.4721  0.3401
19214TIP3   OH279132   0.885   0.524   3.899 -0.7518 -0.0986 -0.2776
19214TIP3    H179133   0.848   0.599   3.853  1.9612  0.7296 -1.2240
19214TIP3    H279134   0.894   0.457   3.832 -0.2781 -0.1796 -0.1365
19215TIP3   OH279135   5.569   4.065  13.684  0.5689 -0.0738  0.0985
19215TIP3    H179136   5.530   4.014  13.755  0.3515 -1.3441 -0.9275
19215TIP3    H279137   5.652   4.021  13.665 -0.4636 -1.1614 -2.0301
19216TIP3   OH279138   2.311   4.778  17.082  0.0639 -0.1327 -0.1032
19216TIP3    H179139   2.368   4.702  17.088  0.5742  0.2362 -0.2143
19216TIP3    H279140   2.370   4.850  17.057 -0.5729  0.0947 -0.9785
19217TIP3   OH279141   1.888   0.399  15.204  0.0535  0.1994  0.7056
19217TIP3    H179142   1.921   0.422  15.291  1.6804  0.0892  0.1210
19217TIP3    H279143   1.794   0.387  15.217  0.3324 -0.1128  2.5142
19218TIP3   OH279144   1.166   4.006   5.246  0.5992  0.1149 -0.1888
19218TIP3    H179145   1.177   4.085   5.299  3.3520  0.9360 -1.8823
19218TIP3    H279146   1.121   4.037   5.167 -0.2837 -0.4496  0.0810
19219TIP3   OH279147   5.681   1.399  11.255 -0.5600 -0.6074 -0.2022
19219TIP3    H179148   5.684   1.321  11.310  0.8230  0.7319  1.6996
19219TIP3    H279149   5.730   1.376  11.177 -0.4079 -1.7274  0.2227
19220TIP3   OH279150   3.200   1.349  15.750  0.3367 -0.0386 -0.0365
19220TIP3    H179151   3.260   1.400  15.695 -0.0908  1.6568  1.0388
19220TIP3    H279152   3.177   1.273  15.696  2.5522 -0.1415 -0.8974
19221TIP3   OH279153   3.051   0.732   5.340 -0.0734 -0.8601 -0.3087
19221TIP3    H179154   3.007   0.715   5.257  0.6133 -2.7418 -0.3221
19221TIP3    H279155   3.125   0.787   5.317  0.6982 -2.2136 -1.1116
19222TIP3   OH279156   5.021   1.423  12.152  0.1082  0.2543  0.3785
19222TIP3    H179157   5.047   1.505  12.194  1.7502 -0.1803  0.2503
19222TIP3    H279158   5.103   1.387  12.117 -1.1178  0.2800 -2.6395
19223TIP3   OH279159   4.541   6.226   0.561 -0.2651  0.0515 -0.9113
19223TIP3    H179160   4.626   6.191   0.533  0.0807  0.2896 -0.1528
19223TIP3    H279161   4.478   6.159   0.534  0.2734 -0.6209 -0.5145
19224TIP3   OH279162   4.397   6.308   4.436  0.6945  0.6043  0.0326
19224TIP3    H179163   4.477   6.350   4.467  2.8165 -3.6111  0.6251
19224TIP3    H279164   4.410   6.298   4.342 -0.1029  1.8422 -0.2174
19225TIP3   OH279165   4.756   2.247   4.346 -0.2119  0.1020 -0.8349
19225TIP3    H179166   4.749   2.263   4.252 -0.9197  2.1695 -0.4516
19225TIP3    H279167   4.685   2.185   4.365 -1.1118  0.9523 -1.3909
19226TIP3   OH279168   3.590   0.294  11.406  0.7668 -0.5456  0.0173
19226TIP3    H179169   3.567   0.387  11.412  1.2904 -0.4938  1.1309
19226TIP3    H279170   3.664   0.292  11.346  0.9812 -0.2098  0.2693
19227TIP3   OH279171   0.171   0.906   2.827  0.1486  0.3775  0.2287
19227TIP3    H179172   0.152   0.992   2.864  1.9463  1.7611 -1.9507
19227TIP3    H279173   0.224   0.862   2.894  1.9956  2.2311  0.0487
19228TIP3   OH279174   1.065   4.063   1.738 -0.1036  0.3400 -0.1974
19228TIP3    H179175   1.073   3.994   1.671 -0.9209  0.5618 -0.5337
19228TIP3    H279176   0.981   4.104   1.719 -0.7490 -0.1534  1.5149
19229TIP3   OH279177   6.548   1.641  16.044 -0.7676  0.2222  0.7252
19229TIP3    H179178   6.481   1.574  16.038 -1.2586  0.6350  1.5199
19229TIP3    H279179   6.628   1.594  16.069 -1.0052 -0.1296  0.8154
19230TIP3   OH279180   3.844   0.288  16.394  0.3422 -0.5358  0.1262
19230TIP3    H179181   3.925   0.239  16.381  2.1101  1.9541  1.3151
19230TIP3    H279182   3.834   0.292  16.489 -0.3626  0.4741  0.0167
19231TIP3   OH279183   5.959   1.145  16.958  0.1895  0.5154  0.0100
19231TIP3    H179184   5.896   1.084  16.920  0.3265  1.3184 -1.5459
19231TIP3    H279185   5.931   1.231  16.928  3.3501  0.7010 -2.7886
19232TIP3   OH279186   2.118   4.135  12.396 -0.2243  0.3255 -0.3739
19232TIP3    H179187   2.138   4.111  12.487  2.6507  1.4424 -0.6646
19232TIP3    H279188   2.162   4.069  12.343  0.7893  1.4677 -0.9869
19233TIP3   OH279189   5.627   3.282   1.692  0.1559 -0.3946 -0.6598
19233TIP3    H179190   5.700   3.266   1.752  0.9790 -0.7536 -1.7430
19233TIP3    H279191   5.609   3.375   1.701  1.7053  0.0009 -1.4390
19234TIP3   OH279192   0.032   1.563  16.863  0.2134  0.1239  0.2721
19234TIP3    H179193   0.099   1.511  16.907 -0.6464 -1.0979  0.1517
19234TIP3    H279194   0.032   1.532  16.773  0.2688  0.9201 -0.0105
19235TIP3   OH279195   4.210   4.407   2.830 -0.0062 -0.2708 -0.4299
19235TIP3    H179196   4.150   4.380   2.761 -0.5811 -2.0949  0.7319
19235TIP3    H279197   4.246   4.325   2.863 -0.3357  0.5066  1.9375
19236TIP3   OH279198   0.853   1.531   1.437  0.1487  0.3620  0.2702
19236TIP3    H179199   0.918   1.549   1.504  0.3863 -0.3275  0.2276
19236TIP3    H279200   0.879   1.447   1.399 -1.4894 -0.5781  1.1394
19237TIP3   OH279201   2.760   1.654   6.177 -0.6741  0.6067 -0.5026
19237TIP3    H179202   2.706   1.730   6.199 -0.0798  0.7744  0.3954
19237TIP3    H279203   2.848   1.691   6.166 -0.1936 -0.0985  0.9068
19238TIP3   OH279204   3.023   6.350  15.918  0.3860 -0.2630 -0.5248
19238TIP3    H179205   2.948   6.296  15.893 -0.3399  0.1675  0.6823
19238TIP3    H279206   2.985   6.437  15.934  1.6344  0.8625 -3.2305
19239TIP3   OH279207   6.038   2.688  15.221 -0.1733  0.1248 -0.1692
19239TIP3    H179208   5.956   2.707  15.177  0.3766  0.2432 -1.1794
19239TIP3    H279209   6.096   2.761  15.197 -0.1146  0.6086  1.4353
19240TIP3   OH279210   3.560   1.221  14.059 -0.1706 -0.0865  0.8626
19240TIP3    H179211   3.469   1.203  14.038 -0.3983 -0.7160  2.3064
19240TIP3    H279212   3.610   1.159  14.006 -0.4716  1.3922 -1.2061
19241TIP3   OH279213   3.787   3.963  16.222 -0.5180  0.0096 -0.2102
19241TIP3    H179214   3.804   4.048  16.181  3.0326  0.8015  2.6203
19241TIP3    H279215   3.776   3.983  16.315 -0.5524 -2.5105  0.3548
19242TIP3   OH279216   6.252   2.528  13.499  0.9683 -0.1007 -0.5684
19242TIP3    H179217   6.184   2.477  13.542 -0.6547  1.4553 -1.2216
19242TIP3    H279218   6.270   2.480  13.418  0.4941 -0.4017 -0.4981
19243TIP3   OH279219   2.869   6.815  13.475 -0.3129  0.1925  0.3065
19243TIP3    H179220   2.930   6.869  13.424  1.3016 -0.7024  1.2826
19243TIP3    H279221   2.854   6.864  13.556 -0.3397  0.0687  0.3770
19244TIP3   OH279222   5.423   0.708  12.714 -0.1981  0.3946  0.7355
19244TIP3    H179223   5.430   0.800  12.688 -0.0458  0.3150  0.4918
19244TIP3    H279224   5.445   0.708  12.807  0.3114  0.5370  0.6174
19245TIP3   OH279225   3.753   6.610  12.206  0.1159  0.0732  0.2628
19245TIP3    H179226   3.788   6.575  12.125  2.1972 -1.5021  1.7913
19245TIP3    H279227   3.763   6.705  12.197  0.7588 -0.1152 -1.1247
19246TIP3   OH279228   4.612   0.998  16.903  0.2827 -0.7816 -0.1265
19246TIP3    H179229   4.518   1.000  16.886  0.2031  0.3437  0.3673
19246TIP3    H279230   4.643   0.918  16.860 -0.8652 -1.0698 -0.4397
19247TIP3   OH279231   6.617   2.859  13.761  0.0099  0.9549 -0.1265
19247TIP3    H179232   6.598   2.769  13.789  0.3874  1.2167  1.0153
19247TIP3    H279233   6.703   2.877  13.799  0.1622  1.6121 -0.7935
19248TIP3   OH279234   1.008   5.977  13.922  0.6451  0.1825  0.2937
19248TIP3    H179235   1.061   6.002  13.846  1.6975 -0.7709  0.7099
19248TIP3    H279236   1.057   5.907  13.964 -0.4347  0.0076  1.2888
19249TIP3   OH279237   5.606   5.570  13.176  0.4448  0.5467 -0.1865
19249TIP3    H179238   5.699   5.547  13.171  0.3403  0.3356 -1.3565
19249TIP3    H279239   5.570   5.512  13.243  1.6370  2.2781  2.0028
19250TIP3   OH279240   2.030   5.130   3.427  0.1149  0.0761  0.1675
19250TIP3    H179241   2.033   5.034   3.428  2.2706  0.1163  0.4162
19250TIP3    H279242   2.089   5.156   3.498  0.9137  1.5873 -1.0193
19251TIP3   OH279243   0.381   2.945   5.089 -0.7532 -0.2528  0.4430
19251TIP3    H179244   0.443   2.873   5.082  0.6763  0.8124  1.8419
19251TIP3    H279245   0.295   2.903   5.087 -0.0558 -1.6585 -2.4687
19252TIP3   OH279246   6.638   1.148  16.402  0.6862 -0.0628  0.4010
19252TIP3    H179247   6.602   1.099  16.329  0.5230 -1.7372  1.5797
19252TIP3    H279248   6.730   1.121  16.405  0.6386 -0.1655  0.9409
19253TIP3   OH279249   2.798   1.259   0.108 -0.3620  0.0207  0.1735
19253TIP3    H179250   2.753   1.323   0.052 -0.1727 -0.2585 -0.3019
19253TIP3    H279251   2.881   1.243   0.063  0.8145  1.5634  1.7441
19254TIP3   OH279252   3.649   5.910  14.682 -0.1953  0.2867 -0.0670
19254TIP3    H179253   3.581   5.934  14.619 -1.5961 -2.2400  0.4061
19254TIP3    H279254   3.601   5.885  14.761  1.2899 -1.1322  0.4182
19255TIP3   OH279255   5.077   4.648   5.264 -0.3118  0.2214 -0.0999
19255TIP3    H179256   5.093   4.730   5.310  0.6288 -0.0564  0.0922
19255TIP3    H279257   4.998   4.613   5.305  1.8359 -1.1985  3.0610
19256TIP3   OH279258   5.633   3.554  11.355  0.0581  0.1605 -0.1866
19256TIP3    H179259   5.599   3.607  11.282 -1.1049  0.6533  0.6963
19256TIP3    H279260   5.725   3.542  11.335 -0.2194  0.4236 -1.6719
19257TIP3   OH279261   3.841   5.422  15.320  0.4756 -0.2835 -0.5925
19257TIP3    H179262   3.753   5.384  15.319 -0.2625  1.3763 -2.6954
19257TIP3    H279263   3.892   5.366  15.261 -0.2176  1.0311 -2.4827
19258TIP3   OH279264   3.104   0.089  16.563  0.1965 -0.0582  0.1226
19258TIP3    H179265   3.037   0.153  16.538  0.3518  0.8906  2.0827
19258TIP3    H279266   3.157   0.077  16.483  0.2611  2.3708 -0.2246
19259TIP3   OH279267   2.299   6.148  16.628 -0.3024  0.3462  0.9400
19259TIP3    H179268   2.306   6.068  16.576  1.3066  0.5475  0.8116
19259TIP3    H279269   2.282   6.117  16.717  1.1654 -0.2104  1.0538
19260TIP3   OH279270   4.899   5.428  12.326  0.2398  0.4504  0.3262
19260TIP3    H179271   4.912   5.468  12.412  1.1267  0.3254  0.2580
19260TIP3    H279272   4.953   5.480  12.267  0.4052 -0.0676  0.0184
19261TIP3   OH279273   6.228   4.027  15.877 -0.3689 -0.0066  0.7865
19261TIP3    H179274   6.279   3.967  15.931 -1.1800  1.1692  2.8879
19261TIP3    H279275   6.243   3.996  15.787 -3.1072 -5.2018  1.9240
19262TIP3   OH279276   5.304   5.421  15.579  0.0852 -0.4828 -0.1089
19262TIP3    H179277   5.383   5.381  15.544  0.8431 -0.3133  1.3836
19262TIP3    H279278   5.246   5.347  15.597  0.4597 -0.7138  0.1524
19263TIP3   OH279279   6.552   0.926   3.250 -0.0755  0.0087  0.1592
19263TIP3    H179280   6.620   0.895   3.309 -0.9368 -0.6208  0.8238
19263TIP3    H279281   6.588   0.912   3.162  0.6545 -0.2888  0.5062
19264TIP3   OH279282   6.229   6.740   0.880  0.2774  0.3038  0.2025
19264TIP3    H179283   6.276   6.793   0.815  0.6233  1.6085  1.5112
19264TIP3    H279284   6.281   6.660   0.887 -0.4581 -0.4341 -2.0689
19265TIP3   OH279285   2.724   2.873  10.767  0.2263 -0.6363 -0.4039
19265TIP3    H179286   2.734   2.788  10.725  0.2523 -1.2067  0.7260
19265TIP3    H279287   2.662   2.921  10.711 -0.7167 -1.8306 -0.4055
19266TIP3   OH279288   0.987   3.544   1.720 -0.4085 -0.7567  0.1459
19266TIP3    H179289   0.942   3.470   1.679  0.1846 -2.0125  1.7069
19266TIP3    H279290   1.078   3.514   1.728  0.8699  1.8700 -3.3059
19267TIP3   OH279291   1.031   1.539   0.248 -0.1084 -0.3823  0.2994
19267TIP3    H179292   1.086   1.531   0.326  1.4264 -0.8251 -0.8090
19267TIP3    H279293   1.048   1.628   0.215 -0.9305 -0.1108  0.5825
19268TIP3   OH279294   2.707   6.217   7.043  0.2511  0.3002 -0.5494
19268TIP3    H179295   2.629   6.251   7.000 -0.5978 -0.6847  0.1791
19268TIP3    H279296   2.689   6.124   7.056  0.6651  0.4813  1.5329
19269TIP3   OH279297   1.308   5.494  16.210 -0.0807 -0.4442 -0.6002
19269TIP3    H179298   1.253   5.449  16.147 -1.1108 -0.0113 -0.0277
19269TIP3    H279299   1.256   5.496  16.290  1.1655 -0.8934  0.2415
19270TIP3   OH279300   4.693   0.239   6.199  0.1580 -0.7468 -0.4071
19270TIP3    H179301   4.611   0.267   6.242  0.9917 -0.1663  0.8296
19270TIP3    H279302   4.713   0.155   6.239  0.8738 -0.2596  0.2647
19271TIP3   OH279303   5.209   1.518   2.787 -0.0771 -0.2945 -0.1111
19271TIP3    H179304   5.300   1.504   2.811 -0.3549 -1.4670  0.2488
19271TIP3    H279305   5.203   1.487   2.697  0.2478  1.3002 -0.7109
19272TIP3   OH279306   4.876   5.826  11.386  0.0517 -0.2616 -0.0928
19272TIP3    H179307   4.786   5.827  11.356 -0.1634 -1.3355  0.5040
19272TIP3    H279308   4.928   5.852  11.310 -0.4923 -2.7200 -1.3130
19273TIP3   OH279309   1.360   3.481  12.465 -0.2797  0.4662 -0.0357
19273TIP3    H179310   1.277   3.509  12.426 -0.9180 -0.8469  0.3566
19273TIP3    H279311   1.410   3.444  12.393 -1.8213 -2.7950  0.5079
19274TIP3   OH279312   5.660   6.297   5.645  0.5888 -0.5197  0.1327
19274TIP3    H179313   5.721   6.347   5.591  1.0987 -1.8336 -0.5450
19274TIP3    H279314   5.636   6.356   5.716  2.0108  0.2978 -0.0466
19275TIP3   OH279315   2.768   6.241   4.571  0.0091  0.9676  0.6290
19275TIP3    H179316   2.836   6.298   4.608  0.3032 -0.0809  1.7147
19275TIP3    H279317   2.699   6.302   4.543  0.9495  1.9653  0.4250
19276TIP3   OH279318   5.629   6.468   5.366 -0.2112 -0.6611  0.2221
19276TIP3    H179319   5.569   6.526   5.412  0.3594 -0.2325  0.4306
19276TIP3    H279320   5.711   6.473   5.416  0.5107  0.0437 -1.0114
19277TIP3   OH279321   5.196   3.860  16.945 -0.4872  0.2329 -0.4390
19277TIP3    H179322   5.132   3.923  16.914 -0.2075 -0.4815 -2.6167
19277TIP3    H279323   5.281   3.902  16.930 -0.3386 -0.2344 -0.9431
19278TIP3   OH279324   2.377   3.955  15.125 -0.8209 -0.1949 -0.1597
19278TIP3    H179325   2.415   3.868  15.134  0.9414  0.4996 -0.7499
19278TIP3    H279326   2.332   3.970  15.208 -2.0296 -2.0752 -0.4365
19279TIP3   OH279327   2.511   2.890   1.811 -0.2008  0.0071 -0.0045
19279TIP3    H179328   2.568   2.845   1.873 -2.8077 -0.7335  1.9117
19279TIP3    H279329   2.427   2.845   1.818 -0.7262  0.1990 -3.7499
19280TIP3   OH279330   2.031   4.600  12.831  0.1363  0.3464 -0.0093
19280TIP3    H179331   2.104   4.661  12.819 -0.6720  1.2241 -0.4819
19280TIP3    H279332   2.071   4.513  12.822  0.9471  0.8361 -1.2972
19281TIP3   OH279333   3.178   0.381  15.691  0.4406 -0.0888  0.6054
19281TIP3    H179334   3.216   0.319  15.629  1.0533  1.6831 -0.8464
19281TIP3    H279335   3.131   0.444  15.636  0.6724  1.2995  1.9567
19282TIP3   OH279336   2.740   5.909   1.113 -0.3142  0.1693 -0.2195
19282TIP3    H179337   2.762   6.001   1.124 -1.6240  0.7691 -2.3067
19282TIP3    H279338   2.807   5.876   1.052 -0.4047 -0.0193 -0.2176
19283TIP3   OH279339   3.584   3.274  15.997  0.9538  0.0843 -0.4327
19283TIP3    H179340   3.601   3.342  16.062  2.1033 -0.1621 -0.4652
19283TIP3    H279341   3.647   3.291  15.927 -1.1063  1.1249 -2.1034
19284TIP3   OH279342   6.705   1.589  14.675 -0.1888  0.3236 -0.1286
19284TIP3    H179343   6.656   1.570  14.754  0.6712 -0.8658  0.1290
19284TIP3    H279344   6.660   1.664  14.636 -0.8942  0.6129  1.2276
19285TIP3   OH279345   4.921   4.339   4.929 -0.1838  0.2582  0.1826
19285TIP3    H179346   4.986   4.277   4.963 -0.4357 -0.7632 -1.1166
19285TIP3    H279347   4.962   4.376   4.851 -1.0249 -0.1758 -0.4816
19286TIP3   OH279348   2.463   5.151  12.222 -0.1976 -0.4863  0.4230
19286TIP3    H179349   2.541   5.106  12.256 -0.8719 -1.3757  0.7995
19286TIP3    H279350   2.498   5.227  12.176  0.8745 -0.6212  0.9938
19287TIP3   OH279351   3.825   0.240   3.014 -0.2324  0.2698 -0.0107
19287TIP3    H179352   3.912   0.225   2.977 -0.5130  0.8070 -0.9221
19287TIP3    H279353   3.837   0.236   3.108  0.5855 -0.7338 -0.1520
19288TIP3   OH279354   5.958   0.761   2.674  0.2577 -0.2333 -0.3791
19288TIP3    H179355   5.999   0.755   2.588  0.1456  2.9973 -0.7260
19288TIP3    H279356   5.864   0.758   2.657  0.1419  3.1802 -0.7407
19289TIP3   OH279357   2.829   0.850   4.158 -0.2234  0.3399 -0.6697
19289TIP3    H179358   2.880   0.904   4.097  0.8534  2.3237  1.9191
19289TIP3    H279359   2.755   0.906   4.182  0.6945  0.5637  1.7498
19290TIP3   OH279360   4.651   0.300   2.019  0.1188 -0.3537 -0.4062
19290TIP3    H179361   4.703   0.380   2.031  0.3871 -0.3089 -1.7712
19290TIP3    H279362   4.701   0.232   2.064  1.5024 -0.3588 -1.9120
19291TIP3   OH279363   3.599   6.192   5.039  0.0891  0.0543  0.6369
19291TIP3    H179364   3.656   6.134   4.989 -0.5769  0.7672 -0.9985
19291TIP3    H279365   3.607   6.277   4.994 -2.0074  0.2261  0.5550
19292TIP3   OH279366   2.900   2.930  11.023 -0.0015  0.5898  0.8209
19292TIP3    H179367   2.853   2.917  10.941 -0.5099  4.0639  0.4665
19292TIP3    H279368   2.904   3.026  11.034  1.6784  0.2569  3.9001
19293TIP3   OH279369   3.442   6.534   0.490  0.0889 -0.4922  0.2212
19293TIP3    H179370   3.436   6.438   0.488 -1.0276 -0.4247  0.2462
19293TIP3    H279371   3.362   6.564   0.448  0.2180  0.4390  0.6414
19294TIP3   OH279372   6.689   6.231   0.683  0.2285 -0.4813  0.3003
19294TIP3    H179373   6.694   6.327   0.692  1.1224 -0.4869 -0.0449
19294TIP3    H279374   6.624   6.217   0.614  0.8059 -0.0832 -0.3362
19295TIP3   OH279375   0.530   3.118   4.818  0.2586 -0.0540  0.7054
19295TIP3    H179376   0.464   3.166   4.867 -0.3965  0.7777 -0.9403
19295TIP3    H279377   0.524   3.153   4.729  2.0280 -0.8813  0.2327
19296TIP3   OH279378   0.515   2.473  12.844  0.3642  0.0077  0.4408
19296TIP3    H179379   0.557   2.412  12.904  0.5262 -2.0455 -1.6901
19296TIP3    H279380   0.566   2.553  12.850  1.4886 -0.7909  1.6564
19297TIP3   OH279381   1.850   5.312   1.117 -0.1885  0.1028 -0.1961
19297TIP3    H179382   1.857   5.217   1.132 -1.1455 -0.0072 -0.4178
19297TIP3    H279383   1.907   5.351   1.184 -0.6820 -0.5785  0.6335
19298TIP3   OH279384   4.232   6.395  11.647  0.3032  0.2380  0.2468
19298TIP3    H179385   4.216   6.446  11.727 -0.6050 -0.5333  0.5640
19298TIP3    H279386   4.296   6.329  11.674  1.7209  1.3794 -0.2410
19299TIP3   OH279387   5.980   6.523  13.099  0.3229 -0.4179 -0.4792
19299TIP3    H179388   5.920   6.572  13.044  1.0179  1.7469  0.6169
19299TIP3    H279389   5.941   6.436  13.106 -1.8985  0.4996 -0.9948
19300TIP3   OH279390   0.906   2.342   4.373 -0.8049  0.2421 -0.3013
19300TIP3    H179391   0.853   2.421   4.360 -2.3839 -0.4382  1.8362
19300TIP3    H279392   0.900   2.296   4.290  0.2298  2.4078 -1.6295
19301TIP3   OH279393   0.242   2.971  16.668 -0.4423  0.3603  0.6302
19301TIP3    H179394   0.162   2.921  16.657 -1.4288  1.8924  0.6697
19301TIP3    H279395   0.250   2.985  16.762  0.1452 -0.2265  0.6689
19302TIP3   OH279396   1.670   3.006  17.236 -0.3520 -0.1790  0.5105
19302TIP3    H179397   1.659   3.021  17.142  1.3804 -2.8560 -0.1839
19302TIP3    H279398   1.610   3.067  17.277 -0.3027  1.8641 -2.3084
19303TIP3   OH279399   1.506   0.582   5.526  0.1793 -0.7429  0.1211
19303TIP3    H179400   1.460   0.659   5.559 -0.4235 -0.8271 -0.5198
19303TIP3    H279401   1.456   0.555   5.449  1.2949 -0.8516 -0.5699
19304TIP3   OH279402   6.001   1.076   3.195 -0.1119  0.2550  0.4013
19304TIP3    H179403   6.030   1.053   3.107 -0.3334 -1.2127  0.6887
19304TIP3    H279404   5.930   1.138   3.182  1.0935  1.4775 -0.3966
19305TIP3   OH279405   1.374   2.794   3.914  0.0001  0.3193  0.0472
19305TIP3    H179406   1.283   2.789   3.943  0.5361  1.1396  1.9389
19305TIP3    H279407   1.415   2.715   3.951 -0.1874 -0.6449 -1.7600
19306TIP3   OH279408   4.634   1.699  13.059 -0.3118 -0.2963  0.2300
19306TIP3    H179409   4.610   1.704  12.967  1.0635  1.5083 -0.0569
19306TIP3    H279410   4.702   1.632  13.063  0.2193  0.2112 -0.2106
19307TIP3   OH279411   6.658   1.471   4.509 -0.7262  0.2797 -0.1179
19307TIP3    H179412   6.754   1.472   4.516 -0.8268  1.3212  1.1392
19307TIP3    H279413   6.639   1.386   4.469  0.7813  0.4687 -1.2987
19308TIP3   OH279414   2.655   6.059  13.231  0.1633  0.5460  0.4214
19308TIP3    H179415   2.566   6.093  13.240  0.4367  1.6424 -0.9990
19308TIP3    H279416   2.649   5.969  13.265 -1.7574  0.2019 -0.7377
19309TIP3   OH279417   3.569   0.858  15.570 -0.3373 -0.6857  0.7162
19309TIP3    H179418   3.596   0.909  15.494 -0.7577 -1.3705  0.1016
19309TIP3    H279419   3.496   0.805  15.539 -0.7346 -0.7256  1.6888
19310TIP3   OH279420   1.617   5.085   4.673 -0.9116  0.2430  0.0578
19310TIP3    H179421   1.547   5.024   4.697  0.4638 -0.9481  1.0700
19310TIP3    H279422   1.687   5.069   4.736  2.0155 -1.5880 -3.4819
19311TIP3   OH279423   4.463   4.975   2.212 -0.2410 -0.1834 -0.2870
19311TIP3    H179424   4.444   5.029   2.290  0.0624  1.1015 -1.0806
19311TIP3    H279425   4.514   5.033   2.155 -0.8216 -0.9675 -1.6321
19312TIP3   OH279426   0.253   2.985  11.313  0.0639  0.5665  0.2017
19312TIP3    H179427   0.302   3.017  11.389  0.7134  0.8026 -0.3100
19312TIP3    H279428   0.255   3.057  11.251 -0.0686  0.2054 -0.2241
19313TIP3   OH279429   5.494   1.825   1.990 -0.2735 -0.2062  0.5664
19313TIP3    H179430   5.416   1.770   1.986  1.4253 -2.6790  0.3498
19313TIP3    H279431   5.522   1.833   1.899  0.4526 -0.4211  0.7691
19314TIP3   OH279432   3.133   6.677   0.128 -0.6711  0.4592 -0.2438
19314TIP3    H179433   3.162   6.632   0.048  0.5948 -1.5940  1.3028
19314TIP3    H279434   3.189   6.754   0.134  0.4093 -0.3070 -0.4278
19315TIP3   OH279435   0.638   3.471   6.528 -0.4992 -0.1674 -0.2482
19315TIP3    H179436   0.577   3.503   6.462  0.4714 -0.2871 -1.2043
19315TIP3    H279437   0.702   3.542   6.539  0.9741 -1.2663 -1.5181
19316TIP3   OH279438   0.867   3.759  11.429  0.1634  0.0193  0.6678
19316TIP3    H179439   0.864   3.818  11.505 -0.6399  0.5587  0.2284
19316TIP3    H279440   0.876   3.818  11.354  1.8974 -0.5618  0.3985
19317TIP3   OH279441   1.280   0.471  11.595  0.1213 -0.5620 -0.1863
19317TIP3    H179442   1.224   0.409  11.549 -0.1313 -0.1863 -0.3866
19317TIP3    H279443   1.281   0.441  11.686  2.5891 -2.7698 -0.8660
19318TIP3   OH279444   4.589   4.821  12.233 -0.4164 -0.1101  0.5550
19318TIP3    H179445   4.599   4.907  12.191 -0.2798 -0.1738  0.4570
19318TIP3    H279446   4.644   4.762  12.180 -0.4021 -0.2305  0.7039
19319TIP3   OH279447   4.897   4.312   5.318 -0.0343 -0.1578 -0.1730
19319TIP3    H179448   4.832   4.359   5.266 -0.1383 -1.5884 -1.3447
19319TIP3    H279449   4.979   4.322   5.270  0.1283 -0.4182  0.0469
19320TIP3   OH279450   3.344   5.216  16.998 -0.4933 -0.1108 -0.4475
19320TIP3    H179451   3.348   5.120  16.997 -2.2175 -0.1825 -1.0099
19320TIP3    H279452   3.262   5.237  16.954 -0.8301  1.6002  0.9594
19321TIP3   OH279453   3.567   6.189   0.066 -0.2278 -0.3321 -0.0441
19321TIP3    H179454   3.544   6.247  -0.006 -0.7698  0.5720  0.8276
19321TIP3    H279455   3.641   6.138   0.034  0.4771  1.0696 -0.7214
19322TIP3   OH279456   6.049   5.929   1.141 -0.5764 -0.2533 -0.4578
19322TIP3    H179457   6.138   5.962   1.145 -0.8571  0.6355 -1.3616
19322TIP3    H279458   6.031   5.897   1.230  1.0002 -1.4208 -0.5417
19323TIP3   OH279459   3.688   5.584  14.748 -0.3449 -0.3171  0.0050
19323TIP3    H179460   3.740   5.520  14.796 -0.8671  0.6557  1.9089
19323TIP3    H279461   3.693   5.663  14.801 -1.0259  0.7651 -1.5055
19324TIP3   OH279462   0.343   6.261   5.982  0.4253 -0.4590 -0.1649
19324TIP3    H179463   0.416   6.302   6.028 -0.5352  0.6038  0.4539
19324TIP3    H279464   0.328   6.318   5.907  0.4274 -0.8467 -0.4612
19325TIP3   OH279465   6.743   0.900  16.887 -0.0044 -0.4451  0.0032
19325TIP3    H179466   6.821   0.930  16.934  0.5484 -1.7942 -0.0491
19325TIP3    H279467   6.673   0.957  16.921  0.2005 -1.9410  3.1465
19326TIP3   OH279468   0.415   0.526   0.830  0.1756  0.3143 -0.2293
19326TIP3    H179469   0.502   0.487   0.820 -0.4158 -0.5650 -2.1289
19326TIP3    H279470   0.373   0.474   0.898  0.6311 -0.1597 -0.3063
19327TIP3   OH279471   2.518   6.027  12.010  0.5463  0.3378  0.7361
19327TIP3    H179472   2.527   5.984  12.095  1.6605 -0.0422  0.4467
19327TIP3    H279473   2.606   6.060  11.991  0.0272  1.4686  0.2798
19328TIP3   OH279474   6.610   5.806   0.060  0.3891 -0.1705 -0.2338
19328TIP3    H179475   6.550   5.734   0.042 -0.6034  0.2984  1.0380
19328TIP3    H279476   6.586   5.874  -0.004 -0.2471 -0.0971  0.0789
19329TIP3   OH279477   2.618   6.327   0.868  0.1984  0.1444 -0.6491
19329TIP3    H179478   2.557   6.326   0.795 -1.4331 -0.1270  0.6896
19329TIP3    H279479   2.585   6.261   0.929  0.8476  1.1807  0.8642
19330TIP3   OH279480   5.956   3.145  16.090  0.9808  0.1371  0.3119
19330TIP3    H179481   5.992   3.215  16.036 -1.2543  1.3351  0.2987
19330TIP3    H279482   5.880   3.185  16.132  1.5387 -1.3514  2.8268
19331TIP3   OH279483   0.308   1.499   1.012  0.0208  0.6167  0.5077
19331TIP3    H179484   0.222   1.484   1.052 -0.5753  1.7738 -0.2949
19331TIP3    H279485   0.308   1.444   0.934  0.0934  0.4513  0.6244
19332TIP3   OH279486   4.724   5.202  13.944  0.0079  0.5818 -0.2013
19332TIP3    H179487   4.751   5.118  13.906  1.9713  0.6228  1.0519
19332TIP3    H279488   4.766   5.268  13.887  1.9545  0.6521  1.2653
19333TIP3   OH279489   4.686   4.457   4.742 -0.4582  0.5705 -0.3576
19333TIP3    H179490   4.697   4.540   4.790  1.8366 -0.3360  0.7955
19333TIP3    H279491   4.600   4.425   4.768 -0.3891  1.4664  1.0521
19334TIP3   OH279492   4.344   0.371  16.141  0.5799 -0.1301  0.1227
19334TIP3    H179493   4.353   0.345  16.049  0.2366  2.5218 -0.6810
19334TIP3    H279494   4.412   0.437  16.155 -1.5514  2.0045  0.7839
19335TIP3   OH279495   1.015   0.660  15.791 -0.0737  0.0306 -0.7462
19335TIP3    H179496   1.110   0.647  15.793 -0.2534 -1.1680  1.8757
19335TIP3    H279497   1.001   0.744  15.835 -0.2604 -0.1732 -0.4083
19336TIP3   OH279498   2.569   3.494   3.432 -0.2900 -0.8277  0.0709
19336TIP3    H179499   2.523   3.578   3.421 -0.6400 -1.1297 -0.8865
19336TIP3    H279500   2.499   3.429   3.438 -0.0603 -0.8904  2.5145
19337TIP3   OH279501   5.395   1.970   3.212  0.2704  0.0966  0.3130
19337TIP3    H179502   5.318   1.961   3.156  0.3837  0.8118  0.0238
19337TIP3    H279503   5.362   1.962   3.301 -0.0443 -0.2247  0.1682
19338TIP3   OH279504   1.029   2.138  11.801 -0.6632 -0.3033 -0.3814
19338TIP3    H179505   1.017   2.134  11.896  1.4146  2.1429  0.0470
19338TIP3    H279506   0.944   2.165  11.767 -1.3625 -0.9869  0.7792
19339TIP3   OH279507   5.599   3.758   0.474  0.1385  0.0810  0.0738
19339TIP3    H179508   5.550   3.679   0.498  0.8805 -0.4868 -0.2542
19339TIP3    H279509   5.691   3.732   0.482  0.4797 -0.4723 -4.3698
19340TIP3   OH279510   2.054   0.420   4.759 -0.3156  0.2783  0.2361
19340TIP3    H179511   2.050   0.419   4.664 -2.6440 -1.7065  0.3076
19340TIP3    H279512   2.079   0.330   4.783  0.4024  0.8012  1.5010
19341TIP3   OH279513   2.552   6.632   0.135  0.3073  0.2169 -0.7084
19341TIP3    H179514   2.482   6.647   0.072  0.2681  0.3622 -0.6307
19341TIP3    H279515   2.626   6.603   0.082  0.4755  0.9864 -0.8942
19342TIP3   OH279516   3.453   5.127   3.047 -0.3692 -0.3808  0.9312
19342TIP3    H179517   3.536   5.128   2.999  0.2618 -0.0620  2.0136
19342TIP3    H279518   3.433   5.034   3.058 -0.5610 -0.4523 -0.0257
19343TIP3   OH279519   1.112   6.661  11.957  0.0409  0.1876  0.1892
19343TIP3    H179520   1.027   6.622  11.980 -0.5076  0.7981 -0.7795
19343TIP3    H279521   1.139   6.615  11.877 -0.0339  0.9314 -0.2729
19344TIP3   OH279522   6.547   1.160  14.065  0.4593  0.5173 -0.1185
19344TIP3    H179523   6.618   1.121  14.116  1.4630 -0.2863 -2.1065
19344TIP3    H279524   6.474   1.099  14.075  0.6759  0.3239  0.3001
19345TIP3   OH279525   6.582   0.607   5.017 -0.1009  0.5208  0.4121
19345TIP3    H179526   6.561   0.696   5.046 -0.0445  1.3897 -2.0349
19345TIP3    H279527   6.507   0.582   4.963 -0.6595 -1.4134  2.0327
19346TIP3   OH279528   2.781   4.841  15.385 -0.1035 -0.2420 -0.2066
19346TIP3    H179529   2.808   4.917  15.437 -0.3566  0.5980 -1.2935
19346TIP3    H279530   2.699   4.868  15.343 -0.6948 -1.4615  0.1567
19347TIP3   OH279531   3.679   1.454  16.074 -0.2712  0.2306  0.3496
19347TIP3    H179532   3.663   1.413  15.990  2.1689 -0.8672  0.3826
19347TIP3    H279533   3.594   1.451  16.119 -1.2196 -0.5548 -1.4529
19348TIP3   OH279534   2.243   5.050  11.812 -0.1512 -0.3614 -0.0737
19348TIP3    H179535   2.237   5.111  11.885  0.3982 -1.7999  1.2128
19348TIP3    H279536   2.173   4.987  11.827 -1.2330  0.3834 -1.8228
19349TIP3   OH279537   6.282   4.044  16.571 -0.6157  0.1913 -0.8050
19349TIP3    H179538   6.328   4.118  16.533  0.1448 -0.1125 -0.4757
19349TIP3    H279539   6.288   3.975  16.504  3.1510 -1.2856  0.9304
19350TIP3   OH279540   0.867   5.415  16.754  0.0379  0.0816 -0.2958
19350TIP3    H179541   0.852   5.323  16.735 -0.6872 -0.0149  0.7078
19350TIP3    H279542   0.948   5.417  16.806 -0.4724 -0.0966  0.5251
19351TIP3   OH279543   0.701   1.116   5.072  0.0887 -0.0358 -0.3251
19351TIP3    H179544   0.631   1.085   5.015 -2.0526 -0.2605  2.3279
19351TIP3    H279545   0.706   1.210   5.055  0.7972 -0.3905 -2.2200
19352TIP3   OH279546   3.709   0.430   6.553  0.8456 -0.0096 -0.3816
19352TIP3    H179547   3.644   0.438   6.483  0.3898 -4.6470 -0.6721
19352TIP3    H279548   3.778   0.376   6.516  3.2797  2.0191  1.0545
19353TIP3   OH279549   2.433   3.552  12.021 -0.3281  0.3807  0.2464
19353TIP3    H179550   2.424   3.471  12.072  1.4277 -1.1307 -1.7514
19353TIP3    H279551   2.512   3.593  12.056  0.2615 -0.1100 -0.4880
19354TIP3   OH279552   2.049   4.917   2.105 -0.1342 -0.1203 -0.1838
19354TIP3    H179553   2.049   4.889   2.013 -0.0851 -1.0215  0.0841
19354TIP3    H279554   2.089   4.844   2.152  0.3279  0.5668  0.4935
19355TIP3   OH279555   2.572   1.630  13.494  0.0130 -0.1901 -0.2223
19355TIP3    H179556   2.637   1.636  13.563  0.7644  0.3640 -0.9646
19355TIP3    H279557   2.542   1.720  13.481  0.7293 -0.1093 -1.4103
19356TIP3   OH279558   1.399   3.052  14.609  0.1152 -0.3096  0.3254
19356TIP3    H179559   1.465   3.008  14.662 -0.6578  0.2232  1.7417
19356TIP3    H279560   1.362   2.983  14.554  0.4651 -0.9912  0.9356
19357TIP3   OH279561   5.485   3.843   2.154 -0.2154  0.0092  0.7442
19357TIP3    H179562   5.435   3.835   2.073 -1.0293  2.4825  0.9457
19357TIP3    H279563   5.566   3.795   2.138 -1.1491 -1.0468 -0.8821
19358TIP3   OH279564   2.871   1.381  14.507  0.1734  0.1940 -0.2157
19358TIP3    H179565   2.787   1.341  14.529  0.5415 -0.2618  0.3549
19358TIP3    H279566   2.930   1.353  14.576  1.4788 -1.6972 -2.0600
19359TIP3   OH279567   4.548   3.634   1.653  0.6424  0.4632 -0.2474
19359TIP3    H179568   4.515   3.661   1.739  2.6655  0.2656  0.6196
19359TIP3    H279569   4.491   3.678   1.590 -0.4937  1.0761  1.1876
19360TIP3   OH279570   3.069   5.919  11.196  0.9603 -0.0218 -0.8972
19360TIP3    H179571   3.103   5.989  11.139  0.1059 -0.0772 -1.4948
19360TIP3    H279572   3.060   5.844  11.138  3.2063 -1.0588  0.0609
19361TIP3   OH279573   3.277   0.394  14.299  0.0111  0.7647 -0.4175
19361TIP3    H179574   3.287   0.340  14.221  1.1637 -0.0821  0.3088
19361TIP3    H279575   3.245   0.478  14.266  2.4566  1.1133 -2.0350
19362TIP3   OH279576   5.553   1.082  16.817  0.1206 -0.3777 -0.2750
19362TIP3    H179577   5.615   1.011  16.832  0.8154  0.1019 -0.8559
19362TIP3    H279578   5.535   1.079  16.723 -0.9190 -0.6598 -0.0761
19363TIP3   OH279579   0.060   2.721  11.379 -0.0290  0.0808 -0.8256
19363TIP3    H179580   0.058   2.766  11.464  0.1024  2.1950 -1.8964
19363TIP3    H279581   0.126   2.769  11.329  0.3588 -1.5622 -1.9070
19364TIP3   OH279582   0.358   4.038  13.884 -0.2243  0.0852  0.5432
19364TIP3    H179583   0.379   4.020  13.792  2.1374 -2.7940  1.5729
19364TIP3    H279584   0.388   4.127  13.899 -1.2415  0.8211 -1.6280
19365TIP3   OH279585   5.421   2.568   0.469 -0.3554  0.0511 -0.1903
19365TIP3    H179586   5.428   2.483   0.425  1.2024 -0.2302  0.5604
19365TIP3    H279587   5.360   2.618   0.416 -2.2882 -1.9713  0.0478
19366TIP3   OH279588   5.535   0.571  16.762 -0.7405  0.4641  0.2307
19366TIP3    H179589   5.462   0.553  16.703 -0.1334  2.3483 -1.1399
19366TIP3    H279590   5.501   0.637  16.823 -1.6083 -2.0257  2.5248
19367TIP3   OH279591   5.221   2.801   4.377  0.2069  0.2073  0.3149
19367TIP3    H179592   5.178   2.715   4.383  0.4865  0.1757  2.3598
19367TIP3    H279593   5.153   2.864   4.401  0.1009  0.5457 -0.8378
19368TIP3   OH279594   0.302   1.783   3.919  0.2086 -0.0013 -0.6528
19368TIP3    H179595   0.375   1.842   3.936 -0.0595  0.1428  0.0044
19368TIP3    H279596   0.238   1.804   3.986  0.7954 -2.1958  0.6627
19369TIP3   OH279597   4.125   2.471  16.950 -0.1624 -0.5826 -0.0789
19369TIP3    H179598   4.041   2.442  16.985  0.1294 -0.6166  0.5952
19369TIP3    H279599   4.190   2.418  16.996  0.3508  0.8432  0.8543
19370TIP3   OH279600   1.918   0.574  14.381 -0.0183 -0.0924 -0.5786
19370TIP3    H179601   1.834   0.596  14.422 -0.0338 -0.5358 -0.3722
19370TIP3    H279602   1.901   0.582  14.287 -0.0737  0.5934 -0.5139
19371TIP3   OH279603   0.198   1.049   5.904  0.0135  0.1033  0.2354
19371TIP3    H179604   0.182   0.986   5.975 -0.4667 -0.4352 -0.3534
19371TIP3    H279605   0.294   1.058   5.902  0.0974 -0.8301  0.1248
19372TIP3   OH279606   3.264   3.279   4.862 -0.3870  0.3962 -0.7020
19372TIP3    H179607   3.259   3.220   4.786  2.0434 -0.1741 -0.4393
19372TIP3    H279608   3.269   3.366   4.824 -2.2560  0.3636 -1.1147
19373TIP3   OH279609   1.181   6.110   1.405 -0.4527  0.2397 -0.1787
19373TIP3    H179610   1.246   6.085   1.471 -1.7775  0.2791  1.1640
19373TIP3    H279611   1.199   6.052   1.331 -0.7841 -1.8153  1.2960
19374TIP3   OH279612   1.745   5.175  13.939 -1.1597 -0.6739 -0.2515
19374TIP3    H179613   1.686   5.180  14.014 -0.6071  1.9535  0.0464
19374TIP3    H279614   1.822   5.128  13.971 -1.2319 -0.2038  0.6297
19375TIP3   OH279615   6.011   0.433   1.755 -0.2874 -0.1057 -0.1829
19375TIP3    H179616   6.101   0.435   1.787 -0.2074  0.9992 -0.4655
19375TIP3    H279617   5.999   0.343   1.724  0.7826 -0.2011 -0.3418
19376TIP3   OH279618   5.596   2.713   5.314 -0.2485 -0.1235 -0.3666
19376TIP3    H179619   5.525   2.777   5.309 -2.6387 -2.7526 -1.3834
19376TIP3    H279620   5.667   2.752   5.262 -0.6212  2.8668  1.2408
19377TIP3   OH279621   6.471   3.681   0.224  0.0669 -0.1146 -0.4418
19377TIP3    H179622   6.442   3.642   0.141  1.6394 -0.7740 -0.6938
19377TIP3    H279623   6.554   3.723   0.203 -0.5916  1.6150  0.3137
19378TIP3   OH279624   2.917   4.314  13.061 -0.3047 -0.3073  0.0678
19378TIP3    H179625   2.872   4.327  13.145  0.5976 -1.6690  0.7924
19378TIP3    H279626   3.004   4.280  13.086 -0.3674 -1.6350 -1.4354
19379TIP3   OH279627   6.787   3.593  15.637 -0.2389  0.1445 -0.2118
19379TIP3    H179628   6.731   3.634  15.571  1.1530  1.3385 -0.6691
19379TIP3    H279629   6.859   3.655  15.650 -0.2874 -0.2301  2.1540
19380TIP3   OH279630   3.831   0.108  14.587  0.4460 -0.0820 -0.2079
19380TIP3    H179631   3.902   0.132  14.528 -0.8408  0.4873 -1.5623
19380TIP3    H279632   3.782   0.041  14.540 -1.0486  0.9356 -0.1580
19381TIP3   OH279633   5.684   2.631   0.705  0.6925 -0.5675  0.4747
19381TIP3    H179634   5.663   2.694   0.635  1.1407 -1.8429 -0.8401
19381TIP3    H279635   5.779   2.638   0.715  0.3899  1.1720  2.5102
19382TIP3   OH279636   3.816   3.601   4.786  0.5105  0.0537 -0.0061
19382TIP3    H179637   3.875   3.582   4.859  2.0642  1.2604 -0.9184
19382TIP3    H279638   3.873   3.636   4.717 -0.9516 -0.8190 -1.7219
19383TIP3   OH279639   0.243   5.613   4.611  0.2549 -1.0064  0.3438
19383TIP3    H179640   0.178   5.681   4.597  2.0360  0.7472  0.3991
19383TIP3    H279641   0.265   5.582   4.523  0.3936 -0.5927  0.2324
19384TIP3   OH279642   3.506   3.458   2.823 -0.1379  0.5179  0.1789
19384TIP3    H179643   3.538   3.521   2.887 -1.4022  0.8460  0.5028
19384TIP3    H279644   3.452   3.397   2.873 -1.4775  1.0212 -0.6302
19385TIP3   OH279645   3.066   4.846  13.150 -0.3750  0.2822  0.2007
19385TIP3    H179646   3.092   4.910  13.083  0.5013 -0.3419 -0.0706
19385TIP3    H279647   3.030   4.899  13.221  1.2013  1.1645  0.3659
19386TIP3   OH279648   4.404   2.599   6.445  0.3105  0.0299  0.1011
19386TIP3    H179649   4.327   2.642   6.483 -0.6904  0.5824 -2.4161
19386TIP3    H279650   4.472   2.666   6.444 -0.0039  0.3484 -0.0704
19387TIP3   OH279651   2.777   0.677  12.433  0.1481  0.1933  0.0209
19387TIP3    H179652   2.863   0.680  12.390 -0.5851  1.2869 -1.4071
19387TIP3    H279653   2.790   0.723  12.516  1.0307 -0.0110 -0.0003
19388TIP3   OH279654   6.094   6.455  14.893  0.1231 -0.5448  0.0693
19388TIP3    H179655   6.050   6.492  14.816  0.2239 -0.3950  0.0822
19388TIP3    H279656   6.060   6.506  14.967 -2.4768 -2.8548  0.5392
19389TIP3   OH279657   1.169   5.874   4.551  0.1799 -0.8819  0.3055
19389TIP3    H179658   1.207   5.813   4.613  0.0465 -1.4248 -0.1493
19389TIP3    H279659   1.079   5.888   4.583  0.4916 -0.2329  0.9110
19390TIP3   OH279660   1.048   0.299   0.056  0.0776  0.0439 -0.4544
19390TIP3    H179661   1.071   0.241   0.130  0.9211  0.8563 -0.0760
19390TIP3    H279662   0.977   0.353   0.090  0.0402 -0.0084 -0.4483
19391TIP3   OH279663   3.590   4.962   5.437  0.5815 -0.9327  0.2126
19391TIP3    H179664   3.588   5.025   5.364  0.1077 -0.2059  0.8463
19391TIP3    H279665   3.590   4.877   5.394  1.3991 -0.5135 -0.6729
19392TIP3   OH279666   2.008   2.078  15.646  0.1505  0.3428  0.1996
19392TIP3    H179667   1.945   2.047  15.581  0.4339 -0.4389  0.2889
19392TIP3    H279668   2.080   2.114  15.595 -0.0222  0.5281  0.0891
19393TIP3   OH279669   3.555   4.633  16.367 -0.4752 -0.2651  0.6502
19393TIP3    H179670   3.496   4.687  16.314 -0.5629  0.0646  1.0869
19393TIP3    H279671   3.639   4.637  16.320 -0.8973 -1.0909 -0.2040
19394TIP3   OH279672   4.172   6.476   3.818  0.0131 -0.3886 -0.4606
19394TIP3    H179673   4.141   6.432   3.897 -3.7404 -1.2425 -2.3056
19394TIP3    H279674   4.246   6.422   3.788 -1.3950 -2.6847  0.0342
19395TIP3   OH279675   1.835   3.654   6.051 -0.5027 -0.2323 -0.3319
19395TIP3    H179676   1.860   3.660   6.144  1.2069  0.8944 -0.8330
19395TIP3    H279677   1.746   3.687   6.048  0.4663  2.5862  0.5011
19396TIP3   OH279678   3.671   6.178   6.220  0.0983 -0.0087  0.2904
19396TIP3    H179679   3.601   6.170   6.285  1.0680 -0.6828  1.2659
19396TIP3    H279680   3.710   6.091   6.215  0.5203  0.2253 -0.6537
19397TIP3   OH279681   2.077   5.539  11.621  0.6273  0.4597 -0.0694
19397TIP3    H179682   2.050   5.470  11.561  2.6229 -0.5016  0.1032
19397TIP3    H279683   2.040   5.514  11.705 -0.4336  0.7227 -0.4557
19398TIP3   OH279684   1.037   2.353   5.313 -0.4145  0.4864 -0.4196
19398TIP3    H179685   1.129   2.330   5.296 -0.0307 -0.3392  2.5313
19398TIP3    H279686   1.010   2.293   5.383 -2.8367  1.5918 -0.3582
19399TIP3   OH279687   0.086   0.088   5.446 -0.7054 -0.6462 -0.0667
19399TIP3    H179688   0.107  -0.005   5.433 -2.3452 -1.5176  2.8997
19399TIP3    H279689   0.153   0.120   5.506 -0.4426 -0.0255 -0.6806
19400TIP3   OH279690   5.936   4.012   2.102 -0.0997 -0.5084 -0.7136
19400TIP3    H179691   5.910   3.968   2.021 -1.2358  0.1591 -0.7146
19400TIP3    H279692   5.869   3.988   2.166  0.1183 -0.0183 -0.2986
19401TIP3   OH279693   0.711   5.723   5.241 -0.2241  0.1386 -0.2927
19401TIP3    H179694   0.698   5.696   5.332  1.2603 -1.1269 -0.4271
19401TIP3    H279695   0.667   5.656   5.189 -2.1743  1.5458 -0.5008
19402TIP3   OH279696   3.859   2.341  15.774 -0.4632  0.6891 -0.2278
19402TIP3    H179697   3.858   2.277  15.845 -0.7085  0.5501 -0.3549
19402TIP3    H279698   3.923   2.406  15.801  0.4801 -0.0958 -0.5312
19403TIP3   OH279699   2.807   5.688   4.971 -0.1060 -0.2761 -0.1143
19403TIP3    H179700   2.717   5.662   4.952 -0.3139  0.8660 -0.7280
19403TIP3    H279701   2.860   5.639   4.908 -0.3350 -0.6220 -0.0367
19404TIP3   OH279702   0.600   1.897  11.100  0.3491 -0.2231  0.0482
19404TIP3    H179703   0.539   1.872  11.169  1.0676 -2.3206 -0.0526
19404TIP3    H279704   0.545   1.903  11.021 -0.3587  1.5821  0.6422
19405TIP3   OH279705   3.174   3.000  11.564  0.0749 -0.0210  0.0720
19405TIP3    H179706   3.102   2.943  11.591 -0.4239  0.0814 -1.0193
19405TIP3    H279707   3.156   3.020  11.472  1.8350 -0.5155 -0.4052
19406TIP3   OH279708   3.785   4.552   3.304 -0.4008  0.1548  0.6736
19406TIP3    H179709   3.702   4.558   3.256 -0.5696 -0.0056  0.9472
19406TIP3    H279710   3.847   4.601   3.250 -0.9573  1.3448  1.0962
19407TIP3   OH279711   2.323   4.614  11.593 -0.8072  0.4392  0.4498
19407TIP3    H179712   2.366   4.568  11.522 -0.7546 -2.0275  1.9935
19407TIP3    H279713   2.392   4.662  11.638 -0.4541  0.1715  0.1847
19408TIP3   OH279714   4.560   0.407   4.857  0.3824  0.1091  0.5143
19408TIP3    H179715   4.592   0.486   4.814  1.9849 -0.7325  0.1484
19408TIP3    H279716   4.491   0.375   4.798  1.3022 -0.0277 -0.5086
19409TIP3   OH279717   5.680   5.870  14.047  0.1814 -0.1569 -0.7577
19409TIP3    H179718   5.752   5.859  13.985  0.8084  0.7944 -0.2094
19409TIP3    H279719   5.677   5.964  14.064  0.0140 -0.4035  0.6594
19410TIP3   OH279720   4.324   4.677   1.432  0.9176 -0.5425  0.0827
19410TIP3    H179721   4.366   4.639   1.355  0.6124  0.4328 -0.5747
19410TIP3    H279722   4.231   4.678   1.411  0.9493  0.8262 -0.0294
19411TIP3   OH279723   4.042   3.676  15.727  0.3279 -0.3397  0.6971
19411TIP3    H179724   3.986   3.753  15.725  1.6902  0.6515 -0.4308
19411TIP3    H279725   4.032   3.636  15.641  0.4779 -0.8007  0.8877
19412TIP3   OH279726   4.114   1.864   2.194  0.2618  0.4866  0.0288
19412TIP3    H179727   4.037   1.819   2.158  0.3060  0.7611 -0.4229
19412TIP3    H279728   4.083   1.906   2.274 -0.4206  1.8075 -0.9179
19413TIP3   OH279729   6.799   0.414  16.547  0.1948 -0.7030  0.0828
19413TIP3    H179730   6.816   0.334  16.596 -0.0471 -0.6267  0.2947
19413TIP3    H279731   6.824   0.394  16.457  1.1216 -0.6884  0.3364
19414TIP3   OH279732   5.612   6.203  11.504 -0.2434 -0.0564  0.3967
19414TIP3    H179733   5.561   6.124  11.483  0.1234  0.1472 -1.3621
19414TIP3    H279734   5.696   6.169  11.535 -0.8638 -0.3760  1.7435
19415TIP3   OH279735   4.117   4.252   4.246  0.2386  0.0416  0.0095
19415TIP3    H179736   4.140   4.214   4.330  0.4005  0.2703  0.0707
19415TIP3    H279737   4.103   4.177   4.188 -2.3507 -0.1824  0.8682
19416TIP3   OH279738   4.774   3.850   1.831  0.2063  0.1620  0.2161
19416TIP3    H179739   4.764   3.755   1.841 -1.2532  0.2921  0.1436
19416TIP3    H279740   4.684   3.882   1.817  0.6988  1.5382  0.1387
19417TIP3   OH279741   2.759   6.581  11.756  0.2990 -0.1515  0.4691
19417TIP3    H179742   2.728   6.657  11.805 -0.5464  0.2516 -0.6658
19417TIP3    H279743   2.732   6.506  11.810 -0.2989  0.2935  0.7993
19418TIP3   OH279744   6.040   4.611  14.468 -0.5936 -0.7971  0.2533
19418TIP3    H179745   5.979   4.542  14.442 -0.4789 -1.6040  2.0565
19418TIP3    H279746   6.077   4.581  14.551  0.3548  0.8851  0.4721
19419TIP3   OH279747   3.368   5.763  12.539  0.5517  0.1786 -0.4380
19419TIP3    H179748   3.408   5.680  12.567  1.6494  0.9618  0.3319
19419TIP3    H279749   3.404   5.778  12.451  0.6213  0.0171 -0.4377
19420TIP3   OH279750   1.280   4.559  16.499  0.0739  0.0287 -0.2067
19420TIP3    H179751   1.217   4.589  16.433  0.1099 -0.6145 -0.5364
19420TIP3    H279752   1.231   4.562  16.581  0.0110  0.7787 -0.2685
19421TIP3   OH279753   2.100   5.912   2.610  0.5042 -0.6827 -0.6605
19421TIP3    H179754   2.152   5.836   2.582  1.4864 -0.4227  0.4350
19421TIP3    H279755   2.134   5.984   2.556  1.4851 -0.4556  0.2473
19422TIP3   OH279756   1.550   5.875  11.962 -0.3441  0.1929  0.3707
19422TIP3    H179757   1.602   5.955  11.957 -1.2671  0.6787 -1.8801
19422TIP3    H279758   1.504   5.870  11.879 -1.7333 -1.7231  1.1988
19423TIP3   OH279759   0.871   3.330  13.506 -0.2856 -0.0223  0.0196
19423TIP3    H179760   0.818   3.302  13.431 -0.9845  0.5763  0.2900
19423TIP3    H279761   0.816   3.394  13.552  0.2309 -0.2212  0.9214
19424TIP3   OH279762   0.683   4.701  13.980  0.3366  0.3475  0.2891
19424TIP3    H179763   0.614   4.746  13.931  0.3960  1.0394  0.8320
19424TIP3    H279764   0.637   4.660  14.053  0.0648 -1.7153 -1.0111
19425TIP3   OH279765   4.294   2.763   0.494  0.2076 -0.0392  0.3402
19425TIP3    H179766   4.334   2.821   0.429  0.3917 -0.3944  0.1405
19425TIP3    H279767   4.363   2.703   0.520 -0.6241 -1.7590 -1.2630
19426TIP3   OH279768   0.071   3.873  14.945 -0.4394 -0.6837  0.0655
19426TIP3    H179769   0.085   3.915  14.860  1.1483  1.2280  1.2362
19426TIP3    H279770  -0.016   3.900  14.972 -0.1957  0.2540 -0.0924
19427TIP3   OH279771   4.741   6.529  14.435 -0.6483 -0.0367  0.1654
19427TIP3    H179772   4.688   6.569  14.504 -0.3055 -0.4814  0.6885
19427TIP3    H279773   4.806   6.596  14.414  0.4136 -0.5791  1.5902
19428TIP3   OH279774   3.949   3.094  13.061 -0.4013 -0.0592  0.0297
19428TIP3    H179775   4.008   3.110  12.987  0.3173 -0.1166  0.5829
19428TIP3    H279776   3.862   3.114  13.027 -0.0763 -0.0883 -0.8321
19429TIP3   OH279777   5.398   5.842   5.260 -0.0224  0.0458  1.1827
19429TIP3    H179778   5.435   5.761   5.293 -1.1645 -0.8465  0.3266
19429TIP3    H279779   5.436   5.911   5.315 -0.3950 -1.2168  3.0680
19430TIP3   OH279780   6.781   6.699  13.596  0.2362 -0.3572 -0.2674
19430TIP3    H179781   6.850   6.764  13.610  0.8516 -1.1719  0.5009
19430TIP3    H279782   6.815   6.642  13.527 -0.0747 -0.1801 -0.5654
19431TIP3   OH279783   2.993   0.386   5.608  0.2522  0.2878  0.3667
19431TIP3    H179784   3.059   0.321   5.631  0.7199  0.4439 -0.5448
19431TIP3    H279785   2.959   0.357   5.524  0.3694  1.1628  0.0186
19432TIP3   OH279786   0.335   0.521  16.110  0.1540 -1.1689 -0.4810
19432TIP3    H179787   0.385   0.574  16.173  0.6375 -2.4028  0.1865
19432TIP3    H279788   0.274   0.471  16.164 -0.8338 -0.7141 -1.1825
19433TIP3   OH279789   2.880   4.965   5.091 -0.5830  0.0734  0.1797
19433TIP3    H179790   2.958   4.997   5.137  0.2742  0.6848 -1.6431
19433TIP3    H279791   2.901   4.875   5.066 -1.4031 -0.5712  1.7318
19434TIP3   OH279792   5.528   1.403   3.749 -0.1145  0.5350 -0.1844
19434TIP3    H179793   5.570   1.465   3.808  1.3153 -0.9181  0.3866
19434TIP3    H279794   5.532   1.319   3.796  1.2250 -0.6944 -2.3862
19435TIP3   OH279795   4.488   3.095  12.761  0.2241 -0.1925  0.2295
19435TIP3    H179796   4.417   3.128  12.706  1.4402 -0.1507 -1.3515
19435TIP3    H279797   4.446   3.029  12.817 -0.8908 -0.8012 -1.2803
19436TIP3   OH279798   0.846   2.130   0.790  0.3424 -0.1562 -0.4636
19436TIP3    H179799   0.812   2.168   0.709 -1.5370  0.9693  0.8089
19436TIP3    H279800   0.934   2.167   0.799  1.3942 -1.8926 -3.0119
19437TIP3   OH279801   0.677   2.864  17.048  0.0146 -0.3870  0.3763
19437TIP3    H179802   0.707   2.773  17.044 -3.5237 -1.6663  0.7212
19437TIP3    H279803   0.619   2.866  17.125  0.2094  2.2293  0.4917
19438TIP3   OH279804   3.648   3.786  10.977 -0.1659  0.9938 -0.2650
19438TIP3    H179805   3.718   3.743  11.025 -0.6402 -2.4328 -2.4704
19438TIP3    H279806   3.573   3.785  11.037  0.7763  1.8384  0.9414
19439TIP3   OH279807   2.638   2.613   1.799  0.3693  0.1045 -0.2375
19439TIP3    H179808   2.593   2.564   1.729  0.5782  0.0318 -0.3199
19439TIP3    H279809   2.580   2.605   1.875 -0.7402  1.6807 -0.8891
19440TIP3   OH279810   0.914   5.152   4.498 -0.0855 -0.2957  0.5429
19440TIP3    H179811   0.896   5.167   4.405 -0.5275  0.4325  0.7443
19440TIP3    H279812   0.904   5.058   4.510  1.6267 -0.6452 -0.5107
19441TIP3   OH279813   3.384   0.232   4.611  0.4191  0.5654 -0.7013
19441TIP3    H179814   3.306   0.273   4.573 -0.9374  0.4196  1.8135
19441TIP3    H279815   3.396   0.277   4.695  2.4485 -0.1200 -0.6092
19442TIP3   OH279816   5.843   0.589  13.391  0.3093 -0.4720  0.4571
19442TIP3    H179817   5.765   0.581  13.336  1.5950 -1.3324 -1.3051
19442TIP3    H279818   5.860   0.683  13.395 -1.1710 -0.2184  1.4106
19443TIP3   OH279819   6.592   1.238   5.800 -0.1048  0.2759  0.0541
19443TIP3    H179820   6.522   1.293   5.834 -0.5889  1.5520 -2.7949
19443TIP3    H279821   6.672   1.276   5.835 -0.6158  1.1612  0.2744
19444TIP3   OH279822   2.284   6.668   3.746 -0.2935  0.4507  0.3954
19444TIP3    H179823   2.369   6.705   3.721 -0.7728  1.9252  0.9153
19444TIP3    H279824   2.236   6.742   3.782 -1.6832 -0.4598  0.4127
19445TIP3   OH279825   6.614   0.637   0.193 -0.3647  0.4637  0.1019
19445TIP3    H179826   6.522   0.628   0.218 -1.1910  0.9542 -2.5995
19445TIP3    H279827   6.629   0.731   0.188  0.4075  0.3911  0.8951
19446TIP3   OH279828   2.815   0.740   0.274  0.4872 -0.1521  0.2186
19446TIP3    H179829   2.819   0.783   0.188  1.4172 -1.3261 -0.3403
19446TIP3    H279830   2.850   0.805   0.335  0.6042  0.3864 -0.4193
19447TIP3   OH279831   6.302   6.419   4.674 -1.6449 -0.1668 -0.1102
19447TIP3    H179832   6.303   6.370   4.757 -0.4936  0.2606  0.1466
19447TIP3    H279833   6.388   6.402   4.636 -1.5766  0.9137 -0.4531
19448TIP3   OH279834   6.592   5.931   2.825 -0.3059  0.3761  0.5148
19448TIP3    H179835   6.674   5.882   2.822 -0.4061  0.2129  0.4541
19448TIP3    H279836   6.539   5.894   2.754 -0.9127 -0.3673  1.3506
19449TIP3   OH279837   6.534   1.303  13.837  0.2334  0.8972 -0.0829
19449TIP3    H179838   6.452   1.346  13.812  1.0629  1.9291 -1.0582
19449TIP3    H279839   6.507   1.238  13.902 -1.7528 -0.5786 -2.2740
19450TIP3   OH279840   4.034   6.354   2.607  0.4326  0.0516 -0.2439
19450TIP3    H179841   4.044   6.377   2.700  0.5884  2.6652 -0.8776
19450TIP3    H279842   4.010   6.261   2.608  0.5267  0.0194  2.4040
19451TIP3   OH279843   3.744   1.911   5.000  0.0945  0.0964  0.1031
19451TIP3    H179844   3.815   1.861   4.959 -0.1759 -0.3362  0.1689
19451TIP3    H279845   3.730   1.985   4.940  0.5950  0.1819  0.0853
19452TIP3   OH279846   1.928   0.176   0.697 -0.2456  0.3274 -0.4661
19452TIP3    H179847   1.990   0.247   0.718 -0.8845  0.5872  0.5477
19452TIP3    H279848   1.975   0.096   0.721 -0.0039  0.4753 -0.4368
19453TIP3   OH279849   2.030   6.763   2.226  0.1753 -0.8932 -0.5977
19453TIP3    H179850   2.058   6.676   2.254  4.0914  0.9231  1.5000
19453TIP3    H279851   2.095   6.788   2.160  0.5412  1.4170  0.6169
19454TIP3   OH279852   4.206   1.473  16.617 -0.2659 -0.2580  0.6555
19454TIP3    H179853   4.186   1.566  16.608 -0.4223 -0.3736 -0.2383
19454TIP3    H279854   4.159   1.431  16.544 -0.2540 -1.0426  1.0898
19455TIP3   OH279855   3.639   0.665  11.902 -0.2819  0.1687  0.8289
19455TIP3    H179856   3.716   0.722  11.895  0.6827 -0.9147  2.4130
19455TIP3    H279857   3.635   0.621  11.817 -0.1282  1.4390  0.1454
19456TIP3   OH279858   5.187   5.228  11.535  0.3620 -0.1940 -0.0679
19456TIP3    H179859   5.220   5.157  11.480 -0.0263  0.0405 -0.6019
19456TIP3    H279860   5.152   5.184  11.613 -0.2528 -0.6195 -0.5801
19457TIP3   OH279861   0.334   6.324  12.005 -0.6059 -0.0149  0.0072
19457TIP3    H179862   0.249   6.279  12.005  0.1602 -1.5434 -1.9055
19457TIP3    H279863   0.332   6.380  11.928  0.8409 -1.5532 -1.1982
19458TIP3   OH279864   5.327   1.197   3.595  0.0304 -0.7283  0.1977
19458TIP3    H179865   5.367   1.277   3.562  0.0202  0.2367  2.4990
19458TIP3    H279866   5.310   1.145   3.516  0.3392  1.3696 -1.2849
19459TIP3   OH279867   5.650   5.132   3.002 -0.4373 -0.2053 -0.2341
19459TIP3    H179868   5.659   5.118   3.097 -0.3924 -1.7720 -0.4547
19459TIP3    H279869   5.555   5.128   2.987 -0.7788  4.0255  0.2979
19460TIP3   OH279870   2.832   3.440   2.171 -0.1391  0.2011  0.1253
19460TIP3    H179871   2.926   3.457   2.165  0.3223 -2.3357 -0.2110
19460TIP3    H279872   2.798   3.517   2.217  1.9271  1.6532 -0.6734
19461TIP3   OH279873   1.063   4.995   0.723  0.0767 -0.1812 -0.1061
19461TIP3    H179874   1.008   5.030   0.654  2.0301 -0.8628 -2.0795
19461TIP3    H279875   1.064   5.063   0.791 -0.3498  1.3220 -1.5895
19462TIP3   OH279876   1.272   0.139   5.168  0.5662  0.3790 -0.2281
19462TIP3    H179877   1.251   0.073   5.102 -2.0014  1.2372 -0.3209
19462TIP3    H279878   1.308   0.212   5.119  2.4382 -0.5246 -0.2336
19463TIP3   OH279879   4.635   2.401  12.183 -0.4466 -0.1813 -0.1500
19463TIP3    H179880   4.725   2.428  12.163 -1.0441  1.6920 -0.5018
19463TIP3    H279881   4.621   2.323  12.130  0.7894 -0.1438 -0.5484
19464TIP3   OH279882   4.464   4.596   2.731 -0.4221 -0.7992  0.5637
19464TIP3    H179883   4.408   4.570   2.804 -0.5129 -0.0162  0.7725
19464TIP3    H279884   4.403   4.620   2.661 -0.3367 -1.4525  0.2566
19465TIP3   OH279885   4.078   5.722  15.433  0.3353 -0.4441 -0.7928
19465TIP3    H179886   4.140   5.792  15.413 -0.6097  0.4276 -0.7111
19465TIP3    H279887   3.993   5.766  15.440 -0.4145 -1.7315 -1.6285
19466TIP3   OH279888   4.019   2.471   1.127  0.2388  0.0644  0.2804
19466TIP3    H179889   3.949   2.438   1.184 -0.0629 -0.4252 -0.3664
19466TIP3    H279890   4.064   2.392   1.097 -0.1697  0.2612 -0.8713
19467TIP3   OH279891   5.667   4.996  14.564 -0.1903  0.9966 -0.8773
19467TIP3    H179892   5.693   4.938  14.493  1.5906 -0.9512  1.3092
19467TIP3    H279893   5.735   4.986  14.630 -1.6279  3.0183  0.9932
19468TIP3   OH279894   4.605   4.121  14.317 -0.2456  0.9451 -0.4034
19468TIP3    H179895   4.527   4.073  14.346 -0.1522  1.5104  0.8240
19468TIP3    H279896   4.658   4.055  14.272 -0.8729  0.2771 -0.1775
19469TIP3   OH279897   3.220   1.076  16.476 -0.0775  0.2245  0.5997
19469TIP3    H179898   3.153   1.144  16.473 -0.7771 -0.4556  0.4857
19469TIP3    H279899   3.170   0.994  16.483  0.7876 -0.1983  1.9136
19470TIP3   OH279900   5.816   3.162   1.486 -0.2666  0.2705 -1.1532
19470TIP3    H179901   5.731   3.164   1.442 -0.7832 -1.4953 -0.2967
19470TIP3    H279902   5.803   3.215   1.565 -0.5059  0.1747 -1.1271
19471TIP3   OH279903   0.592   2.322   3.943  0.2332 -0.1139 -0.4991
19471TIP3    H179904   0.530   2.252   3.922  0.7062 -0.7206  0.1427
19471TIP3    H279905   0.541   2.402   3.934 -0.8094 -0.6448  0.5990
19472TIP3   OH279906   1.865   2.786  11.885  0.2512 -0.1173  0.0164
19472TIP3    H179907   1.928   2.779  11.957 -1.3751  0.0764  1.5004
19472TIP3    H279908   1.781   2.802  11.928 -0.5281  1.4840 -1.9836
19473TIP3   OH279909   1.072   3.846  15.118  0.3613 -0.0151  0.2071
19473TIP3    H179910   1.004   3.863  15.053  0.1529  1.9951  0.9132
19473TIP3    H279911   1.107   3.760  15.095 -0.0046  0.4884 -2.2834
19474TIP3   OH279912   4.288   5.294  13.638  0.0302 -0.0614  0.0928
19474TIP3    H179913   4.332   5.243  13.705  0.5828  0.8713  0.4540
19474TIP3    H279914   4.358   5.343  13.595 -0.3140 -0.6495 -1.1780
19475TIP3   OH279915   0.237   2.759  13.479  0.4381  0.5226  0.2659
19475TIP3    H179916   0.231   2.843  13.524  0.7829 -0.3135  1.9119
19475TIP3    H279917   0.154   2.715  13.497  0.0649  0.6905 -0.9889
19476TIP3   OH279918   2.500   1.494   0.195 -0.3591  0.0924 -0.5726
19476TIP3    H179919   2.485   1.417   0.141 -1.5494  0.8473 -1.3433
19476TIP3    H279920   2.481   1.568   0.137  1.4487  0.9857 -0.0507
19477TIP3   OH279921   6.399   3.663  16.634  0.3361 -0.7785  0.3501
19477TIP3    H179922   6.395   3.568  16.631  1.6279 -0.8291 -0.3078
19477TIP3    H279923   6.425   3.689  16.546  1.2488  0.0914  0.8506
19478TIP3   OH279924   1.800   3.836  11.282 -0.0173 -0.8717 -0.0647
19478TIP3    H179925   1.876   3.891  11.298 -2.2340  2.0252  0.8532
19478TIP3    H279926   1.804   3.768  11.350 -0.1854  1.4103  2.2946
19479TIP3   OH279927   6.321   4.795  12.220 -0.2072 -0.0288 -0.1434
19479TIP3    H179928   6.392   4.772  12.160 -0.4665 -0.6597 -0.2152
19479TIP3    H279929   6.336   4.740  12.297 -0.1455  0.4365  0.1802
19480TIP3   OH279930   6.623   6.125  15.220  0.5233 -0.1067  1.0338
19480TIP3    H179931   6.610   6.090  15.308  0.5859 -0.9958  0.7041
19480TIP3    H279932   6.656   6.050  15.170 -0.8380  0.0156 -0.0758
19481TIP3   OH279933   5.284   1.358   0.328  0.5771  0.0498  0.3244
19481TIP3    H179934   5.202   1.387   0.287  1.5659  1.2962 -0.8044
19481TIP3    H279935   5.301   1.272   0.289 -0.6280 -0.6031  1.2063
19482TIP3   OH279936   0.605   1.815  13.069  0.0748 -0.2434 -0.4398
19482TIP3    H179937   0.528   1.859  13.104  0.4309  2.1031 -2.4565
19482TIP3    H279938   0.573   1.728  13.043 -0.9167 -0.8047  2.4847
19483TIP3   OH279939   3.284   4.499   0.709  0.3678  0.2690  1.0163
19483TIP3    H179940   3.371   4.460   0.724  0.7821  1.3736  1.5373
19483TIP3    H279941   3.223   4.437   0.750  0.9747 -0.0870  1.3947
19484TIP3   OH279942   6.101   6.486  10.684 -0.3202 -0.3128  0.2214
19484TIP3    H179943   6.085   6.392  10.699 -0.4244 -0.2203  0.6841
19484TIP3    H279944   6.081   6.527  10.768 -0.7210  0.1811 -0.1223
19485TIP3   OH279945   0.990   2.763  16.242  0.0683  0.4751  0.0918
19485TIP3    H179946   1.073   2.718  16.257 -0.3489 -0.2951  0.1424
19485TIP3    H279947   1.004   2.852  16.274  0.5391  0.0573  1.0479
19486TIP3   OH279948   1.509   6.497  11.898 -0.1337  0.6449  0.7800
19486TIP3    H179949   1.559   6.501  11.979 -0.9125 -0.9933  1.3583
19486TIP3    H279950   1.574   6.479  11.830  0.3373  0.6477  1.2294
19487TIP3   OH279951   5.394   5.740  16.680  0.4021  0.1534 -0.1245
19487TIP3    H179952   5.422   5.668  16.624  0.8742 -0.5013  0.9311
19487TIP3    H279953   5.334   5.791  16.626  0.5070 -0.7104 -1.0694
19488TIP3   OH279954   4.937   2.606  15.214 -0.3312  0.0551  0.3511
19488TIP3    H179955   4.939   2.517  15.250 -0.2837  0.6787  1.9266
19488TIP3    H279956   4.948   2.663  15.290 -2.0076  1.4680 -0.4177
19489TIP3   OH279957   4.776   3.723  16.739 -0.3058  0.4962  0.1399
19489TIP3    H179958   4.863   3.706  16.777  0.3691 -1.4588 -2.1065
19489TIP3    H279959   4.717   3.664  16.786  0.8323 -3.2501 -2.8757
19490TIP3   OH279960   6.688   5.480   2.888  0.0916  0.4064  0.4959
19490TIP3    H179961   6.639   5.455   2.967 -1.7262  3.3052  0.3771
19490TIP3    H279962   6.632   5.452   2.816  1.2630 -1.2849  0.2153
19491TIP3   OH279963   3.405   3.126  11.304  0.1471  0.8404 -0.1380
19491TIP3    H179964   3.385   3.134  11.211  0.3040  1.4175 -0.1213
19491TIP3    H279965   3.458   3.046  11.310 -2.9210 -1.2790 -0.0461
19492TIP3   OH279966   3.222   1.351   5.392 -0.5660  0.0445 -0.0445
19492TIP3    H179967   3.135   1.387   5.377 -0.9277  0.1497  2.1174
19492TIP3    H279968   3.212   1.297   5.470  0.9964 -1.1073 -0.6120
19493TIP3   OH279969   3.454   2.718   0.078 -0.3431  0.6508 -0.3893
19493TIP3    H179970   3.393   2.775   0.031 -1.4382  0.2436  0.5028
19493TIP3    H279971   3.505   2.675   0.009  0.3315  2.5099 -1.0803
19494TIP3   OH279972   1.478   0.959  15.459 -0.9986  0.9957  0.1194
19494TIP3    H179973   1.417   0.887  15.473  1.6909 -1.1417  1.4024
19494TIP3    H279974   1.512   0.979  15.546  2.9321 -0.4995 -0.9840
19495TIP3   OH279975   5.014   1.691  13.186  0.0586 -0.0117  0.3328
19495TIP3    H179976   5.102   1.679  13.223  0.1598  0.3101  0.1943
19495TIP3    H279977   5.024   1.762  13.124 -0.1548 -0.4368 -0.1880
19496TIP3   OH279978   4.727   2.216   2.713 -0.0511  0.2894  0.1386
19496TIP3    H179979   4.701   2.286   2.774  0.6404  2.4873 -2.0209
19496TIP3    H279980   4.757   2.262   2.635  1.3182 -2.4338 -0.9997
19497TIP3   OH279981   2.674   3.579  15.507  0.3903  0.1045 -0.1600
19497TIP3    H179982   2.579   3.583  15.491  0.2895  1.4300  0.6601
19497TIP3    H279983   2.683   3.518  15.580  0.0919  0.4898  0.2063
19498TIP3   OH279984   1.900   2.807  13.231 -0.2386  0.1240  0.0098
19498TIP3    H179985   1.843   2.774  13.162  1.0453 -0.4777 -0.7890
19498TIP3    H279986   1.848   2.873  13.276 -1.2436  0.2284 -1.2762
19499TIP3   OH279987   2.199   6.132  15.292 -0.3933  0.1613 -0.2791
19499TIP3    H179988   2.292   6.148  15.275 -0.2009 -0.6471  0.0008
19499TIP3    H279989   2.156   6.150  15.208  0.1186 -0.3299 -0.6507
19500TIP3   OH279990   5.078   2.132  15.042  0.2383  0.9092 -0.8145
19500TIP3    H179991   5.134   2.111  14.967  1.2243  2.4902 -0.5497
19500TIP3    H279992   5.006   2.184  15.005  0.5245  1.3691 -0.7341
19501TIP3   OH279993   2.739   1.371  15.187 -0.0082 -0.4446 -0.0865
19501TIP3    H179994   2.765   1.438  15.124 -1.0581 -0.0522 -0.1108
19501TIP3    H279995   2.808   1.305  15.182  1.1685  0.7544  0.1133
19502TIP3   OH279996   2.159   1.817  11.942  0.3674 -0.5440  0.2235
19502TIP3    H179997   2.222   1.874  11.985  1.1982 -1.6937  0.5298
19502TIP3    H279998   2.116   1.874  11.878  1.6654  0.2548  0.0411
19503TIP3   OH279999   4.288   6.070   6.125  0.2032  0.1434 -0.1707
19503TIP3    H180000   4.369   6.112   6.094 -0.5458  0.5823 -1.5819
19503TIP3    H280001   4.220   6.102   6.066 -0.3746 -3.1923 -1.4719
19504TIP3   OH280002   3.300   2.343  12.244 -0.2781 -0.9741 -0.4102
19504TIP3    H180003   3.321   2.413  12.306  2.9160 -2.5479  0.3249
19504TIP3    H280004   3.357   2.360  12.169 -0.0389 -2.3513 -0.5454
19505TIP3   OH280005   0.314   4.141   5.791  0.9481  0.1864  0.4469
19505TIP3    H180006   0.272   4.225   5.812  0.8699 -0.2000  1.8797
19505TIP3    H280007   0.352   4.155   5.704  0.0986  1.3907  0.2531
19506TIP3   OH280008   5.072   6.077   4.125  0.0539 -0.3717  0.2538
19506TIP3    H180009   5.156   6.030   4.129 -0.6989 -1.6991  0.9361
19506TIP3    H280010   5.050   6.079   4.032  1.0882  0.4292  0.0222
19507TIP3   OH280011   0.474   0.499   2.466  0.1881 -0.3958 -0.4044
19507TIP3    H180012   0.400   0.538   2.420  0.8609 -1.1256 -2.1327
19507TIP3    H280013   0.483   0.412   2.427  1.4615 -0.6167  0.3653
19508TIP3   OH280014   6.712   6.485  12.904  0.0172  0.0701 -0.1185
19508TIP3    H180015   6.806   6.487  12.887  0.2075  2.6738  1.0063
19508TIP3    H280016   6.704   6.456  12.995 -0.3162 -0.5258 -0.3280
19509TIP3   OH280017   6.057   1.702  15.361 -0.2012 -0.1525  0.0563
19509TIP3    H180018   6.054   1.712  15.457 -0.1381  1.1707 -0.0745
19509TIP3    H280019   6.070   1.790  15.328 -0.4327 -0.5778 -1.1989
19510TIP3   OH280020   1.489   5.229   0.056 -0.4072 -0.0905  0.4664
19510TIP3    H180021   1.524   5.309   0.018 -2.2791  0.5890  0.1052
19510TIP3    H280022   1.536   5.158   0.012 -1.7747  0.6984 -2.3814
19511TIP3   OH280023   2.410   5.889  14.485 -0.8040  0.1503 -0.1398
19511TIP3    H180024   2.357   5.883  14.405 -0.8355 -1.8734  0.0169
19511TIP3    H280025   2.351   5.861  14.555 -0.3029  0.3995  0.3846
19512TIP3   OH280026   3.253   5.234  10.417  0.0686 -0.4797 -0.6452
19512TIP3    H180027   3.278   5.203  10.504  1.1322 -0.0109 -0.7727
19512TIP3    H280028   3.191   5.305  10.433  1.7537  0.9200 -0.2016
19513TIP3   OH280029   2.110   1.336  16.825  0.6796  0.2699 -1.1454
19513TIP3    H180030   2.066   1.264  16.870  1.8141  0.1003 -0.2964
19513TIP3    H280031   2.186   1.295  16.783  1.3617  0.9891 -0.6109
19514TIP3   OH280032   3.150   2.750  12.387  0.4082  1.0461 -0.0049
19514TIP3    H180033   3.194   2.808  12.325  0.2789 -0.7363 -1.8151
19514TIP3    H280034   3.214   2.735  12.456  0.9611  2.1543 -0.2747
19515TIP3   OH280035   0.061   2.318  14.309  0.0769  0.0657 -0.2804
19515TIP3    H180036   0.079   2.225  14.316 -2.2598 -0.5552 -1.8432
19515TIP3    H280037  -0.000   2.336  14.380 -0.1030  0.2192 -0.4723
19516TIP3   OH280038   4.343   5.976   0.264 -0.2688 -1.2968  0.3842
19516TIP3    H180039   4.380   6.029   0.336 -0.2303 -0.2548 -0.3827
19516TIP3    H280040   4.249   5.979   0.279 -0.4197  0.6669 -0.7617
19517TIP3   OH280041   4.631   5.700   2.812  0.4170 -0.2027  0.5091
19517TIP3    H180042   4.569   5.770   2.831 -0.0012 -0.6391  0.7762
19517TIP3    H280043   4.717   5.743   2.813 -0.0345  0.8687 -2.2226
19518TIP3   OH280044   4.670   3.317   4.615  0.2295  0.1154  0.4245
19518TIP3    H180045   4.654   3.288   4.525 -1.6770 -0.4657  0.9360
19518TIP3    H280046   4.694   3.238   4.662  2.2688  0.5858  0.2219
19519TIP3   OH280047   3.078   4.683   3.569 -0.0852 -0.0407  0.5254
19519TIP3    H180048   3.080   4.625   3.493 -0.2221  0.5545  0.0697
19519TIP3    H280049   2.998   4.735   3.558 -0.4765 -0.4455  1.4378
19520TIP3   OH280050   4.298   3.022  14.062 -0.7143  0.1923 -0.4358
19520TIP3    H180051   4.244   3.091  14.024 -1.2756 -0.8614 -1.6013
19520TIP3    H280052   4.234   2.957  14.092 -0.1893  0.1198  0.5428
19521TIP3   OH280053   1.223   5.694   4.775  0.3897 -0.1342  0.0600
19521TIP3    H180054   1.313   5.678   4.803  0.1617  0.5123  1.2270
19521TIP3    H280055   1.177   5.719   4.856 -1.3287 -2.4999 -0.1429
19522TIP3   OH280056   4.861   3.321  13.799  0.5612 -0.1339  0.7681
19522TIP3    H180057   4.926   3.255  13.822  1.0027  0.3575  0.9405
19522TIP3    H280058   4.873   3.336  13.706 -0.1037 -0.9059  0.5519
19523TIP3   OH280059   3.812   5.651   1.431  0.2402  0.2272  0.3435
19523TIP3    H180060   3.741   5.636   1.369  1.0437 -0.3797 -0.4554
19523TIP3    H280061   3.858   5.567   1.434  1.4216  0.8598  0.1941
19524TIP3   OH280062   3.093   1.000  12.187 -0.1818  0.6820  0.1369
19524TIP3    H180063   3.094   1.002  12.283  0.3002 -2.2663  0.2386
19524TIP3    H280064   3.048   1.081  12.162 -1.4483  0.8859  2.8668
19525TIP3   OH280065   6.432   6.679  13.572  0.0929  0.1450  0.2085
19525TIP3    H180066   6.501   6.737  13.540 -0.3920 -0.0977 -1.2966
19525TIP3    H280067   6.351   6.718  13.540 -0.2343 -1.4473 -0.9666
19526TIP3   OH280068   4.958   4.205  15.229 -0.0083 -0.1108  0.3937
19526TIP3    H180069   5.019   4.230  15.160 -0.2544  1.9887  0.8967
19526TIP3    H280070   4.904   4.136  15.190  1.7368 -0.9901 -0.5247
19527TIP3   OH280071   3.336   1.036  11.525 -0.4351  0.3397  0.3120
19527TIP3    H180072   3.341   1.129  11.504 -1.1275  0.1063 -0.9266
19527TIP3    H280073   3.255   1.027  11.576  0.4019  0.6364  1.7454
19528TIP3   OH280074   0.064   3.990   4.936  0.0100 -0.2328 -0.1504
19528TIP3    H180075   0.037   3.907   4.895 -0.7205 -0.3962  0.6578
19528TIP3    H280076  -0.017   4.040   4.945  0.2058 -0.0912  0.8667
19529TIP3   OH280077   6.107   5.694   5.743 -0.6929  0.5644 -0.1912
19529TIP3    H180078   6.053   5.648   5.807 -1.5940  1.7227 -0.1145
19529TIP3    H280079   6.154   5.760   5.794 -0.1059  0.3546 -0.4522
19530TIP3   OH280080   2.415   0.372   5.087  0.5934 -0.1953  0.5566
19530TIP3    H180081   2.394   0.350   4.996 -0.3998  1.0408  0.4613
19530TIP3    H280082   2.329   0.387   5.128  1.0749  0.0820  1.4693
19531TIP3   OH280083   2.443   2.702  15.783  0.2966  0.1925 -0.4886
19531TIP3    H180084   2.533   2.690  15.753  0.6752  0.3225  0.5601
19531TIP3    H280085   2.451   2.757  15.861 -0.5859 -0.8451  0.3489
19532TIP3   OH280086   0.459   3.576   5.358 -0.9549  0.1987  0.6264
19532TIP3    H180087   0.450   3.670   5.373  1.2429  0.3790  0.9915
19532TIP3    H280088   0.484   3.568   5.266  2.1903  0.2230  1.4444
19533TIP3   OH280089   2.280   4.325   5.086  0.7791 -0.1696 -0.0331
19533TIP3    H180090   2.196   4.370   5.080  1.0250  0.4224  0.9357
19533TIP3    H280091   2.335   4.366   5.019  0.7890  0.5299  0.3966
19534TIP3   OH280092   6.716   5.950  12.951  0.0127 -0.0042  0.0934
19534TIP3    H180093   6.696   5.993  12.868 -1.2336 -0.2286  0.2615
19534TIP3    H280094   6.745   5.862  12.927  1.4304  0.5219 -0.1861
19535TIP3   OH280095   2.936   5.496   4.011  0.1138 -0.0890  0.1126
19535TIP3    H180096   2.947   5.443   3.933  2.2654 -0.9284  0.9533
19535TIP3    H280097   3.020   5.489   4.057 -1.5286 -0.6563  3.1422
19536TIP3   OH280098   4.759   1.872  16.751 -0.3625  0.0938 -0.2525
19536TIP3    H180099   4.682   1.830  16.790  1.1259 -3.1256 -0.5992
19536TIP3    H280100   4.822   1.880  16.823 -0.0400  0.2359 -0.5421
19537TIP3   OH280101   0.664   4.025  12.275 -0.0942  0.1863  0.1736
19537TIP3    H180102   0.752   4.032  12.313 -0.1334 -1.4721  0.5885
19537TIP3    H280103   0.679   4.030  12.180  0.6799 -2.2041  0.1440
19538TIP3   OH280104   6.595   1.246   3.602 -0.2994  0.1306 -0.1092
19538TIP3    H180105   6.565   1.184   3.536 -2.2600  1.2897 -0.3394
19538TIP3    H280106   6.591   1.197   3.684 -0.6698 -0.4286 -0.4559
19539TIP3   OH280107   6.124   6.322   1.638 -0.1146 -0.3306  0.6770
19539TIP3    H180108   6.085   6.353   1.556  1.9339  3.0492  0.9103
19539TIP3    H280109   6.083   6.374   1.706  0.2398 -1.1816  1.5596
19540TIP3   OH280110   0.146   3.041   2.759 -0.7903 -0.5169 -0.0899
19540TIP3    H180111   0.138   3.089   2.841 -1.0262 -0.1693 -0.3179
19540TIP3    H280112   0.169   3.107   2.694  1.2669 -1.0673  0.0344
19541TIP3   OH280113   5.688   5.578  16.619 -0.0955  0.3260 -0.2478
19541TIP3    H180114   5.664   5.520  16.692 -0.3034  1.6167  0.7288
19541TIP3    H280115   5.783   5.582  16.622 -0.0354 -0.5677 -0.7992
19542TIP3   OH280116   0.133   0.125  11.282 -0.5914  0.3617  0.1355
19542TIP3    H180117   0.104   0.054  11.225 -0.9203 -0.1380  0.9068
19542TIP3    H280118   0.221   0.100  11.309 -1.2039 -0.4374  1.4666
19543TIP3   OH280119   0.245   4.203  13.514 -0.1226  0.0650 -0.0568
19543TIP3    H180120   0.327   4.212  13.466 -1.3359 -0.8829 -2.3791
19543TIP3    H280121   0.249   4.116  13.554 -0.0589 -0.0325 -0.2789
19544TIP3   OH280122   0.834   4.507   4.190  0.0897 -0.1550  0.1989
19544TIP3    H180123   0.759   4.566   4.196  0.2622  0.2587 -1.5044
19544TIP3    H280124   0.910   4.564   4.193  0.2704 -0.3276 -0.9096
19545TIP3   OH280125   4.757   6.332   2.954 -0.0409 -0.1267  0.3584
19545TIP3    H180126   4.775   6.269   3.024  0.0216 -0.2947  0.1888
19545TIP3    H280127   4.823   6.314   2.887 -0.6053 -0.4964 -0.1004
19546TIP3   OH280128   2.760   3.278   4.816  0.6066 -0.7398 -0.3350
19546TIP3    H180129   2.756   3.335   4.740 -0.7657 -1.2941 -0.7097
19546TIP3    H280130   2.830   3.313   4.870  1.2664 -0.0562 -1.6310
19547TIP3   OH280131   0.479   6.323  11.727 -0.5361 -0.6807 -0.2399
19547TIP3    H180132   0.560   6.304  11.774 -0.2313 -0.7913 -0.8002
19547TIP3    H280133   0.464   6.245  11.672 -0.1877 -0.0159 -1.2950
19548TIP3   OH280134   6.739   0.106  16.393 -0.2728 -0.0392 -0.2006
19548TIP3    H180135   6.751   0.133  16.302 -1.7151  2.2262  0.2423
19548TIP3    H280136   6.644   0.105  16.406 -0.1223 -1.4417  0.9771
19549TIP3   OH280137   0.291   0.044   6.362  0.3189 -0.4209  0.7693
19549TIP3    H180138   0.226   0.006   6.302 -0.5544 -2.9505  3.2081
19549TIP3    H280139   0.316   0.127   6.320 -2.3111 -0.7568 -1.6794
19550TIP3   OH280140   3.711   0.284  11.960 -0.1824  0.2719 -0.2439
19550TIP3    H180141   3.778   0.348  11.982 -1.5750  1.8249 -0.4197
19550TIP3    H280142   3.687   0.245  12.044 -0.6075  1.2874  0.1159
19551TIP3   OH280143   1.512   1.248   4.694 -0.3671  0.4322  0.1937
19551TIP3    H180144   1.607   1.255   4.684 -0.0114 -1.3884  1.9379
19551TIP3    H280145   1.479   1.243   4.604  1.1717  1.2222 -0.4422
19552TIP3   OH280146   2.303   3.697  13.551 -1.2443 -0.0106  0.3158
19552TIP3    H180147   2.291   3.616  13.502  1.3494 -0.2822  0.0363
19552TIP3    H280148   2.239   3.758  13.514 -1.1600 -1.0237 -1.5607
19553TIP3   OH280149   0.346   2.996   3.062  0.9437  0.4844 -0.1104
19553TIP3    H180150   0.334   2.945   3.142  1.1616  0.6780  0.0452
19553TIP3    H280151   0.260   3.034   3.044  0.7157 -0.1463 -0.3677
19554TIP3   OH280152   3.682   0.271  10.920 -0.0035  0.0380 -0.0302
19554TIP3    H180153   3.726   0.209  10.978 -0.1773 -1.2151 -1.2008
19554TIP3    H280154   3.733   0.268  10.839 -0.1555  1.2640 -0.1738
19555TIP3   OH280155   2.053   4.697   0.517 -0.0453 -0.0322 -0.0246
19555TIP3    H180156   2.040   4.633   0.586  0.8014  0.4986  0.6363
19555TIP3    H280157   2.058   4.645   0.436 -1.8392 -0.5869  0.1959
19556TIP3   OH280158   0.121   4.513  15.180 -0.4991  0.9792  0.2712
19556TIP3    H180159   0.029   4.509  15.207 -0.2832  1.0972  1.0494
19556TIP3    H280160   0.158   4.432  15.215 -0.1137  1.3455  0.7197
19557TIP3   OH280161   2.004   4.697  15.692 -0.3770 -0.0052  0.5253
19557TIP3    H180162   2.000   4.645  15.773 -0.4222  0.9172  1.1248
19557TIP3    H280163   2.010   4.788  15.723 -1.3645  0.4181 -0.5145
19558TIP3   OH280164   5.161   4.394  14.520 -0.0832 -0.0905  0.5798
19558TIP3    H180165   5.084   4.337  14.509 -1.1581  1.3489  0.4863
19558TIP3    H280166   5.236   4.337  14.502 -1.2233 -1.0456 -1.2974
19559TIP3   OH280167   1.262   1.084   4.733  0.1795  0.1920 -0.1585
19559TIP3    H180168   1.330   1.049   4.792  0.1430 -0.5834 -0.5661
19559TIP3    H280169   1.275   1.178   4.735 -1.2371  0.3691  2.8274
19560TIP3   OH280170   3.767   1.582   2.370 -0.2856  0.5605  0.2189
19560TIP3    H180171   3.852   1.541   2.353  0.0334  0.8270  1.1205
19560TIP3    H280172   3.710   1.551   2.300 -0.0506 -1.4222  0.8735
19561TIP3   OH280173   5.154   2.955   0.169 -0.3966 -0.3319  0.0967
19561TIP3    H180174   5.073   2.992   0.203 -0.1816  1.8358 -1.6315
19561TIP3    H280175   5.184   3.018   0.103 -0.0788 -3.6466 -3.1010
19562TIP3   OH280176   4.930   6.378   0.199  0.0892 -0.4372  0.6051
19562TIP3    H180177   4.976   6.398   0.281  1.7679  1.6102 -0.7625
19562TIP3    H280178   4.889   6.461   0.174 -1.7705 -1.4579  0.1921
19563TIP3   OH280179   0.935   4.508  16.487 -0.0897  0.0698 -0.1137
19563TIP3    H180180   0.866   4.542  16.430 -0.1392 -1.0287 -0.7162
19563TIP3    H280181   1.013   4.503  16.431 -0.0079 -0.5293  0.0520
19564TIP3   OH280182   3.116   0.194  14.720 -0.5616  0.4481  0.1688
19564TIP3    H180183   3.170   0.171  14.796  0.3407 -1.6569 -1.0756
19564TIP3    H280184   3.149   0.279  14.693  2.1709 -0.7791 -0.5459
19565TIP3   OH280185   0.096   2.459  17.041 -0.1938 -0.2826  0.1432
19565TIP3    H180186   0.072   2.537  17.091 -1.8067 -1.5507  1.4372
19565TIP3    H280187   0.065   2.477  16.952 -2.1916 -0.1489  0.8377
19566TIP3   OH280188   5.814   4.651   1.173  0.0061  0.0663 -0.1347
19566TIP3    H180189   5.752   4.590   1.214  1.1677  0.3025  2.0104
19566TIP3    H280190   5.800   4.734   1.218  1.6322  0.2067  0.1504
19567TIP3   OH280191   3.143   2.075   4.338  0.2860 -0.2372 -0.2695
19567TIP3    H180192   3.051   2.099   4.344  0.5723  0.6868  0.7213
19567TIP3    H280193   3.145   1.997   4.283 -0.8394  1.1227 -2.2818
19568TIP3   OH280194   4.233   6.462   5.664  0.1270  0.5371  0.1546
19568TIP3    H180195   4.246   6.457   5.759  1.0995  1.9968  0.1147
19568TIP3    H280196   4.150   6.508   5.654  0.6618  1.5668  0.3080
19569TIP3   OH280197   6.763   6.546  13.283  0.4740  0.5309  0.0291
19569TIP3    H180198   6.735   6.477  13.224  0.2252 -0.3077  1.1293
19569TIP3    H280199   6.695   6.613  13.276  0.5290  0.5090 -0.7529
19570TIP3   OH280200   2.990   3.447   6.033 -0.3386  0.2669  0.2624
19570TIP3    H180201   2.906   3.453   5.987 -1.1174  0.4741  1.6734
19570TIP3    H280202   2.966   3.441   6.125  1.1890 -0.4212  0.6253
19571TIP3   OH280203   4.006   3.930  13.708 -0.7888  0.1288 -0.1361
19571TIP3    H180204   4.027   3.938  13.615  3.1666 -0.2015  0.6011
19571TIP3    H280205   3.996   3.836  13.723  1.2227 -0.0697  0.1917
19572TIP3   OH280206   1.062   0.506  16.776  0.0446 -0.0385  0.3276
19572TIP3    H180207   1.035   0.420  16.745  0.6733  0.0266 -0.4074
19572TIP3    H280208   1.017   0.567  16.718  0.3544  0.1072  0.2402
19573TIP3   OH280209   2.124   2.710  16.885 -0.2978  0.3906 -0.3047
19573TIP3    H180210   2.172   2.647  16.939  1.2951  0.9642 -1.0142
19573TIP3    H280211   2.036   2.711  16.921  0.5387  0.1854  1.7847
19574TIP3   OH280212   0.558   3.959  12.766 -0.2629  0.5822 -0.0426
19574TIP3    H180213   0.587   4.050  12.773  1.0848  0.3101 -1.7368
19574TIP3    H280214   0.543   3.946  12.673  1.1869 -1.4200 -0.0206
19575TIP3   OH280215   0.033   6.614   4.553 -0.4115  0.2909 -0.3476
19575TIP3    H180216   0.070   6.678   4.492 -2.2473  0.1931 -1.6135
19575TIP3    H280217  -0.016   6.553   4.497 -0.3305 -1.0794  1.0300
19576TIP3   OH280218   5.443   2.160  16.876 -0.3306 -0.2737 -0.2809
19576TIP3    H180219   5.493   2.104  16.936 -1.1688 -0.6495  0.0800
19576TIP3    H280220   5.384   2.209  16.934 -2.0726 -1.6018 -0.9110
19577TIP3   OH280221   4.317   2.946  15.713 -0.1107 -0.1102 -0.1294
19577TIP3    H180222   4.396   2.892  15.719 -0.2216 -0.3840 -1.0004
19577TIP3    H280223   4.269   2.928  15.794 -0.6704 -2.1675 -0.8756
19578TIP3   OH280224   5.155   1.837   6.000  0.0677  0.2781  0.2577
19578TIP3    H180225   5.134   1.750   6.033 -0.5598  0.9300  1.6845
19578TIP3    H280226   5.250   1.845   6.009 -0.0558  0.3092  1.6271
19579TIP3   OH280227   5.168   6.366  13.426  0.4585 -0.0077  0.4598
19579TIP3    H180228   5.208   6.381  13.512  0.0387 -0.1667  0.6837
19579TIP3    H280229   5.094   6.426  13.423  0.8869  0.4988 -0.0735
19580TIP3   OH280230   0.701   1.448  15.945 -0.4061 -0.2506 -0.1546
19580TIP3    H180231   0.647   1.370  15.933 -0.8225 -0.3639  2.1556
19580TIP3    H280232   0.777   1.435  15.888 -1.5438 -1.3110 -1.4349
19581TIP3   OH280233   3.514   6.509  13.950 -0.3962  1.0755 -0.0697
19581TIP3    H180234   3.506   6.427  13.999 -1.4762  0.9741 -0.4022
19581TIP3    H280235   3.535   6.574  14.017 -1.1829  0.8189  0.4399
19582TIP3   OH280236   3.631   2.777  14.172 -0.5989  0.0683 -0.2518
19582TIP3    H180237   3.608   2.686  14.192 -1.2965  0.7669  2.2656
19582TIP3    H280238   3.727   2.780  14.182 -0.4486 -0.6160 -1.3854
19583TIP3   OH280239   6.225   5.819   4.494  0.3907 -0.1919  0.0000
19583TIP3    H180240   6.177   5.812   4.411  0.3973 -0.1034 -0.0118
19583TIP3    H280241   6.162   5.791   4.560  0.9411 -1.9423 -0.2009
19584TIP3   OH280242   4.027   5.536  15.983 -0.6550 -0.5213 -0.4811
19584TIP3    H180243   3.981   5.535  15.899 -0.1984  1.2078 -0.7763
19584TIP3    H280244   4.089   5.608  15.976 -1.4469  0.4536  1.7752
19585TIP3   OH280245   2.036   0.612   5.313 -0.0514  0.1534 -0.1647
19585TIP3    H180246   1.941   0.617   5.302  0.1108  1.5389 -1.2049
19585TIP3    H280247   2.054   0.665   5.391 -0.1774 -0.5805  0.3685
19586TIP3   OH280248   3.772   6.265   1.542 -0.0470  0.1013 -0.4897
19586TIP3    H180249   3.842   6.325   1.514 -0.4299  1.0309  0.4683
19586TIP3    H280250   3.770   6.197   1.475  0.5861  1.0204 -1.4648
19587TIP3   OH280251   4.051   3.246   1.474  0.2490  0.0366  0.6323
19587TIP3    H180252   3.996   3.235   1.552 -1.1736  2.2120 -0.0342
19587TIP3    H280253   4.138   3.263   1.510  0.0506 -1.1237  1.7186
19588TIP3   OH280254   5.398   3.471   2.711  0.0208  0.5721 -0.1708
19588TIP3    H180255   5.324   3.452   2.770 -0.2487 -1.0160 -0.9955
19588TIP3    H280256   5.357   3.481   2.625  0.6671  0.6222 -0.4698
19589TIP3   OH280257   5.901   0.162   0.210 -0.0288 -0.5154 -0.5076
19589TIP3    H180258   5.995   0.173   0.225 -0.3804  1.4322  0.4229
19589TIP3    H280259   5.874   0.094   0.273  0.3977  0.3464  0.6171
19590TIP3   OH280260   0.875   1.755  13.162  0.0301  0.1985 -0.6560
19590TIP3    H180261   0.780   1.755  13.151  0.2252 -0.6461 -2.5671
19590TIP3    H280262   0.908   1.786  13.077  1.4991 -0.7326 -0.4291
19591TIP3   OH280263   2.486   5.090   0.127  0.2096  0.7157 -0.0485
19591TIP3    H180264   2.508   5.156   0.193 -1.5352  1.4422 -0.1908
19591TIP3    H280265   2.393   5.101   0.112 -0.3374 -2.4876  0.6886
19592TIP3   OH280266   0.520   2.716   5.120  0.0701 -0.0382 -0.2106
19592TIP3    H180267   0.591   2.660   5.089 -1.0738 -0.3595 -2.3546
19592TIP3    H280268   0.453   2.655   5.152  0.5642  0.2514  1.4256
19593TIP3   OH280269   3.703   2.358   0.444 -0.3845 -0.2015  0.8318
19593TIP3    H180270   3.743   2.385   0.527 -1.3258  1.0520  0.8893
19593TIP3    H280271   3.647   2.431   0.419 -1.2446 -1.1825 -0.1737
19594TIP3   OH280272   2.803   4.942  17.221 -0.1530  0.4294  0.1670
19594TIP3    H180273   2.794   4.950  17.316  0.8787 -0.7636  0.3864
19594TIP3    H280274   2.716   4.920  17.190  0.0006 -1.8194  1.1678
19595TIP3   OH280275   0.907   4.732   0.603 -0.0184  0.0753 -0.1967
19595TIP3    H180276   0.861   4.814   0.618 -0.2241  0.1458 -1.2308
19595TIP3    H280277   0.876   4.701   0.518 -0.0052 -1.1195  0.2203
19596TIP3   OH280278   4.142   2.538   5.766  0.3911 -0.5751 -0.4132
19596TIP3    H180279   4.182   2.487   5.836 -1.1723 -1.7995 -0.3690
19596TIP3    H280280   4.203   2.529   5.692  2.2899  1.1334  0.8918
19597TIP3   OH280281   0.414   4.419   1.338 -0.2836  0.5378 -0.1083
19597TIP3    H180282   0.409   4.338   1.287  0.6456  0.2010  0.3251
19597TIP3    H280283   0.403   4.488   1.273 -3.0067  0.0543 -0.2216
19598TIP3   OH280284   4.257   0.229  11.596 -0.5732  0.1221 -0.4502
19598TIP3    H180285   4.190   0.261  11.658  0.5347  0.5225  0.5617
19598TIP3    H280286   4.269   0.301  11.534 -2.3066 -0.6047 -1.6731
19599TIP3   OH280287   2.745   1.282   4.225 -0.3854  0.1771 -0.0165
19599TIP3    H180288   2.737   1.334   4.306  1.7751 -1.0679  1.0306
19599TIP3    H280289   2.837   1.291   4.200 -0.5677 -1.1537 -1.1887
19600TIP3   OH280290   0.480   1.896   0.997 -0.3130 -0.3919  0.1443
19600TIP3    H180291   0.465   1.808   1.031  0.6403 -0.4534  0.4255
19600TIP3    H280292   0.393   1.928   0.975 -0.8416 -0.7028  1.7503
19601TIP3   OH280293   0.222   6.543  13.350  0.3279 -0.3990 -1.1938
19601TIP3    H180294   0.212   6.634  13.378  2.5088 -0.4253 -0.2396
19601TIP3    H280295   0.140   6.523  13.304 -0.5186  1.7711 -0.6955
19602TIP3   OH280296   1.938   4.892  15.957 -0.1225 -0.1421  0.6075
19602TIP3    H180297   1.973   4.843  16.031 -0.6132  0.9681  1.5845
19602TIP3    H280298   1.844   4.899  15.976  0.0408  1.7034  0.7807
19603TIP3   OH280299   4.655   0.795  14.994  0.0861 -0.4862  0.0153
19603TIP3    H180300   4.584   0.733  14.983 -0.5653  0.2698 -0.0863
19603TIP3    H280301   4.623   0.857  15.060 -0.2429  1.1434 -1.6325
19604TIP3   OH280302   4.583   1.453   3.843  0.3670 -0.1919 -0.1674
19604TIP3    H180303   4.528   1.388   3.885 -2.9936  3.3380  1.2569
19604TIP3    H280304   4.573   1.437   3.749 -2.4617 -0.1957  0.1070
19605TIP3   OH280305   3.414   0.143  12.247  0.5210  0.2022 -0.6140
19605TIP3    H180306   3.402   0.238  12.253  2.6216  0.5017 -0.8009
19605TIP3    H280307   3.466   0.121  12.325  0.2603 -0.7633 -0.7099
19606TIP3   OH280308   2.136   1.331   2.976  0.1354 -0.0769  0.0924
19606TIP3    H180309   2.153   1.411   2.926  0.0913  0.9104  1.6228
19606TIP3    H280310   2.042   1.319   2.970 -0.0586  0.8840  1.1985
19607TIP3   OH280311   6.184   6.313  11.274  0.2640 -0.1943  1.1062
19607TIP3    H180312   6.208   6.221  11.288  2.4106  0.1883  0.1110
19607TIP3    H280313   6.138   6.338  11.354  1.5568 -1.5135  2.3066
19608TIP3   OH280314   5.537   0.750  15.708 -0.4572 -0.2178  0.2515
19608TIP3    H180315   5.541   0.765  15.803  1.0008  0.7831  0.0530
19608TIP3    H280316   5.447   0.774  15.684 -0.4675  0.7551  1.1995
19609TIP3   OH280317   5.827   1.030   0.148  0.1788  0.3528  0.3203
19609TIP3    H180318   5.896   0.980   0.191  0.1785 -1.7273 -1.9942
19609TIP3    H280319   5.872   1.086   0.085 -0.1862 -1.1195 -1.3037
19610TIP3   OH280320   5.335   1.601  11.760  0.7091  0.1731  0.0610
19610TIP3    H180321   5.306   1.601  11.851 -0.3908 -1.0103 -0.2597
19610TIP3    H280322   5.360   1.691  11.742 -1.5925  0.9943  0.7636
19611TIP3   OH280323   0.226   2.571  12.870 -0.2354 -0.1650 -0.7561
19611TIP3    H180324   0.285   2.558  12.795 -1.1832 -0.8584 -1.4065
19611TIP3    H280325   0.258   2.651  12.912  0.7108 -0.1205 -1.5239
19612TIP3   OH280326   6.448   0.920  11.048  0.6299 -0.2833 -0.2692
19612TIP3    H180327   6.455   0.846  10.989  0.4279  0.5754 -1.3863
19612TIP3    H280328   6.521   0.977  11.024  0.3907  0.1989  0.1300
19613TIP3   OH280329   4.231   5.584  11.357  0.4141  0.2511 -0.9581
19613TIP3    H180330   4.165   5.612  11.295 -0.1765 -1.3331 -1.0717
19613TIP3    H280331   4.308   5.565  11.303  0.1735 -0.2972 -1.1096
19614TIP3   OH280332   2.534   2.078  15.212 -0.0701 -0.1199 -0.7060
19614TIP3    H180333   2.468   2.066  15.280  1.9157 -1.8648  0.9934
19614TIP3    H280334   2.499   2.148  15.157 -1.8342  1.2062  1.9829
19615TIP3   OH280335   2.592   0.450  16.533 -0.1907 -0.4643 -0.2800
19615TIP3    H180336   2.605   0.541  16.507 -1.2362  0.3990  2.0671
19615TIP3    H280337   2.536   0.413  16.465  2.0257  0.0081 -2.4158
19616TIP3   OH280338   6.410   4.305  15.185  0.4396 -0.2998 -0.6540
19616TIP3    H180339   6.432   4.213  15.200  1.1207 -0.0914 -0.3336
19616TIP3    H280340   6.394   4.312  15.091 -0.9330 -1.0204 -0.4846
19617TIP3   OH280341   3.111   2.793  15.982  0.6780  0.3878  0.9028
19617TIP3    H180342   3.197   2.823  15.954  0.2705 -0.0482 -0.8832
19617TIP3    H280343   3.050   2.828  15.916 -0.0493 -2.4773 -0.0171
19618TIP3   OH280344   1.433   4.911   1.631  0.0074 -0.0516 -0.3180
19618TIP3    H180345   1.488   4.890   1.555 -0.6822 -2.0492 -0.2772
19618TIP3    H280346   1.496   4.940   1.698  0.4667  3.5644 -2.2027
19619TIP3   OH280347   6.104   5.512  11.966  0.2550 -0.4810 -0.6869
19619TIP3    H180348   6.143   5.491  11.881  0.8642 -0.4606 -0.4133
19619TIP3    H280349   6.069   5.429  11.998  0.6003 -0.6158 -0.6626
19620TIP3   OH280350   2.905   3.687   5.279  0.8316 -0.2744  0.0399
19620TIP3    H180351   2.849   3.661   5.206  0.5621 -0.2239  0.2265
19620TIP3    H280352   2.912   3.609   5.333 -0.3175  0.1435  0.8180
19621TIP3   OH280353   1.819   4.983  12.512  0.5403 -0.2790  0.0227
19621TIP3    H180354   1.902   5.003  12.470  0.8770 -1.5761  0.0399
19621TIP3    H280355   1.829   5.015  12.602  0.8358  0.0012 -0.1076
19622TIP3   OH280356   0.039   4.574   0.469  0.3340 -0.9669 -0.1247
19622TIP3    H180357  -0.018   4.604   0.398 -2.5756 -1.4986  1.8712
19622TIP3    H280358   0.092   4.650   0.492 -0.6511  0.0152 -1.0558
19623TIP3   OH280359   0.704   4.328  13.792  0.7958  0.0419 -0.0331
19623TIP3    H180360   0.726   4.307  13.701  0.6855  0.7059 -0.2177
19623TIP3    H280361   0.769   4.393  13.818  1.9400 -1.4711  0.9650
19624TIP3   OH280362   0.728   0.474  16.212 -0.2325  0.6289  0.2152
19624TIP3    H180363   0.642   0.457  16.251 -0.4665  1.1366 -0.0736
19624TIP3    H280364   0.772   0.533  16.273 -0.2502  0.6986  0.1625
19625TIP3   OH280365   6.004   5.635   5.996 -0.6654 -0.2027  0.3226
19625TIP3    H180366   6.068   5.596   6.055  0.3562  0.6744 -0.1723
19625TIP3    H280367   5.922   5.638   6.046 -0.2082 -0.9215  1.1215
19626TIP3   OH280368   5.852   4.664  15.856 -0.4862 -0.8595  0.1180
19626TIP3    H180369   5.760   4.648  15.876 -0.4702 -1.9119 -0.5630
19626TIP3    H280370   5.898   4.591  15.898 -0.2560 -1.9353 -1.9384
19627TIP3   OH280371   2.644   4.246   6.630  0.2048 -0.4830  0.0146
19627TIP3    H180372   2.564   4.290   6.659 -0.0814 -1.4206  0.6823
19627TIP3    H280373   2.706   4.317   6.614 -0.8513  0.2636 -0.7967
19628TIP3   OH280374   5.229   0.646  17.158  0.0598 -0.2421 -0.1168
19628TIP3    H180375   5.158   0.673  17.216  1.0607 -0.6268  1.3038
19628TIP3    H280376   5.309   0.675  17.202  0.9807 -2.7697 -0.0516
19629TIP3   OH280377   2.540   4.951   3.511  0.0493 -0.7865 -0.1471
19629TIP3    H180378   2.489   4.959   3.592  0.5887 -1.1655  0.2373
19629TIP3    H280379   2.491   5.001   3.446 -0.0147  0.1151  0.5928
19630TIP3   OH280380   4.075   2.226  12.949 -0.0748  0.1675  0.1573
19630TIP3    H180381   3.995   2.279  12.953  0.3167  0.9822 -2.2991
19630TIP3    H280382   4.146   2.290  12.945  0.5453 -0.5483 -0.4248
19631TIP3   OH280383   3.624   5.914   3.851 -0.1557  0.4962  0.5026
19631TIP3    H180384   3.618   5.897   3.945 -0.4642  0.2371  0.4376
19631TIP3    H280385   3.669   5.998   3.844 -1.2125  1.1065  0.9222
19632TIP3   OH280386   0.779   1.311   4.195  0.1503 -0.0557  0.6832
19632TIP3    H180387   0.785   1.227   4.240 -1.9030  0.6813  2.4387
19632TIP3    H280388   0.722   1.364   4.251 -1.3841  1.3682 -2.1356
19633TIP3   OH280389   6.017   0.110   1.823 -0.2688  0.1880  0.1644
19633TIP3    H180390   6.028   0.023   1.783  0.5409  0.7133 -0.7728
19633TIP3    H280391   5.948   0.152   1.770  1.2277  1.1103 -1.1057
19634TIP3   OH280392   3.974   5.198   0.028  0.3761 -0.2628  0.7210
19634TIP3    H180393   4.044   5.231  -0.029 -0.1966 -3.7393 -2.1459
19634TIP3    H280394   3.895   5.242  -0.004  0.1207 -1.9080 -1.0259
19635TIP3   OH280395   2.804   6.737  12.352  0.4120  0.2641  0.0505
19635TIP3    H180396   2.741   6.788  12.403 -2.6932 -0.6441 -2.7003
19635TIP3    H280397   2.862   6.803  12.313 -1.9435  1.5919 -1.3537
19636TIP3   OH280398   2.810   0.574  13.912 -0.0827 -0.1825  0.1315
19636TIP3    H180399   2.904   0.590  13.923 -0.2830 -0.0288  1.7825
19636TIP3    H280400   2.779   0.552  14.000 -1.8731  1.2446 -0.1165
19637TIP3   OH280401   2.543   2.031  11.697 -0.2031  0.5910  0.4462
19637TIP3    H180402   2.632   2.064  11.712  1.0409 -2.9150  1.5590
19637TIP3    H280403   2.527   2.046  11.604  1.8981  0.5798  0.0402
19638TIP3   OH280404   5.154   6.450   5.145 -0.3496  0.7287 -0.2259
19638TIP3    H180405   5.072   6.423   5.187 -0.7140  1.9046 -0.1891
19638TIP3    H280406   5.217   6.381   5.169 -1.2720 -0.0853 -0.1115
19639TIP3   OH280407   6.202   1.948   0.809 -0.1601  0.5292 -0.3197
19639TIP3    H180408   6.107   1.955   0.807 -0.2835 -0.1859  1.9507
19639TIP3    H280409   6.221   1.890   0.883  2.1280  2.1511  0.4380
19640TIP3   OH280410   3.025   1.058   0.726 -0.4212  0.0279  0.0796
19640TIP3    H180411   2.980   1.015   0.799  0.3964  0.4898  0.8667
19640TIP3    H280412   2.999   1.008   0.649 -2.0323  0.0903  0.5618
19641TIP3   OH280413   2.778   0.114  13.717 -0.2866 -0.1040 -0.1574
19641TIP3    H180414   2.835   0.149  13.786  0.0416  1.4045 -1.1647
19641TIP3    H280415   2.698   0.088  13.762  0.6800 -0.9581  1.0829
19642TIP3   OH280416   2.918   2.679  15.545 -0.2232  0.0592 -0.3375
19642TIP3    H180417   2.845   2.731  15.511  0.2459  2.5064  2.1381
19642TIP3    H280418   2.993   2.707  15.493 -0.3562  0.3852 -0.3565
19643TIP3   OH280419   1.521   2.050  15.104  0.0154 -0.0108  0.2218
19643TIP3    H180420   1.504   2.047  15.198  0.0676  2.1883  0.3249
19643TIP3    H280421   1.608   2.088  15.096 -0.0947  0.0542 -0.7404
19644TIP3   OH280422   3.300   5.804  15.460 -0.0634  0.3533 -0.0826
19644TIP3    H180423   3.281   5.714  15.434 -0.4501  0.0364  1.2441
19644TIP3    H280424   3.250   5.858  15.399 -0.7932 -0.3532 -0.1148
19645TIP3   OH280425   0.522   3.965   3.744 -0.2508  0.0254  0.0194
19645TIP3    H180426   0.570   4.045   3.761  0.5172 -0.2847 -0.6482
19645TIP3    H280427   0.559   3.901   3.805  1.3186 -0.6353 -1.5885
19646TIP3   OH280428   3.089   4.634  10.850  0.3920  0.0143 -0.5846
19646TIP3    H180429   3.119   4.707  10.906  1.3432 -1.3709  0.7590
19646TIP3    H280430   3.167   4.610  10.800 -0.3839  1.0503 -2.3265
19647TIP3   OH280431   0.031   1.440   1.050 -0.0744  0.1636 -0.3763
19647TIP3    H180432  -0.060   1.414   1.042  0.2377 -1.1157  0.0705
19647TIP3    H280433   0.067   1.433   0.962 -0.2032 -0.1206 -0.4049
19648TIP3   OH280434   1.462   4.170   3.802 -0.0446  0.3337  0.0667
19648TIP3    H180435   1.510   4.195   3.881  0.7615  2.2558 -0.9922
19648TIP3    H280436   1.488   4.235   3.737 -2.8953  0.4546 -0.9921
19649TIP3   OH280437   1.962   4.370   5.961  0.1018 -0.3684 -0.1638
19649TIP3    H180438   1.899   4.437   5.986 -0.4505 -1.3623  1.1738
19649TIP3    H280439   2.047   4.406   5.983 -0.2752 -0.6073  1.7193
19650TIP3   OH280440   0.349   5.133  16.873  0.0404  0.0850 -0.0533
19650TIP3    H180441   0.398   5.079  16.811  1.7239  1.0137  0.4254
19650TIP3    H280442   0.259   5.132  16.841  0.2509 -2.1668 -0.6055
19651TIP3   OH280443   1.741   3.910   6.563 -0.5160  0.3676 -0.3334
19651TIP3    H180444   1.816   3.863   6.599 -1.1127  0.3315  0.8937
19651TIP3    H280445   1.750   3.999   6.597 -1.4696  0.1529  0.4881
19652TIP3   OH280446   5.876   5.212   1.124  1.0268 -0.3223  0.1459
19652TIP3    H180447   5.868   5.276   1.195 -0.9929  0.6822 -0.9329
19652TIP3    H280448   5.885   5.266   1.045 -0.3172 -1.3627 -0.7411
19653TIP3   OH280449   5.131   6.078  15.525 -0.2268 -0.2145 -0.3034
19653TIP3    H180450   5.073   6.030  15.584 -0.5795 -0.1853 -0.6249
19653TIP3    H280451   5.084   6.080  15.441  0.1336  0.0093 -0.5034
19654TIP3   OH280452   4.200   2.745   3.039  0.3640 -0.0156 -0.3741
19654TIP3    H180453   4.159   2.659   3.026 -1.3392  0.6171  0.5564
19654TIP3    H280454   4.164   2.800   2.969 -2.0679  1.0821  1.6305
19655TIP3   OH280455   3.730   0.353   0.786  0.3408 -0.0874 -0.5156
19655TIP3    H180456   3.778   0.314   0.859  0.1691 -0.4472 -0.5947
19655TIP3    H280457   3.683   0.280   0.747  0.8908  0.0085 -1.3509
19656TIP3   OH280458   1.496   0.740   0.335 -0.1942 -0.3805 -0.1304
19656TIP3    H180459   1.446   0.818   0.360 -0.7163 -0.6219 -0.4146
19656TIP3    H280460   1.432   0.669   0.336  0.6517 -1.1306  1.8017
19657TIP3   OH280461   4.380   3.564  16.894  0.3183  0.6277 -0.5493
19657TIP3    H180462   4.443   3.533  16.828  1.0093  1.5270 -0.3259
19657TIP3    H280463   4.295   3.533  16.862  1.0344 -2.0366 -0.0105
19658TIP3   OH280464   4.695   5.303   4.649  0.0908 -0.0228  0.3439
19658TIP3    H180465   4.694   5.286   4.555  3.1042  0.1999  0.2319
19658TIP3    H280466   4.721   5.395   4.657  2.0121 -0.6352  1.4332
19659TIP3   OH280467   5.623   3.463   2.407  0.1026  0.6452  0.0083
19659TIP3    H180468   5.599   3.556   2.402 -1.1683  0.4473  1.7814
19659TIP3    H280469   5.664   3.454   2.492 -0.5202 -0.5805  0.1828
19660TIP3   OH280470   3.847   2.826  17.030 -0.4464 -0.4108  0.2055
19660TIP3    H180471   3.920   2.815  17.091 -0.8811  0.2474  0.8544
19660TIP3    H280472   3.769   2.832  17.086 -0.8175  0.4952 -0.3884
19661TIP3   OH280473   1.474   2.078  13.081  0.0041 -0.2755  0.6890
19661TIP3    H180474   1.566   2.091  13.105  0.0627  1.4229 -0.4109
19661TIP3    H280475   1.443   2.010  13.141  1.8309 -0.5039  1.4063
19662TIP3   OH280476   5.936   6.346  15.985  0.4958  0.2888 -0.1419
19662TIP3    H180477   5.872   6.384  15.925  1.6003 -0.2730 -1.6899
19662TIP3    H280478   5.937   6.253  15.963  0.7176  0.0243  0.9369
19663TIP3   OH280479   2.309   2.415  15.437  0.3846  0.0468  0.6698
19663TIP3    H180480   2.221   2.382  15.417  0.3005  0.7109 -0.1006
19663TIP3    H280481   2.307   2.506  15.409  1.9555 -0.4768 -1.3299
19664TIP3   OH280482   5.085   1.272   2.938 -0.0786  0.2506 -0.5012
19664TIP3    H180483   5.089   1.303   3.029 -1.8550 -0.0930 -0.2776
19664TIP3    H280484   5.137   1.336   2.889  0.3128  0.8409  0.6560
19665TIP3   OH280485   1.108   2.391  15.995  0.0338 -0.2293 -0.2353
19665TIP3    H180486   1.063   2.475  16.002 -1.7653 -1.0650 -1.4079
19665TIP3    H280487   1.169   2.403  15.923 -0.3684  0.0176 -0.5410
19666TIP3   OH280488   1.229   1.965  12.439 -0.6311 -0.3211 -0.1271
19666TIP3    H180489   1.165   1.998  12.377  1.0801 -0.0586 -1.7996
19666TIP3    H280490   1.226   1.870  12.429 -1.4157 -0.3590  0.4700
19667TIP3   OH280491   4.205   4.448  14.800  1.0784  0.3645 -0.6020
19667TIP3    H180492   4.111   4.436  14.812  1.0960 -0.6737 -1.3781
19667TIP3    H280493   4.213   4.493  14.716  1.3612 -1.8545 -1.7938
19668TIP3   OH280494   6.375   3.301  11.508  0.4240 -0.0652 -0.2352
19668TIP3    H180495   6.404   3.286  11.598 -2.1482  0.0437  0.6415
19668TIP3    H280496   6.406   3.224  11.460  2.1954  0.0827  0.6281
19669TIP3   OH280497   1.199   0.023   1.432 -0.0189 -0.1100  0.1204
19669TIP3    H180498   1.193   0.010   1.527 -2.4172  1.9740  0.3167
19669TIP3    H280499   1.142  -0.044   1.395 -1.1653  0.7243  0.3337
19670TIP3   OH280500   4.626   0.878  13.112  0.0867 -0.2172 -0.5461
19670TIP3    H180501   4.702   0.907  13.163  0.0819 -0.2714 -0.5063
19670TIP3    H280502   4.632   0.928  13.030 -0.9648  1.3088  0.2753
19671TIP3   OH280503   3.003   2.063  16.849 -0.0156  0.0019  0.3302
19671TIP3    H180504   3.059   2.017  16.912 -0.5404  1.1364  1.6853
19671TIP3    H280505   3.064   2.107  16.790  0.4892 -1.1790 -0.0315
19672TIP3   OH280506   5.111   2.182   2.767  0.0552  0.3250  0.3105
19672TIP3    H180507   5.188   2.133   2.736 -0.0572 -0.6306  1.4982
19672TIP3    H280508   5.099   2.153   2.858 -0.2534  2.2828  0.9211
19673TIP3   OH280509   5.352   3.444   4.053 -0.5989  0.2887  0.0727
19673TIP3    H180510   5.258   3.433   4.065 -0.1511 -0.6196  3.3288
19673TIP3    H280511   5.378   3.372   3.996 -1.3275 -1.9033  2.3936
19674TIP3   OH280512   2.586   4.931   1.445  0.2750  0.4387  0.3553
19674TIP3    H180513   2.529   4.874   1.497  0.2332 -1.6116 -1.8422
19674TIP3    H280514   2.671   4.926   1.489 -0.2265  0.2368  1.3122
19675TIP3   OH280515   0.339   0.349   3.615  0.4011  0.1487 -0.1131
19675TIP3    H180516   0.354   0.257   3.638  0.9772  0.5110  0.9735
19675TIP3    H280517   0.369   0.356   3.525 -0.0414 -0.8340 -0.3412
19676TIP3   OH280518   3.193   4.365   3.592  0.0906  0.0634  0.3449
19676TIP3    H180519   3.145   4.313   3.656 -1.5121  0.4965 -0.4646
19676TIP3    H280520   3.137   4.442   3.578  1.0825  0.6302 -0.5403
19677TIP3   OH280521   6.703   5.584   4.411 -0.0080  0.3155 -0.5083
19677TIP3    H180522   6.617   5.624   4.422 -0.3308 -0.1490 -1.2860
19677TIP3    H280523   6.764   5.645   4.452 -0.7380  0.5089  0.2974
19678TIP3   OH280524   2.037   5.166  13.773 -0.8748 -0.0353 -0.3768
19678TIP3    H180525   2.043   5.227  13.699  0.6026  1.6553  1.0978
19678TIP3    H280526   1.972   5.101  13.745 -0.8530  0.9506 -2.8751
19679TIP3   OH280527   2.631   3.819   2.557  0.3554 -0.4415 -0.2094
19679TIP3    H180528   2.634   3.741   2.501  0.4689 -0.0541 -0.7475
19679TIP3    H280529   2.547   3.860   2.534  0.5164 -0.1516 -0.2697
19680TIP3   OH280530   6.464   5.106   0.209  0.3532  0.0453 -0.4117
19680TIP3    H180531   6.483   5.098   0.303  0.1653 -1.1613 -0.4700
19680TIP3    H280532   6.428   5.195   0.199  0.0050  0.0352  0.7166
19681TIP3   OH280533   6.502   1.062  12.122 -0.1692 -0.2537  0.3266
19681TIP3    H180534   6.414   1.095  12.140 -0.6960 -0.8738 -1.0563
19681TIP3    H280535   6.548   1.071  12.206 -0.7621  2.4390  0.4082
19682TIP3   OH280536   3.109   4.690  16.869  0.0636 -0.1025  0.1781
19682TIP3    H180537   3.058   4.750  16.923 -0.8765 -0.1777 -0.6195
19682TIP3    H280538   3.044   4.639  16.821  0.8535  0.8615 -2.0125
19683TIP3   OH280539   4.019   2.979  14.350 -0.3136  0.1580 -0.5578
19683TIP3    H180540   4.022   3.071  14.376  1.1601  0.7842 -2.7907
19683TIP3    H280541   4.090   2.938  14.400  0.4285  0.7056 -1.1343
19684TIP3   OH280542   4.653   4.383  11.794 -0.4341 -0.2271  0.6839
19684TIP3    H180543   4.561   4.384  11.770  0.1444  0.2525 -1.6759
19684TIP3    H280544   4.679   4.475  11.797  0.5286 -0.4258 -1.0259
19685TIP3   OH280545   4.436   1.197  12.308  0.5302 -0.0435 -0.1036
19685TIP3    H180546   4.353   1.176  12.265 -0.6647  0.9616  1.6236
19685TIP3    H280547   4.492   1.121  12.290 -0.9037 -0.9423 -0.9340
19686TIP3   OH280548   1.183   4.000  16.049  0.1194  0.2200  1.1273
19686TIP3    H180549   1.247   3.983  15.980 -0.4383  0.6123  0.5043
19686TIP3    H280550   1.164   4.094  16.042 -3.6582 -0.6264 -1.5014
19687TIP3   OH280551   0.422   1.782  14.227 -0.0209  0.1325 -0.7127
19687TIP3    H180552   0.430   1.875  14.248  0.2911  0.0089 -0.2870
19687TIP3    H280553   0.362   1.779  14.152  2.4209  0.9258 -2.7730
19688TIP3   OH280554   5.560   3.881  16.510 -0.5865 -0.4611  0.0392
19688TIP3    H180555   5.645   3.881  16.554 -0.3473 -0.3921 -0.4169
19688TIP3    H280556   5.567   3.812  16.445 -1.4118 -1.4670  0.9986
19689TIP3   OH280557   3.456   1.611  10.980  0.1202 -0.0587  0.0162
19689TIP3    H180558   3.413   1.696  10.979  1.5172  0.6843  1.6094
19689TIP3    H280559   3.402   1.556  10.922 -1.3769  1.5996 -0.1911
19690TIP3   OH280560   3.565   5.070   2.103  0.6693 -0.2395 -0.0234
19690TIP3    H180561   3.514   5.037   2.177  0.0054 -0.0308 -0.3870
19690TIP3    H280562   3.500   5.099   2.039  1.2353 -1.0194 -0.9647
19691TIP3   OH280563   0.074   5.874  15.487  0.1551 -0.2874  0.0122
19691TIP3    H180564   0.112   5.787  15.473  0.7694 -0.2033  1.1331
19691TIP3    H280565   0.108   5.926  15.414  0.4538 -0.7729 -0.1977
19692TIP3   OH280566   4.548   1.444   3.554  0.4567  0.2924 -0.1726
19692TIP3    H180567   4.541   1.534   3.586 -0.1480 -0.0266  0.6068
19692TIP3    H280568   4.551   1.453   3.458  0.5326  1.1453 -0.0946
19693TIP3   OH280569   2.809   1.933   3.183  0.3006 -0.1791 -0.1130
19693TIP3    H180570   2.898   1.940   3.217  0.2466 -0.8384  0.1706
19693TIP3    H280571   2.770   2.018   3.199  1.3416  0.5859 -1.5234
19694TIP3   OH280572   1.230   4.052   3.086  0.7507  0.4457  0.2750
19694TIP3    H180573   1.232   3.956   3.081  0.6996  0.4136  0.8294
19694TIP3    H280574   1.248   4.081   2.996 -4.1909 -0.1392 -1.0767
19695TIP3   OH280575   0.955   2.779  14.559 -0.2325 -0.2880  0.0829
19695TIP3    H180576   0.931   2.867  14.530 -0.2594 -0.5881 -0.8312
19695TIP3    H280577   0.970   2.731  14.478  4.1455  0.0426  0.5645
19696TIP3   OH280578   0.879   4.232   1.192  0.0183 -0.1629 -0.0236
19696TIP3    H180579   0.798   4.249   1.241 -0.6176  0.9813 -1.4157
19696TIP3    H280580   0.877   4.138   1.175 -0.9604 -0.1683  0.0741
19697TIP3   OH280581   4.812   5.689  11.872  0.7496 -0.1737 -0.1074
19697TIP3    H180582   4.792   5.685  11.779  1.3172  2.4433 -0.3970
19697TIP3    H280583   4.865   5.611  11.889 -0.7387 -1.5409 -1.5839
19698TIP3   OH280584   2.619   6.283  13.488 -0.4506 -0.3450 -0.0205
19698TIP3    H180585   2.583   6.338  13.558 -0.2169  0.3700 -0.4569
19698TIP3    H280586   2.703   6.323  13.468  0.3938 -1.7326  0.6777
19699TIP3   OH280587   6.173   3.953   5.529  0.7212  0.4590 -0.2723
19699TIP3    H180588   6.109   3.910   5.473 -0.1980  1.6743 -0.1717
19699TIP3    H280589   6.247   3.971   5.472  1.1819 -1.3638 -0.2856
19700TIP3   OH280590   5.130   1.646  12.266 -0.1796 -0.1709  0.2496
19700TIP3    H180591   5.124   1.716  12.200  1.0612 -0.3847 -0.1089
19700TIP3    H280592   5.103   1.688  12.348 -2.6428 -0.1355 -0.5368
19701TIP3   OH280593   5.873   2.612   0.989  0.5543 -0.1276 -0.4321
19701TIP3    H180594   5.939   2.676   1.014  1.3288 -0.4916 -1.5050
19701TIP3    H280595   5.791   2.645   1.027  0.8624  1.7250 -1.3641
19702TIP3   OH280596   2.142   3.626   6.302 -0.2234 -0.0251 -0.1788
19702TIP3    H180597   2.196   3.631   6.380 -1.2268 -2.8294  0.7474
19702TIP3    H280598   2.204   3.605   6.232  0.6984  2.6419 -0.2238
19703TIP3   OH280599   6.316   3.665   0.447  0.0923  0.1988 -0.4090
19703TIP3    H180600   6.239   3.721   0.442  0.0086 -0.0570 -2.1689
19703TIP3    H280601   6.356   3.670   0.361  2.4935  0.9143  0.6979
19704TIP3   OH280602   0.381   1.099  15.410 -0.0980 -0.2266  0.4513
19704TIP3    H180603   0.296   1.123  15.446 -1.1622 -0.0905 -2.0673
19704TIP3    H280604   0.376   1.122  15.317  2.4053 -0.9483  0.0850
19705TIP3   OH280605   6.230   5.518  10.965 -0.0787 -1.0306 -0.2731
19705TIP3    H180606   6.163   5.574  10.926  0.3662  0.8838  1.6116
19705TIP3    H280607   6.183   5.467  11.032  0.7481  2.3073  2.9884
19706TIP3   OH280608   2.019   0.575  13.443 -0.8531  0.0233 -0.7287
19706TIP3    H180609   2.024   0.523  13.362 -1.1981 -1.6698  0.3071
19706TIP3    H280610   2.103   0.620  13.448  0.7052 -2.8223 -0.1090
19707TIP3   OH280611   1.860   1.620   0.196 -0.0711 -0.0559 -0.3456
19707TIP3    H180612   1.794   1.552   0.206 -1.9747  1.6423 -1.0670
19707TIP3    H280613   1.928   1.579   0.141 -0.8400 -1.5827 -0.1837
19708TIP3   OH280614   5.387   1.213   1.382 -0.3656  0.0470  0.0444
19708TIP3    H180615   5.470   1.195   1.427 -0.7446  1.9602  1.5521
19708TIP3    H280616   5.332   1.253   1.449 -2.5033 -1.1217 -0.9732
19709TIP3   OH280617   5.866   5.579  14.530 -0.3607 -0.4921  0.2046
19709TIP3    H180618   5.840   5.597  14.620  1.2389 -1.7967  0.9556
19709TIP3    H280619   5.784   5.582  14.480 -1.0158  2.1996  1.3399
19710TIP3   OH280620   4.296   0.573  14.275  0.3100 -0.0424  0.1887
19710TIP3    H180621   4.339   0.643  14.325 -0.4264 -0.1039  0.9139
19710TIP3    H280622   4.287   0.501  14.338  0.9353 -0.7436 -0.5184
19711TIP3   OH280623   2.918   3.456   5.389 -0.5862 -0.0729 -0.6644
19711TIP3    H180624   2.851   3.404   5.345  2.2649 -1.5139 -3.4158
19711TIP3    H280625   2.986   3.393   5.412  0.5491  1.6259  0.7534
19712TIP3   OH280626   6.053   3.722  14.534  0.0339  0.3611  0.0167
19712TIP3    H180627   5.989   3.663  14.575 -1.8967  1.4850 -1.3324
19712TIP3    H280628   6.072   3.681  14.449  1.9755 -0.5380  0.8460
19713TIP3   OH280629   3.622   1.179  11.257  0.5830  0.3010  0.3814
19713TIP3    H180630   3.602   1.268  11.227  0.6650  0.3871  0.5758
19713TIP3    H280631   3.559   1.123  11.213 -0.7648  0.6775  1.7755
19714TIP3   OH280632   5.234   3.595   5.740  0.1727 -0.2722  0.0457
19714TIP3    H180633   5.231   3.554   5.653  0.2745 -0.4945  0.1462
19714TIP3    H280634   5.148   3.575   5.778  0.0528  0.0020 -0.0847
19715TIP3   OH280635   0.475   3.411   1.807  0.2309  0.0422 -0.8475
19715TIP3    H180636   0.399   3.353   1.814  1.3085 -1.2643  0.3225
19715TIP3    H280637   0.550   3.355   1.825  1.2775  1.8337  0.5795
19716TIP3   OH280638   5.447   3.520   3.510 -0.1173 -0.2054 -0.8599
19716TIP3    H180639   5.380   3.472   3.461  0.6716 -1.0386 -1.1427
19716TIP3    H280640   5.469   3.462   3.584  0.0755  0.1936 -0.6037
19717TIP3   OH280641   5.213   0.841  15.239  0.4593  0.0510  0.3149
19717TIP3    H180642   5.299   0.853  15.198  0.5285 -0.0326  0.4342
19717TIP3    H280643   5.185   0.929  15.264  1.0257 -0.0475  1.3234
19718TIP3   OH280644   4.721   1.505   6.053  0.5301 -0.1141  0.4758
19718TIP3    H180645   4.725   1.565   6.128  0.6396 -0.2659  0.5916
19718TIP3    H280646   4.752   1.558   5.979  3.3441 -0.8229  1.0812
19719TIP3   OH280647   4.292   5.144  15.302  0.0401  0.0761 -0.1718
19719TIP3    H180648   4.283   5.198  15.381  1.7622 -0.1374  0.1842
19719TIP3    H280649   4.234   5.070  15.317 -2.1539  1.6556 -0.5447
19720TIP3   OH280650   1.319   1.644  13.550  0.1002  0.6870 -0.0754
19720TIP3    H180651   1.239   1.692  13.567 -1.1347 -1.3154 -0.1243
19720TIP3    H280652   1.295   1.552  13.560  2.2622  0.0363 -0.5783
19721TIP3   OH280653   5.806   4.466  13.056  0.4428  0.4867  0.0181
19721TIP3    H180654   5.900   4.457  13.073  0.7975  1.4234 -1.3393
19721TIP3    H280655   5.778   4.379  13.029  0.9005  0.1825  0.5046
19722TIP3   OH280656   5.446   6.294   4.204  0.1662  0.0934 -0.3602
19722TIP3    H180657   5.517   6.229   4.203  1.3121  1.3397 -2.1435
19722TIP3    H280658   5.457   6.338   4.289  2.0273  0.7695 -0.9152
19723TIP3   OH280659   1.382   5.633   2.493  0.2052  0.0001  0.2343
19723TIP3    H180660   1.475   5.649   2.504  0.7268 -2.6289 -0.0210
19723TIP3    H280661   1.365   5.554   2.543 -1.5860 -0.3686 -0.8918
19724TIP3   OH280662   2.847   2.444   4.426  0.3297 -0.0293  0.3022
19724TIP3    H180663   2.761   2.437   4.384 -0.3329  0.9801  1.4481
19724TIP3    H280664   2.896   2.369   4.393 -0.7059 -0.1379 -1.0252
19725TIP3   OH280665   3.145   6.326  14.249  0.8893 -0.5521 -0.3334
19725TIP3    H180666   3.056   6.320  14.284  1.2402 -0.7896  0.5345
19725TIP3    H280667   3.196   6.266  14.303  2.2549  1.9938  1.3120
19726TIP3   OH280668   1.627   4.188   2.381  0.2963 -0.7502  0.2560
19726TIP3    H180669   1.708   4.190   2.329  0.3599 -0.6758  0.3581
19726TIP3    H280670   1.557   4.189   2.315  0.3562  0.8109  0.1955
19727TIP3   OH280671   2.531   6.304  15.824 -0.4321 -0.0135 -0.0124
19727TIP3    H180672   2.437   6.288  15.816 -0.4223  0.3441 -0.8265
19727TIP3    H280673   2.560   6.322  15.735  0.6977 -1.7441 -0.0157
19728TIP3   OH280674   0.859   1.539  15.297  0.0330 -0.0535  1.3128
19728TIP3    H180675   0.836   1.447  15.285  0.6356 -0.1933  1.1732
19728TIP3    H280676   0.812   1.565  15.376 -1.0676 -0.1442  0.6952
19729TIP3   OH280677   5.302   1.066  14.523 -0.4092 -0.2177  0.0979
19729TIP3    H180678   5.255   0.982  14.526 -0.3262 -0.2840 -0.4051
19729TIP3    H280679   5.263   1.118  14.593 -0.8966 -0.4535  0.0039
19730TIP3   OH280680   5.404   5.508  16.499  0.6006 -0.1615 -0.3419
19730TIP3    H180681   5.366   5.445  16.560 -0.4442 -0.6530 -1.4910
19730TIP3    H280682   5.447   5.455  16.433  0.8290  0.3525 -0.6085
19731TIP3   OH280683   1.992   4.273  15.889  0.0779  0.1582 -0.1407
19731TIP3    H180684   2.085   4.293  15.880  0.7630 -1.2870  2.9681
19731TIP3    H280685   1.952   4.357  15.914  1.0322  0.2188  1.2467
19732TIP3   OH280686   3.014   3.842   2.119  0.2049  0.0606  0.3010
19732TIP3    H180687   3.041   3.822   2.209 -0.6112 -0.9850  0.3326
19732TIP3    H280688   2.920   3.861   2.126  0.3820  1.1272 -0.1696
19733TIP3   OH280689   4.815   0.052   1.810  0.5818 -0.1085 -0.3721
19733TIP3    H180690   4.839   0.083   1.897  1.5387  1.4714 -1.1609
19733TIP3    H280691   4.849  -0.037   1.805  0.2826 -0.3019  0.9567
19734TIP3   OH280692   4.389   3.902  11.453  0.2553  0.1890  0.1433
19734TIP3    H180693   4.341   3.982  11.472 -0.1019  0.2991 -1.1478
19734TIP3    H280694   4.323   3.833  11.455 -0.2301  0.4968 -2.7924
19735TIP3   OH280695   1.664   5.830   0.464  0.6324  0.2995 -0.5113
19735TIP3    H180696   1.726   5.762   0.437  0.3798  0.1286 -0.6501
19735TIP3    H280697   1.620   5.794   0.541  0.0586  0.0577 -0.9516
19736TIP3   OH280698   6.481   2.834  10.589  0.4271 -0.4411  0.1272
19736TIP3    H180699   6.527   2.903  10.540 -1.2747  2.6389  2.6192
19736TIP3    H280700   6.389   2.859  10.583 -0.1550 -2.1890  1.5863
19737TIP3   OH280701   4.671   3.017   3.404 -0.0447 -0.1140 -0.2002
19737TIP3    H180702   4.689   2.935   3.357  0.8379 -0.0711  0.0593
19737TIP3    H280703   4.667   3.083   3.335 -1.0592 -0.4230 -0.4416
19738TIP3   OH280704   0.634   4.135   2.552  0.6583  0.0053 -0.6895
19738TIP3    H180705   0.685   4.055   2.538  1.7069  0.6379 -0.5117
19738TIP3    H280706   0.559   4.126   2.494  1.1605 -0.7653 -1.2262
19739TIP3   OH280707   6.764   4.815  13.982  0.0345  0.1713  0.1908
19739TIP3    H180708   6.772   4.792  13.890  1.5582  1.3479  0.0094
19739TIP3    H280709   6.742   4.909  13.981  0.0827  0.1947  1.0191
19740TIP3   OH280710   2.941   1.491   3.115  0.3248  0.4374 -0.3044
19740TIP3    H180711   3.020   1.507   3.167  0.4887 -0.3821 -0.2930
19740TIP3    H280712   2.869   1.507   3.176  0.4014  3.3535 -0.9074
19741TIP3   OH280713   6.501   2.686   5.000 -1.0694 -0.6192  0.3708
19741TIP3    H180714   6.542   2.721   5.078 -2.9057  0.8202  0.7144
19741TIP3    H280715   6.523   2.593   5.001 -1.8798 -0.8108  3.1062
19742TIP3   OH280716   1.437   6.058   5.876 -0.1805 -0.0221  0.8783
19742TIP3    H180717   1.370   6.121   5.901 -0.9063 -0.3227 -0.3023
19742TIP3    H280718   1.488   6.102   5.808  0.1708 -0.1871  1.0321
19743TIP3   OH280719   1.190   4.175  12.502  0.2991  0.6661 -0.3085
19743TIP3    H180720   1.235   4.096  12.472  0.5249  0.1959  1.2308
19743TIP3    H280721   1.198   4.237  12.429  0.8481 -0.4438 -1.1949
19744TIP3   OH280722   4.706   3.104   5.596 -0.0192  0.2564 -0.3295
19744TIP3    H180723   4.714   3.174   5.661  1.4647  0.3095 -0.5530
19744TIP3    H280724   4.741   3.027   5.640 -0.7306 -0.1320 -0.4343
19745TIP3   OH280725   1.346   2.869  13.259  0.0587  0.3228 -0.2185
19745TIP3    H180726   1.372   2.780  13.234  2.0415  0.2430  1.8944
19745TIP3    H280727   1.417   2.924  13.225 -1.2240  1.1090 -1.6252
19746TIP3   OH280728   1.534   5.826   1.793 -0.1779  0.2148  0.2621
19746TIP3    H180729   1.586   5.753   1.761  2.1513  1.3368  1.3857
19746TIP3    H280730   1.481   5.789   1.864  0.9808 -0.4040  0.8206
19747TIP3   OH280731   0.007   6.304  12.342  0.5973  0.0484 -0.3778
19747TIP3    H180732   0.087   6.282  12.390 -0.7356 -0.6172  1.5566
19747TIP3    H280733  -0.006   6.398  12.359  0.9416  0.1535 -0.6776
19748TIP3   OH280734   6.450   1.603   3.468 -0.3552 -0.5446 -0.6419
19748TIP3    H180735   6.488   1.519   3.440 -1.2154 -0.9074 -0.7276
19748TIP3    H280736   6.471   1.664   3.398  0.7284 -0.5563 -0.3423
19749TIP3   OH280737   0.722   2.326   6.114  0.0960 -0.5856  0.1452
19749TIP3    H180738   0.645   2.345   6.167 -1.2473 -2.3610 -1.0875
19749TIP3    H280739   0.760   2.248   6.154  0.4407 -0.5480 -0.1069
19750TIP3   OH280740   3.705   4.955   0.536 -0.3284 -0.4731 -0.0222
19750TIP3    H180741   3.744   5.040   0.557  0.1102 -1.0683  1.6416
19750TIP3    H280742   3.715   4.947   0.441 -1.3028  1.7735 -0.3437
19751TIP3   OH280743   1.025   3.935   0.761 -0.4396  0.2697 -0.7621
19751TIP3    H180744   0.978   3.899   0.686 -1.5218 -1.6519  0.7972
19751TIP3    H280745   1.101   3.878   0.772 -0.1641  0.6771 -0.5190
19752TIP3   OH280746   1.049   5.095   4.026  0.3379 -0.1233  0.1502
19752TIP3    H180747   0.997   5.103   3.946 -1.1433 -2.0979  0.8748
19752TIP3    H280748   1.139   5.108   3.997 -0.3190  0.9212 -1.5359
19753TIP3   OH280749   0.050   4.628   1.744  0.0802 -0.5363  0.7158
19753TIP3    H180750   0.096   4.551   1.711  1.0009  0.3699 -0.1317
19753TIP3    H280751   0.109   4.665   1.809 -0.6380 -0.8899  1.5864
19754TIP3   OH280752   3.863   0.052  14.021 -0.1459  0.3005 -0.5199
19754TIP3    H180753   3.822   0.079  13.938 -0.8138  1.1613  0.0692
19754TIP3    H280754   3.944   0.103  14.025  1.6317 -2.2507 -2.2369
19755TIP3   OH280755   0.231   2.015   0.925  0.5013  0.3919 -0.1353
19755TIP3    H180756   0.209   1.939   0.979  0.5436  0.2157 -0.3669
19755TIP3    H280757   0.156   2.074   0.935  0.7935  0.6332  0.6196
19756TIP3   OH280758   3.661   3.747  12.545  0.4505  0.1859  0.9043
19756TIP3    H180759   3.651   3.839  12.520 -0.3240  0.1277  0.9722
19756TIP3    H280760   3.698   3.750  12.633  0.9669  0.4215  0.6856
19757TIP3   OH280761   2.736   3.205  11.574  0.0466  0.2399  0.2601
19757TIP3    H180762   2.655   3.254  11.589  0.2948  0.9053 -0.5248
19757TIP3    H280763   2.729   3.175  11.483  0.8379  0.6064  0.0734
19758TIP3   OH280764   2.621   3.046  15.174  0.3104 -0.1079  0.0773
19758TIP3    H180765   2.581   2.975  15.224  2.1611 -1.7375 -0.6980
19758TIP3    H280766   2.579   3.041  15.088  0.1338 -0.0062  0.1582
19759TIP3   OH280767   3.388   0.758  11.799 -0.3939 -0.4978 -0.1885
19759TIP3    H180768   3.383   0.706  11.719 -0.6675 -2.1533  0.8843
19759TIP3    H280769   3.453   0.714  11.853 -0.6763  0.2314  0.7586
19760TIP3   OH280770   4.078   4.738  12.040 -0.0424 -0.0918 -0.1571
19760TIP3    H180771   4.030   4.819  12.021 -0.0267 -0.3242 -1.1803
19760TIP3    H280772   4.052   4.715  12.129 -0.2395  0.9065  0.0493
19761TIP3   OH280773   5.484   5.992  11.177 -0.4226 -0.0371 -0.6721
19761TIP3    H180774   5.448   5.981  11.265 -0.2535 -1.3956 -0.7570
19761TIP3    H280775   5.420   6.048  11.132 -0.8593  0.0947  0.1047
19762TIP3   OH280776   2.277   4.900  13.798 -0.6271  0.3041 -0.2756
19762TIP3    H180777   2.331   4.939  13.729 -2.4260 -0.4121 -2.1492
19762TIP3    H280778   2.204   4.961  13.807 -0.4948  0.2961  0.8864
19763TIP3   OH280779   3.288   0.230  11.407  0.5207  0.3124  0.4892
19763TIP3    H180780   3.273   0.261  11.318 -0.1527  1.1385  0.8832
19763TIP3    H280781   3.375   0.190  11.404 -0.4537 -1.7833 -1.0923
19764TIP3   OH280782   1.962   3.498  13.923  0.4256  0.3382 -0.4357
19764TIP3    H180783   2.019   3.575  13.918 -2.2160  2.2899 -2.0885
19764TIP3    H280784   1.905   3.516  13.998  1.5747 -1.3486  0.8837
19765TIP3   OH280785   1.737   0.007  14.226  0.1856 -0.3093 -0.1444
19765TIP3    H180786   1.656   0.028  14.271  0.5073  0.2877  0.1699
19765TIP3    H280787   1.711  -0.043  14.149 -0.2220 -3.5615  2.0101
19766TIP3   OH280788   2.959   4.018   2.485  0.0234 -0.8559 -0.4116
19766TIP3    H180789   2.975   4.112   2.492  0.2538 -1.0664  2.6438
19766TIP3    H280790   3.045   3.980   2.467  0.2030 -0.6039 -0.0922
19767TIP3   OH280791   2.976   3.308  12.541 -0.4020  0.0857  0.2868
19767TIP3    H180792   2.931   3.304  12.456  1.6792  0.1440 -0.8354
19767TIP3    H280793   2.977   3.401  12.563  0.1892  0.2149 -0.2586
19768TIP3   OH280794   4.951   1.507  15.645  0.1809 -0.3514  0.0450
19768TIP3    H180795   4.996   1.591  15.636  0.0913 -0.4059 -0.9451
19768TIP3    H280796   4.902   1.515  15.727 -0.0629  0.6721 -0.1884
19769TIP3   OH280797   4.465   5.928  12.748  0.1964  0.2582 -0.3204
19769TIP3    H180798   4.372   5.947  12.739 -0.5501 -0.8948  3.8882
19769TIP3    H280799   4.469   5.835  12.769  2.3586  0.2177 -0.7490
19770TIP3   OH280800   1.157   2.106   1.766  0.3283  0.3431 -0.3856
19770TIP3    H180801   1.175   2.170   1.835 -2.0126  0.7431 -0.0920
19770TIP3    H280802   1.171   2.021   1.808  0.1347  0.6151  0.2421
19771TIP3   OH280803   0.975   0.369  12.873  0.1007 -0.5483 -0.0933
19771TIP3    H180804   0.884   0.367  12.841  1.1194 -0.8270 -3.0850
19771TIP3    H280805   0.970   0.421  12.954 -2.8439 -1.2434  0.2366
19772TIP3   OH280806   0.282   0.655   1.287 -0.0333 -0.1397  0.2602
19772TIP3    H180807   0.293   0.742   1.247  2.1874 -0.5332 -0.0252
19772TIP3    H280808   0.285   0.671   1.381 -1.7769  0.3396  0.2599
19773TIP3   OH280809   5.224   3.050   2.831  0.4527 -0.1864 -0.1264
19773TIP3    H180810   5.214   2.954   2.830  0.5458 -0.1929 -0.3895
19773TIP3    H280811   5.187   3.079   2.748  0.6906 -0.0180 -0.1726
19774TIP3   OH280812   2.058   0.116  17.101  0.4333 -0.1720 -0.3200
19774TIP3    H180813   2.024   0.028  17.082  1.1180 -0.8326  1.4246
19774TIP3    H280814   2.132   0.126  17.041 -0.6971 -0.0701 -1.7410
19775TIP3   OH280815   5.450   4.300  13.966  0.5400 -0.4545  0.3844
19775TIP3    H180816   5.520   4.323  13.905 -0.4745 -0.8204 -0.9343
19775TIP3    H280817   5.400   4.381  13.977 -0.4999 -0.8983 -0.9119
19776TIP3   OH280818   1.549   3.276  14.089  0.2379 -0.4687 -0.5182
19776TIP3    H180819   1.518   3.251  14.176  0.7692 -0.0820 -0.2142
19776TIP3    H280820   1.488   3.342  14.059  0.3439 -0.2373 -0.2265
19777TIP3   OH280821   3.051   5.891  12.175  0.0009 -0.4594 -0.3324
19777TIP3    H180822   3.068   5.959  12.240 -1.2668 -1.0042  0.5878
19777TIP3    H280823   3.138   5.868  12.142  0.4458  1.6483 -0.7295
19778TIP3   OH280824   0.859   6.372  10.948 -0.3963 -0.6881 -0.3351
19778TIP3    H180825   0.913   6.330  11.014  3.2283  0.4711 -2.4451
19778TIP3    H280826   0.833   6.455  10.987  1.7803  0.0166 -0.3328
19779TIP3   OH280827   1.919   4.920  15.230 -0.2486 -0.4036  0.5856
19779TIP3    H180828   1.838   4.958  15.265 -1.8276  0.9482 -4.1135
19779TIP3    H280829   1.890   4.841  15.183  0.9225  0.6166 -1.9720
19780TIP3   OH280830   0.398   4.659  16.830 -0.2024 -0.2022  0.5869
19780TIP3    H180831   0.460   4.731  16.822  1.4886 -1.6879 -0.0813
19780TIP3    H280832   0.360   4.669  16.917  1.4361  0.3740  1.2418
19781TIP3   OH280833   1.010   1.953  10.628 -0.2995 -0.0733  0.0717
19781TIP3    H180834   0.953   2.007  10.684 -0.2908 -0.0036  0.0131
19781TIP3    H280835   0.959   1.874  10.610 -0.6488  0.2938 -0.5562
19782TIP3   OH280836   0.309   6.521   2.366  0.3339 -0.4913  0.4504
19782TIP3    H180837   0.226   6.481   2.393 -0.8866  1.5608 -0.0675
19782TIP3    H280838   0.304   6.525   2.271 -1.2893  4.1583  0.5973
19783TIP3   OH280839   0.507   4.157  15.280  0.6561 -0.0248 -0.1976
19783TIP3    H180840   0.515   4.251  15.260  1.9924 -0.3544 -1.3077
19783TIP3    H280841   0.491   4.153  15.374 -1.3794  1.4053 -0.4360
19784TIP3   OH280842   1.550   6.676  11.456  0.0383  0.8546  0.1085
19784TIP3    H180843   1.492   6.652  11.384  0.2804  2.4635 -0.6504
19784TIP3    H280844   1.490   6.700  11.527 -0.2370  2.1571 -0.5509
19785TIP3   OH280845   2.084   2.882  16.503  0.0898 -0.2374  0.2296
19785TIP3    H180846   2.088   2.975  16.479  0.8382  0.3057  2.3777
19785TIP3    H280847   2.043   2.882  16.590  2.8634 -1.6647  1.5792
19786TIP3   OH280848   2.839   6.231  12.338 -0.0449 -0.0344  0.3645
19786TIP3    H180849   2.861   6.269  12.253  0.7418 -1.8622 -0.2723
19786TIP3    H280850   2.917   6.246  12.391 -0.6443  1.3643  0.8715
19787TIP3   OH280851   2.735   6.671  16.599  0.1047  0.3990 -0.3933
19787TIP3    H180852   2.766   6.751  16.642 -0.3634 -0.9656  2.6638
19787TIP3    H280853   2.705   6.616  16.671  2.9738 -3.6975 -2.1057
19788TIP3   OH280854   2.467   0.094   0.004  0.0912  0.1604 -0.1805
19788TIP3    H180855   2.432   0.160  -0.056 -1.4448  1.5580  2.1908
19788TIP3    H280856   2.418   0.014  -0.017 -0.5788  0.6899 -0.6506
19789TIP3   OH280857   1.587   0.425   5.273 -0.2690  0.0773 -0.0478
19789TIP3    H180858   1.560   0.434   5.182 -1.2977 -2.1817 -0.0010
19789TIP3    H280859   1.665   0.481   5.280  0.1432 -0.1239 -2.4381
19790TIP3   OH280860   6.124   4.652   4.447  0.0001 -0.2456  0.2845
19790TIP3    H180861   6.111   4.664   4.541 -0.1555  0.0530  0.2237
19790TIP3    H280862   6.217   4.629   4.439 -0.3791 -2.0337  0.6871
19791TIP3   OH280863   5.315   1.542   4.395  0.0432  0.4869  0.1261
19791TIP3    H180864   5.308   1.463   4.342 -2.0715  0.3695  0.5393
19791TIP3    H280865   5.263   1.607   4.348 -1.5175  0.4898  1.8150
19792TIP3   OH280866   3.642   2.257  12.237 -0.7593 -0.1756  0.9603
19792TIP3    H180867   3.687   2.295  12.161 -2.9403 -0.3411 -0.4529
19792TIP3    H280868   3.655   2.321  12.307  1.0845  0.0850  0.4150
19793TIP3   OH280869   4.046   3.061  15.939 -0.1653  0.1654  0.1777
19793TIP3    H180870   4.136   3.057  15.972 -0.1599  0.4453  0.1960
19793TIP3    H280871   3.991   3.047  16.017 -0.1775  2.0796  0.5173
19794TIP3   OH280872   5.121   0.152   0.204 -0.3670 -0.0972  0.0213
19794TIP3    H180873   5.115   0.218   0.136 -0.8451  1.2970  1.3916
19794TIP3    H280874   5.215   0.143   0.221 -0.2824 -0.0290 -0.4010
19795TIP3   OH280875   1.550   4.351   5.780 -0.2102 -0.3599  0.5495
19795TIP3    H180876   1.480   4.328   5.841  0.6752  1.7364  2.4294
19795TIP3    H280877   1.625   4.370   5.836  1.0565  0.1632 -1.2790
19796TIP3   OH280878   4.338   5.561  12.375  0.0989  0.2915  0.0528
19796TIP3    H180879   4.304   5.533  12.460 -0.2832 -1.3175 -0.6014
19796TIP3    H280880   4.299   5.647  12.360  1.9600  1.6059  2.5128
19797TIP3   OH280881   1.289   6.314   1.920  0.3522  0.0498 -0.1785
19797TIP3    H180882   1.266   6.244   1.982  2.0491 -1.4722 -1.2144
19797TIP3    H280883   1.272   6.395   1.968 -2.9656 -1.0269  0.5743
19798TIP3   OH280884   4.100   4.687  13.542 -0.2227  0.0466 -0.5714
19798TIP3    H180885   4.108   4.633  13.621 -0.1761  2.6237  1.2738
19798TIP3    H280886   4.056   4.631  13.478 -1.3355 -1.7123  1.6733
19799TIP3   OH280887   3.320   5.812  11.113 -0.2550 -0.0214 -0.5695
19799TIP3    H180888   3.321   5.898  11.069 -0.4350 -0.8550 -2.2647
19799TIP3    H280889   3.255   5.762  11.064  1.0819 -1.6726 -0.6726
19800TIP3   OH280890   6.787   4.168   2.484 -0.2752  0.4928  0.3288
19800TIP3    H180891   6.755   4.096   2.538  0.9443  0.1741  0.6378
19800TIP3    H280892   6.708   4.207   2.447 -0.8892 -1.5169 -0.5265
19801TIP3   OH280893   5.925   3.493   4.831 -0.2303 -0.1753 -0.3066
19801TIP3    H180894   6.016   3.469   4.814  0.7108  2.1810  1.1402
19801TIP3    H280895   5.894   3.529   4.748 -0.0305 -1.4272 -0.9455
19802TIP3   OH280896   1.095   2.040   3.633  0.0907 -0.2539  0.6698
19802TIP3    H180897   1.010   2.047   3.676  0.5020  0.8351  1.3062
19802TIP3    H280898   1.074   2.018   3.542 -0.8464 -0.5386  0.9503
19803TIP3   OH280899   0.367   3.800  17.041 -0.0096 -0.9521  0.9809
19803TIP3    H180900   0.360   3.870  17.106 -0.3161 -2.5014  2.6440
19803TIP3    H280901   0.353   3.845  16.957 -0.7569  0.8922  2.0423
19804TIP3   OH280902   4.587   4.451  12.573  0.1758  0.4187  0.2751
19804TIP3    H180903   4.643   4.434  12.649  2.6403 -0.7018 -1.7355
19804TIP3    H280904   4.600   4.544  12.553  1.0498  0.2529  0.0473
19805TIP3   OH280905   2.069   3.319  11.110  0.2914 -0.7863  0.5990
19805TIP3    H180906   2.120   3.379  11.056 -2.2804 -0.4469 -1.5331
19805TIP3    H280907   2.052   3.369  11.190 -2.5863  1.7809 -1.5055
19806TIP3   OH280908   3.966   5.527  17.236  0.0738  0.8006 -0.4172
19806TIP3    H180909   3.929   5.493  17.154  1.1020 -0.6199 -0.3182
19806TIP3    H280910   3.976   5.621  17.221 -3.4354  1.2134 -0.4757
19807TIP3   OH280911   3.827   6.167   4.345  0.4769 -0.4537  0.1312
19807TIP3    H180912   3.784   6.228   4.404  0.9033 -0.0578  0.0342
19807TIP3    H280913   3.808   6.081   4.382 -0.2778 -0.2762  0.1660
19808TIP3   OH280914   1.839   0.614   0.210  0.5911  0.3508 -0.1429
19808TIP3    H180915   1.857   0.545   0.146 -0.2659 -1.1933  1.2383
19808TIP3    H280916   1.761   0.657   0.176 -0.5389 -1.1977  0.4083
19809TIP3   OH280917   5.065   3.155   5.125 -0.3094  0.3969 -0.4354
19809TIP3    H180918   5.009   3.231   5.144 -1.7186 -0.7245  0.0080
19809TIP3    H280919   5.113   3.140   5.206 -1.4481 -0.3419  0.1196
19810TIP3   OH280920   0.900   5.890   0.355  0.5173  0.0845 -0.4031
19810TIP3    H180921   0.950   5.833   0.413  2.4250 -0.3244 -2.4141
19810TIP3    H280922   0.905   5.977   0.396 -1.8547 -0.9737  2.3215
19811TIP3   OH280923   0.298   1.131  14.599  0.2034  0.3391 -0.7014
19811TIP3    H180924   0.379   1.082  14.595 -0.0588 -0.2301  0.6641
19811TIP3    H280925   0.325   1.220  14.620  0.6049  0.6089 -2.2507
19812TIP3   OH280926   0.993   2.151   3.158 -0.1127 -0.8058  0.4456
19812TIP3    H180927   0.973   2.130   3.249  0.1060  1.0297  0.9495
19812TIP3    H280928   0.912   2.188   3.123  0.9989  2.6346  1.2431
19813TIP3   OH280929   2.496   6.231   5.130 -0.3971 -0.7133  0.7044
19813TIP3    H180930   2.452   6.264   5.051 -1.1076 -1.0206  0.9640
19813TIP3    H280931   2.506   6.309   5.185 -0.4690 -0.6114  0.5748
19814TIP3   OH280932   5.037   2.802  13.384 -0.1680  0.4414  0.2944
19814TIP3    H180933   5.028   2.829  13.476  1.7247 -2.3531  1.4074
19814TIP3    H280934   5.121   2.837  13.357  0.6486 -1.1740  0.6270
19815TIP3   OH280935   5.317   6.486  12.942  0.1321  0.1051  0.0083
19815TIP3    H180936   5.379   6.525  13.004  0.3941  1.1058 -0.8824
19815TIP3    H280937   5.340   6.393  12.942  0.5387  0.2015  0.9495
19816TIP3   OH280938   1.423   5.305  12.662 -0.4759  0.2807  1.0130
19816TIP3    H180939   1.424   5.260  12.746  0.7942 -1.6126  0.0000
19816TIP3    H280940   1.515   5.310  12.636 -1.0072 -1.0765 -1.2704
19817TIP3   OH280941   6.046   3.689   1.966 -0.1092 -0.2784  0.2844
19817TIP3    H180942   5.997   3.625   1.913  1.4457 -0.8374 -0.4913
19817TIP3    H280943   6.019   3.774   1.931 -2.3691 -0.4706  1.4756
19818TIP3   OH280944   3.287   4.424   2.017  0.1049  0.7747  0.7781
19818TIP3    H180945   3.305   4.506   2.063  0.6600  0.2964  1.4404
19818TIP3    H280946   3.373   4.386   2.001 -0.1821 -0.3263  1.7034
19819TIP3   OH280947   1.266   5.154  12.488 -0.2542 -0.2799  0.3666
19819TIP3    H180948   1.301   5.211  12.557  1.1373  0.6428 -1.0767
19819TIP3    H280949   1.172   5.172  12.487 -0.0194  1.0184  0.8307
19820TIP3   OH280950   3.461   1.573  16.166 -0.5927 -0.4510 -0.0844
19820TIP3    H180951   3.484   1.636  16.098  1.7013 -1.1497  0.0069
19820TIP3    H280952   3.481   1.618  16.248  0.0921 -0.9413  0.0161
19821TIP3   OH280953   2.693   5.032  12.274 -0.3173 -0.1963 -0.2351
19821TIP3    H180954   2.787   5.043  12.263 -0.1134  0.4431  1.8301
19821TIP3    H280955   2.676   4.941  12.249  0.7143 -0.0662 -1.4026
19822TIP3   OH280956   0.612   6.604   5.799 -0.3042  0.8230 -0.1383
19822TIP3    H180957   0.671   6.532   5.822  0.4737  1.1167 -1.1763
19822TIP3    H280958   0.582   6.639   5.884 -0.7446 -0.7487  0.3738
19823TIP3   OH280959   4.546   6.046  13.489 -0.8056  0.7354 -0.1217
19823TIP3    H180960   4.512   6.015  13.573 -0.3209 -0.8487 -0.4777
19823TIP3    H280961   4.636   6.074  13.509 -0.5429 -0.0471 -0.1849
19824TIP3   OH280962   2.073   5.612  16.131 -0.5368  0.3146 -0.1669
19824TIP3    H180963   1.983   5.630  16.105  0.0299 -1.3527 -3.6430
19824TIP3    H280964   2.073   5.520  16.157  0.1248  0.3610  0.0284
19825TIP3   OH280965   5.779   0.012  14.642  0.3254 -0.0568 -0.2170
19825TIP3    H180966   5.821  -0.024  14.564  0.0903  0.4518 -0.5801
19825TIP3    H280967   5.805   0.104  14.644  0.9946 -0.2611  0.7632
19826TIP3   OH280968   4.065   6.164  11.655  0.0496  0.6262 -0.1399
19826TIP3    H180969   4.070   6.157  11.560  3.8522 -0.9209  0.0843
19826TIP3    H280970   4.087   6.255  11.675  4.5772 -0.2317 -0.5986
19827TIP3   OH280971   2.689   6.275  14.609 -0.6604  0.3696  0.2132
19827TIP3    H180972   2.608   6.324  14.620 -0.9775 -0.3528  1.1927
19827TIP3    H280973   2.671   6.214  14.537 -1.8389 -1.4923  2.0467
19828TIP3   OH280974   3.005   2.954   3.471  0.2115 -0.0717  0.1448
19828TIP3    H180975   2.945   3.020   3.507  0.7496  1.1414 -1.1850
19828TIP3    H280976   3.087   2.968   3.518  0.2148 -0.0574  0.1344
19829TIP3   OH280977   1.728   3.933  14.918  0.0533 -0.1940 -0.3968
19829TIP3    H180978   1.753   3.958  15.007 -1.1297 -0.8457  0.1270
19829TIP3    H280979   1.805   3.955  14.864  0.1332  1.7647  0.4999
19830TIP3   OH280980   3.033   3.554   4.345 -0.1017  0.0410 -0.0348
19830TIP3    H180981   2.985   3.596   4.416 -0.9113  0.4270 -0.7941
19830TIP3    H280982   2.968   3.498   4.303  0.5632 -0.7457 -0.0208
19831TIP3   OH280983   2.138   2.503   4.209  1.0275 -0.3576  0.1133
19831TIP3    H180984   2.182   2.455   4.139  0.7829  0.5006 -0.6276
19831TIP3    H280985   2.047   2.509   4.180  0.9912  0.2693  0.3647
19832TIP3   OH280986   1.467   1.985  11.964  0.0668  0.0941 -0.0895
19832TIP3    H180987   1.420   2.051  11.913 -0.8528 -0.8248 -0.4326
19832TIP3    H280988   1.556   1.988  11.929 -0.3083  0.1833 -1.0506
19833TIP3   OH280989   5.675   3.845   3.373 -0.0759 -0.4884  0.0583
19833TIP3    H180990   5.616   3.831   3.447  0.2352 -2.0220  0.0415
19833TIP3    H280991   5.619   3.837   3.296 -0.1214 -0.4574  0.0883
19834TIP3   OH280992   3.128   6.201  16.261  0.6286  0.2129 -0.2206
19834TIP3    H180993   3.062   6.222  16.195  0.9892  0.3699 -0.5331
19834TIP3    H280994   3.099   6.119  16.299 -0.1712  0.6716  0.1864
19835TIP3   OH280995   1.701   5.764   4.980  0.5333  0.4325  0.2955
19835TIP3    H180996   1.790   5.775   4.947  0.3659 -0.6916 -0.5856
19835TIP3    H280997   1.705   5.793   5.071  2.1661 -1.0740  0.7262
19836TIP3   OH280998   5.590   3.863   6.075  0.2017  0.1464 -0.1922
19836TIP3    H180999   5.657   3.923   6.044  0.8403 -0.3404  0.2329
19836TIP3    H281000   5.512   3.884   6.023  0.1787  1.9036  0.5472
19837TIP3   OH281001   6.302   6.311   2.519  0.8175  0.0081  0.4012
19837TIP3    H181002   6.283   6.310   2.425 -1.5325 -1.1080  0.8697
19837TIP3    H281003   6.344   6.396   2.533 -2.6848  2.0970 -0.9527
19838TIP3   OH281004   3.075   2.505  12.051 -0.7927  0.3916 -0.0798
19838TIP3    H181005   3.021   2.573  12.009 -1.3242 -0.8882 -1.5207
19838TIP3    H281006   3.157   2.508  12.003 -0.0808  1.3411  1.1631
19839TIP3   OH281007   1.287   3.658  15.473  0.1633 -0.5316 -0.6685
19839TIP3    H181008   1.344   3.735  15.464  0.4355 -0.9669 -2.8534
19839TIP3    H281009   1.284   3.620  15.386 -0.6375 -2.5542  0.2139
19840TIP3   OH281010   0.517   1.066  17.021  0.2677  0.0537  0.1404
19840TIP3    H181011   0.592   1.009  17.002  0.6741  0.4720  0.4555
19840TIP3    H281012   0.462   1.061  16.944  0.0333 -1.1877  0.3767
19841TIP3   OH281013   5.038   4.048   5.296  0.1834  0.4258  0.1569
19841TIP3    H181014   5.015   4.050   5.389 -3.1641 -0.0158 -0.6030
19841TIP3    H281015   5.042   4.140   5.270 -0.2534  0.5239  0.4312
19842TIP3   OH281016   1.730   6.692   2.010  0.1408 -0.7139 -0.0035
19842TIP3    H181017   1.713   6.602   2.038  0.5541 -0.4505  1.0834
19842TIP3    H281018   1.777   6.732   2.083 -0.2059  0.4414 -0.4083
19843TIP3   OH281019   0.243   2.809  14.114  0.3076 -0.2048  0.3941
19843TIP3    H181020   0.203   2.729  14.148 -1.5708  0.1135 -0.9812
19843TIP3    H281021   0.256   2.792  14.021 -0.5318  1.2351 -0.0122
19844TIP3   OH281022   2.379   6.252  11.887 -0.5284 -0.5851 -0.1360
19844TIP3    H181023   2.341   6.174  11.926  1.4902 -1.6133 -0.2097
19844TIP3    H281024   2.472   6.232  11.876  0.5064  2.5971  1.8619
19845TIP3   OH281025   5.782   4.432  16.141  0.4162 -0.0147  0.6556
19845TIP3    H181026   5.861   4.451  16.090 -0.1507 -0.2337 -0.3096
19845TIP3    H281027   5.806   4.357  16.195  0.9863  0.1492  0.6310
19846TIP3   OH281028   2.936   3.649  15.619  0.0134 -0.1618 -0.5316
19846TIP3    H181029   2.890   3.578  15.663  0.6478 -0.2301  0.0255
19846TIP3    H281030   2.918   3.635  15.526  0.4892 -1.3102 -0.4596
19847TIP3   OH281031   4.686   6.538  14.101 -0.1575  0.9062  0.1086
19847TIP3    H181032   4.605   6.541  14.151 -0.7097  2.0460 -0.8346
19847TIP3    H281033   4.663   6.573  14.015  1.4224  1.6178 -0.0492
19848TIP3   OH281034   2.634   1.093   2.889  0.2317 -0.1540  0.5080
19848TIP3    H181035   2.556   1.038   2.876  0.9128 -0.9403 -0.2652
19848TIP3    H281036   2.643   1.100   2.984 -2.3054  2.1043  0.6464
19849TIP3   OH281037   5.503   3.275   2.230 -0.4131 -0.0285  0.0850
19849TIP3    H181038   5.535   3.322   2.306  0.0378  1.0121 -0.7363
19849TIP3    H281039   5.411   3.299   2.223 -0.2177  0.6507 -0.2511
19850TIP3   OH281040   0.602   1.203  11.423  0.1290  0.2717  0.7117
19850TIP3    H181041   0.658   1.133  11.391 -1.4027 -0.2884 -0.8366
19850TIP3    H281042   0.533   1.158  11.472  0.6558  0.9023  2.0572
19851TIP3   OH281043   0.925   6.799   2.696 -0.5169 -0.5022  0.0949
19851TIP3    H181044   0.936   6.879   2.748  1.9059 -0.2895 -0.7011
19851TIP3    H281045   0.830   6.790   2.686 -0.9035  1.0929  2.0046
19852TIP3   OH281046   0.146   5.563   2.091  0.4768 -0.3878  0.8209
19852TIP3    H181047   0.221   5.618   2.068  0.5236  0.1940  2.3333
19852TIP3    H281048   0.182   5.475   2.102  0.8608 -0.1870  1.1448
19853TIP3   OH281049   6.689   6.794   0.732  0.2345  0.3908  0.1402
19853TIP3    H181050   6.781   6.801   0.706  0.2750  3.2061  0.8987
19853TIP3    H281051   6.640   6.806   0.651  0.5021  0.8192  0.0418
19854TIP3   OH281052   0.937   2.997   4.535  0.2523  0.3606 -0.2109
19854TIP3    H181053   1.018   2.949   4.550 -0.3598 -0.2445  1.3320
19854TIP3    H281054   0.961   3.089   4.539  0.4228  0.2217  3.1133
19855TIP3   OH281055   1.228   4.725   1.281  0.0356 -0.2947 -0.2059
19855TIP3    H181056   1.318   4.744   1.306  0.0011 -0.2164 -0.1405
19855TIP3    H281057   1.192   4.810   1.254  0.0876 -0.3890 -0.5699
19856TIP3   OH281058   4.716   4.187   1.389 -0.4425 -0.2307 -0.4135
19856TIP3    H181059   4.690   4.195   1.481  0.9730  1.1828 -0.1037
19856TIP3    H281060   4.810   4.172   1.391  0.2127  3.0356 -1.6459
19857TIP3   OH281061   0.838   0.144  15.443  0.3323  0.2030 -0.1901
19857TIP3    H181062   0.748   0.119  15.464  0.8087 -0.8460  0.6623
19857TIP3    H281063   0.846   0.234  15.473 -1.1081  1.1023 -2.3719
19858TIP3   OH281064   0.180   2.782   0.642  0.0620  0.5673  0.5108
19858TIP3    H181065   0.148   2.855   0.696  0.3100  1.4844 -0.5474
19858TIP3    H281066   0.164   2.811   0.552  1.4764 -0.0849  0.0344
19859TIP3   OH281067   1.425   0.865   3.404  0.2375  0.8312  0.1991
19859TIP3    H181068   1.454   0.944   3.360  1.1470  0.3135 -0.1445
19859TIP3    H281069   1.420   0.799   3.334 -0.4503  0.5702  0.4901
19860TIP3   OH281070   0.194   5.553  15.128 -0.1807  0.4633 -0.5074
19860TIP3    H181071   0.261   5.621  15.137 -1.0169  1.2012  0.2634
19860TIP3    H281072   0.156   5.546  15.215 -1.2731  0.2210 -0.9975
19861TIP3   OH281073   2.061   0.899   3.756  0.2649  0.2098 -0.3392
19861TIP3    H181074   2.083   0.909   3.849 -3.3257 -0.2273  0.6228
19861TIP3    H281075   2.018   0.814   3.751  0.8729  0.0147 -2.5477
19862TIP3   OH281076   1.959   0.621   0.441  0.6425 -0.1059  0.9002
19862TIP3    H181077   1.924   0.700   0.483  0.1065  0.0746  0.1173
19862TIP3    H281078   1.922   0.622   0.353 -2.0556 -2.9302  1.8785
19863TIP3   OH281079   6.727   2.660   5.439  0.1541 -0.1860  0.0671
19863TIP3    H181080   6.725   2.664   5.535 -1.0464 -2.3137  0.1753
19863TIP3    H281081   6.640   2.690   5.412  0.6230  0.7731 -0.3728
19864TIP3   OH281082   5.892   2.158   5.028 -0.7043  0.7997 -0.0805
19864TIP3    H181083   5.797   2.148   5.033 -0.5173 -0.7374  0.7539
19864TIP3    H281084   5.905   2.246   4.992 -2.4275  1.4546  0.8241
19865TIP3   OH281085   5.432   2.025   4.464  0.2953 -0.2232  0.0348
19865TIP3    H181086   5.443   2.120   4.470  0.9109 -0.1554 -1.8945
19865TIP3    H281087   5.520   1.990   4.476  0.1005 -0.5406  0.5288
19866TIP3   OH281088   2.033   1.185   3.725 -0.0551  0.1984 -0.0412
19866TIP3    H181089   2.018   1.090   3.732  0.1439  0.0504 -1.4898
19866TIP3    H281090   2.099   1.194   3.655 -0.8874  1.4636 -0.6793
19867TIP3   OH281091   3.518   6.152   5.540  0.4699  0.2178  0.2256
19867TIP3    H181092   3.474   6.174   5.458 -0.2056  0.7547  0.7233
19867TIP3    H281093   3.606   6.187   5.530 -0.2121  2.0811  0.5060
19868TIP3   OH281094   2.639   4.680   5.935 -0.0141  0.0477  0.0033
19868TIP3    H181095   2.695   4.721   6.001 -2.7166  1.5451  1.4723
19868TIP3    H281096   2.665   4.720   5.852  2.3428 -0.6879  0.3578
19869TIP3   OH281097   6.191   5.256  13.956 -0.4537 -0.2927  0.3704
19869TIP3    H181098   6.220   5.168  13.933 -0.5664  0.0450 -1.1593
19869TIP3    H281099   6.234   5.313  13.891 -4.5817  0.2191 -2.1004
19870TIP3   OH281100   1.692   4.037   4.662  0.1299 -0.1492  0.4184
19870TIP3    H181101   1.665   3.952   4.697 -0.3910 -0.1784 -0.0555
19870TIP3    H281102   1.788   4.030   4.656 -0.0997 -1.7505 -2.2519
19871TIP3   OH281103   5.222   1.557  13.854 -0.0090 -0.2118 -0.3350
19871TIP3    H181104   5.268   1.501  13.791 -0.1632  2.5900 -3.0794
19871TIP3    H281105   5.132   1.562  13.820 -0.0529  1.4952 -0.0143
19872TIP3   OH281106   6.636   2.836  15.442 -0.4260  0.4541 -0.1630
19872TIP3    H181107   6.585   2.916  15.454 -0.5457  0.5332 -1.1630
19872TIP3    H281108   6.582   2.766  15.479 -1.3311  0.5150 -1.3473
19873TIP3   OH281109   3.408   2.200   6.436  0.6326 -0.3663  0.3733
19873TIP3    H181110   3.324   2.229   6.399  0.5771 -0.2404  0.5998
19873TIP3    H281111   3.391   2.112   6.469  1.1460 -1.2309 -1.5401
19874TIP3   OH281112   4.637   1.208  14.837  0.0626  0.5358  0.4865
19874TIP3    H181113   4.648   1.271  14.909 -0.1439 -0.7953  1.7209
19874TIP3    H281114   4.725   1.173  14.823  0.0685  0.6622  0.2174
19875TIP3   OH281115   6.769   1.570  12.327 -0.7940 -0.5994 -0.2939
19875TIP3    H181116   6.844   1.582  12.386 -0.1321 -3.3567 -0.5261
19875TIP3    H281117   6.698   1.617  12.370  0.9828  1.9182  0.0220
19876TIP3   OH281118   1.789   0.051   4.058  0.6036 -0.0197  0.4023
19876TIP3    H181119   1.798   0.001   4.139 -1.5257 -1.4165 -0.1852
19876TIP3    H281120   1.862   0.022   4.003  1.0314 -0.3465  1.1379
19877TIP3   OH281121   2.954   6.408  11.436  0.0806  0.5339 -0.1474
19877TIP3    H181122   3.011   6.359  11.378  2.5920  0.6449  2.0956
19877TIP3    H281123   2.876   6.353  11.447  1.0519 -1.0044 -0.9314
19878TIP3   OH281124   6.436   0.896  15.059  0.0330  0.3428  0.2237
19878TIP3    H181125   6.432   0.928  15.150  1.6266 -0.8076  0.7245
19878TIP3    H281126   6.362   0.938  15.016 -1.6756 -0.2624  2.4418
19879TIP3   OH281127   5.553   4.784   4.148  0.6633 -0.1777 -0.0944
19879TIP3    H181128   5.577   4.693   4.129 -1.9133 -0.8782 -0.1102
19879TIP3    H281129   5.593   4.801   4.234 -0.5769 -2.0489  0.8984
19880TIP3   OH281130   1.400   5.665   0.032  0.7907 -0.9677  0.3911
19880TIP3    H181131   1.419   5.609  -0.044  0.8541 -1.3382  0.6780
19880TIP3    H281132   1.305   5.660   0.043  0.6168  0.1785 -0.5044
19881TIP3   OH281133   5.387   2.515   5.595 -0.2564 -0.1130  0.8503
19881TIP3    H181134   5.463   2.514   5.654  1.0332 -0.9067 -0.7825
19881TIP3    H281135   5.349   2.428   5.605  0.0356 -0.2913  0.4428
19882TIP3   OH281136   3.552   2.421   3.191  0.3695 -0.2719 -0.4298
19882TIP3    H181137   3.546   2.355   3.260 -2.3917 -0.0076 -0.3455
19882TIP3    H281138   3.567   2.503   3.237 -2.5296  0.0758  0.0484
19883TIP3   OH281139   1.754   6.173   3.401  0.0101 -0.0971 -0.2591
19883TIP3    H181140   1.730   6.266   3.398  0.2758 -0.0396 -0.5991
19883TIP3    H281141   1.769   6.155   3.493  1.1732  0.5037 -0.3209
19884TIP3   OH281142   3.149   4.836   1.145  0.3734  0.0126 -0.0292
19884TIP3    H181143   3.058   4.808   1.157  0.7137 -0.7689  0.7547
19884TIP3    H281144   3.158   4.912   1.203  0.1218  0.2969 -0.3623
19885TIP3   OH281145   0.590   2.018   5.817  0.0203  0.4664  0.2400
19885TIP3    H181146   0.595   1.927   5.845  0.8684  1.0262  2.0131
19885TIP3    H281147   0.496   2.036   5.812 -0.1551 -0.4959 -0.1427
19886TIP3   OH281148   6.537   4.548  12.243  0.0826  0.0261 -0.0752
19886TIP3    H181149   6.576   4.620  12.192 -0.1942 -0.3093 -0.7766
19886TIP3    H281150   6.596   4.535  12.317  0.4976  0.5212 -0.3174
19887TIP3   OH281151   4.449   0.122  17.109  0.7804  0.1786  0.3339
19887TIP3    H181152   4.429   0.207  17.067 -1.6882  0.3408  1.7226
19887TIP3    H281153   4.497   0.145  17.188  0.0972  0.3076  0.7196
19888TIP3   OH281154   3.954   2.438  13.477  0.1208  0.1998  0.0661
19888TIP3    H181155   4.046   2.451  13.456 -0.2460  1.9131 -0.5679
19888TIP3    H281156   3.934   2.505  13.543 -1.0550  0.9350 -1.0001
19889TIP3   OH281157   6.275   5.391  13.734  0.2582  0.2874  0.0551
19889TIP3    H181158   6.281   5.484  13.754  0.7485  0.2553  0.0667
19889TIP3    H281159   6.231   5.387  13.649  2.6489  0.6558 -1.2457
19890TIP3   OH281160   0.354   1.466  16.865 -0.0349 -0.0419  0.1611
19890TIP3    H181161   0.350   1.559  16.884 -0.8846 -0.2621  1.0980
19890TIP3    H281162   0.291   1.426  16.925 -0.3975 -1.1107 -0.9065
19891TIP3   OH281163   5.896   4.022   5.745 -0.1660  0.1381 -0.4435
19891TIP3    H181164   5.960   4.042   5.676  0.8714 -0.9759  0.1789
19891TIP3    H281165   5.815   4.005   5.698  1.1782 -3.4092 -1.6300
19892TIP3   OH281166   0.505   6.587  14.728 -0.4008 -0.4815  0.7720
19892TIP3    H181167   0.595   6.559  14.741 -0.4973 -1.3792 -0.4057
19892TIP3    H281168   0.490   6.578  14.634 -1.3559  0.7706  0.7935
19893TIP3   OH281169   1.102   3.041  13.679  0.1149 -0.3164 -0.1232
19893TIP3    H181170   1.031   3.075  13.624  1.2803  0.7129 -1.0233
19893TIP3    H281171   1.166   3.007  13.616 -0.7649 -3.7555  0.7270
19894TIP3   OH281172   5.617   1.679   4.801  0.4600  0.7806  0.4846
19894TIP3    H181173   5.562   1.694   4.724 -1.6056  0.2117  1.8087
19894TIP3    H281174   5.673   1.605   4.776 -1.1502 -0.2976  0.0170
19895TIP3   OH281175   6.653   6.030  11.286  0.6068 -0.2335 -0.3379
19895TIP3    H181176   6.681   5.939  11.275  1.7233  0.0764 -0.0895
19895TIP3    H281177   6.619   6.056  11.200  0.4051 -0.8391 -0.4435
19896TIP3   OH281178   2.193   4.832  15.005 -0.3422  0.3785  0.5875
19896TIP3    H181179   2.259   4.895  15.031  1.7570 -0.9087 -1.4292
19896TIP3    H281180   2.187   4.772  15.079  1.0734  0.2702  0.6286
19897TIP3   OH281181   2.134   0.401   0.431  0.4685  0.2434  0.5285
19897TIP3    H181182   2.054   0.451   0.450 -1.0678 -2.2348  0.8809
19897TIP3    H281183   2.149   0.414   0.337 -2.7287 -2.4326 -0.4703
19898TIP3   OH281184   3.938   4.798  16.961  0.2215  0.4835  0.0594
19898TIP3    H181185   4.002   4.727  16.970 -0.2285  0.0705 -0.0090
19898TIP3    H281186   3.911   4.795  16.869 -1.0029 -0.2914  0.4408
19899TIP3   OH281187   0.535   5.034  10.389  0.2733  0.3414  0.2069
19899TIP3    H181188   0.442   5.055  10.378  0.1533  0.3071  1.1373
19899TIP3    H281189   0.560   4.991  10.307 -0.4922  0.4868 -0.1048
19900TIP3   OH281190   1.467   4.826   5.968  0.0386  0.0803  0.3225
19900TIP3    H181191   1.528   4.822   6.041 -0.3663  0.3447  0.6811
19900TIP3    H281192   1.438   4.735   5.956 -2.1352  0.4332  2.4285
19901TIP3   OH281193   6.372   6.589   2.446 -0.2223 -0.0355 -0.0482
19901TIP3    H181194   6.359   6.641   2.367  0.4157 -0.6092 -0.5429
19901TIP3    H281195   6.343   6.645   2.517  1.1745  1.3034 -0.4981
19902TIP3   OH281196   6.378   0.387   5.293 -0.2113 -0.0786  0.2911
19902TIP3    H181197   6.405   0.346   5.375 -0.2611  0.2849  0.4936
19902TIP3    H281198   6.325   0.321   5.249 -0.1175 -0.3037  0.5142
19903TIP3   OH281199   0.289   0.171   3.950  0.4032 -0.4419  0.7240
19903TIP3    H181200   0.198   0.174   3.979  0.0648 -2.5576 -0.0877
19903TIP3    H281201   0.289   0.113   3.874  2.4446 -0.5203  0.7467
19904TIP3   OH281202   2.982   5.593   4.726 -0.0064 -0.5573  0.6216
19904TIP3    H181203   2.961   5.500   4.737  1.8317 -1.4003 -2.4454
19904TIP3    H281204   2.929   5.622   4.652  1.3495  0.1402 -0.0962
19905TIP3   OH281205   0.408   2.530  10.360 -0.0489 -0.0420  0.1278
19905TIP3    H181206   0.394   2.596  10.429 -0.1706 -1.0939  1.1296
19905TIP3    H281207   0.501   2.539  10.337  0.0542  0.1472  0.6069
19906TIP3   OH281208   3.134   1.109  14.828  0.1587 -0.5046 -0.1968
19906TIP3    H181209   3.099   1.196  14.810  0.4678 -0.3207  0.0812
19906TIP3    H281210   3.190   1.121  14.905  0.8257 -0.7986 -0.6351
19907TIP3   OH281211   1.566   0.914  13.943  0.2435 -0.0274 -0.0305
19907TIP3    H181212   1.621   0.846  13.983  1.1629  0.8769  0.2409
19907TIP3    H281213   1.482   0.870  13.927  1.3106 -1.6845 -1.2884
19908TIP3   OH281214   1.667   5.590   1.719 -0.6894  0.3358  0.6045
19908TIP3    H181215   1.760   5.582   1.739 -0.3382 -0.7211 -1.3607
19908TIP3    H281216   1.633   5.501   1.727 -1.2547  0.5012  0.0725
19909TIP3   OH281217   5.426   3.643  10.488  0.5236  0.4136 -0.4020
19909TIP3    H181218   5.472   3.566  10.455  2.4324  1.0313  0.6828
19909TIP3    H281219   5.333   3.621  10.481  1.0007 -1.3851 -1.4819
19910TIP3   OH281220   6.478   1.967  14.809 -0.2765  0.2108 -0.4464
19910TIP3    H181221   6.482   1.896  14.873 -0.7052  0.4737 -0.1263
19910TIP3    H281222   6.517   1.930  14.730 -1.1112 -0.6056 -0.4859
19911TIP3   OH281223   2.398   3.235  11.049  0.0788 -0.1197  0.2247
19911TIP3    H181224   2.482   3.282  11.058 -0.0292  0.1892 -0.3587
19911TIP3    H281225   2.336   3.303  11.023  0.0022 -0.6655 -1.0269
19912TIP3   OH281226   1.685   4.822   3.671 -0.4350  0.4238 -0.3433
19912TIP3    H181227   1.637   4.898   3.639 -1.9666 -1.3517 -2.3964
19912TIP3    H281228   1.708   4.772   3.592  1.2316 -0.8673  0.8984
19913TIP3   OH281229   0.138   6.093   4.940 -1.0187  0.0237 -0.2010
19913TIP3    H181230   0.082   6.170   4.951 -0.3531  0.7756 -1.8113
19913TIP3    H281231   0.096   6.042   4.870  0.2394  0.5665 -1.3855
19914TIP3   OH281232   1.021   2.134  12.082  0.4923 -0.1513 -0.0463
19914TIP3    H181233   1.067   2.052  12.064 -0.0645 -0.7327  1.1456
19914TIP3    H281234   1.053   2.161  12.169 -1.6076 -0.7170  0.9326
19915TIP3   OH281235   5.977   2.362  14.843 -0.2259 -0.3290  0.6761
19915TIP3    H181236   5.980   2.400  14.755  0.2467  0.9539  1.2309
19915TIP3    H281237   6.069   2.353  14.868 -0.3647  1.3932  1.8968
19916TIP3   OH281238   0.203   0.970  15.033  0.0124 -0.4964 -0.0187
19916TIP3    H181239   0.248   1.053  15.048  0.5052 -0.5578 -1.0682
19916TIP3    H281240   0.110   0.989  15.044  0.0581  0.3932 -1.1048
19917TIP3   OH281241   3.501   4.663   0.382  0.4188 -0.0387 -0.3480
19917TIP3    H181242   3.548   4.597   0.433 -1.2237 -1.0457 -0.0909
19917TIP3    H281243   3.518   4.745   0.428 -0.1296 -0.7740  1.2015
19918TIP3   OH281244   2.298   5.351   2.633  0.0596  0.0728  0.0324
19918TIP3    H181245   2.216   5.304   2.644 -0.6642  1.6560  1.6211
19918TIP3    H281246   2.273   5.435   2.595  1.0819  0.0758 -0.6540
19919TIP3   OH281247   0.326   5.793   3.982  0.3804 -0.3215  0.1591
19919TIP3    H181248   0.243   5.745   3.989 -0.2723  0.7538  0.0057
19919TIP3    H281249   0.316   5.846   3.903  0.9257  0.3829  0.5631
19920TIP3   OH281250   4.896   4.810  13.489  0.6842  0.1104 -0.2315
19920TIP3    H181251   4.930   4.722  13.469 -2.3908 -0.8458 -1.6381
19920TIP3    H281252   4.946   4.838  13.565  1.1625 -3.2382  0.7682
19921TIP3   OH281253   5.074   5.339  16.768  0.5560  0.2442  0.6261
19921TIP3    H181254   4.996   5.350  16.823  1.7306  0.4806  2.2672
19921TIP3    H281255   5.080   5.420  16.718 -0.4960  0.0495  0.1785
19922TIP3   OH281256   0.638   2.535  11.656 -0.1401 -0.4061  0.2655
19922TIP3    H181257   0.689   2.512  11.734  0.8523 -0.5325 -0.4078
19922TIP3    H281258   0.556   2.486  11.666  1.0783 -2.6142 -0.1093
19923TIP3   OH281259   4.571   6.425   3.158 -0.3735 -0.0629 -0.0958
19923TIP3    H181260   4.592   6.337   3.127 -1.7304 -1.4717  2.8769
19923TIP3    H281261   4.638   6.445   3.224 -2.7798 -0.8310  2.6689
19924TIP3   OH281262   6.002   2.087  14.903  0.6591  0.1296  0.0588
19924TIP3    H181263   5.989   2.167  14.852 -0.4887 -0.0889  0.0134
19924TIP3    H281264   6.050   2.116  14.981 -1.1464  1.1229  0.8222
19925TIP3   OH281265   1.071   0.540  14.896 -0.1870  0.4453  0.4967
19925TIP3    H181266   1.151   0.531  14.844 -0.2101 -0.0417  0.5447
19925TIP3    H281267   1.041   0.451  14.910 -0.8998  0.6411  0.2336
19926TIP3   OH281268   2.419   6.430   3.719  0.0152  0.7393  0.0714
19926TIP3    H181269   2.403   6.418   3.625  0.1388 -0.1236  0.1517
19926TIP3    H281270   2.359   6.499   3.745 -0.3067  0.7029 -0.5681
19927TIP3   OH281271   3.078   1.661   4.296 -0.2457 -0.2679 -0.8570
19927TIP3    H181272   3.025   1.685   4.373  1.5163  0.7649  0.0938
19927TIP3    H281273   3.055   1.726   4.230  1.4292  1.6197  0.3212
19928TIP3   OH281274   4.686   6.338  15.375  0.0121  0.0598  0.3059
19928TIP3    H181275   4.701   6.260  15.323  1.6000  0.7112 -0.2394
19928TIP3    H281276   4.768   6.351  15.423  0.2871  2.1830 -0.6889
19929TIP3   OH281277   1.077   6.238   1.009 -0.7124 -0.1789 -0.2227
19929TIP3    H181278   1.010   6.191   0.960 -0.0133 -0.9035 -0.4880
19929TIP3    H281279   1.114   6.174   1.069 -1.2668  0.5966  0.9749
19930TIP3   OH281280   1.907   0.269  14.272  0.5717  0.2330  0.7905
19930TIP3    H181281   1.986   0.214  14.269  0.0990 -0.4401  0.5684
19930TIP3    H281282   1.835   0.206  14.272  0.0537  0.7995  2.3568
19931TIP3   OH281283   6.070   4.693  15.698 -0.2654 -0.2714 -0.1671
19931TIP3    H181284   6.075   4.740  15.615 -0.0918  0.7546  0.4119
19931TIP3    H281285   5.976   4.692  15.719 -0.3066 -0.5084 -0.3685
19932TIP3   OH281286   0.783   6.417  14.279 -0.4430 -0.3932 -0.2156
19932TIP3    H181287   0.871   6.386  14.257  0.4607  1.7372  0.2706
19932TIP3    H281288   0.737   6.422  14.196  0.9187  1.4981 -0.8737
19933TIP3   OH281289   4.137   5.884   2.106  0.3130 -0.0653  0.5433
19933TIP3    H181290   4.078   5.816   2.071  0.9888 -0.1743 -0.4035
19933TIP3    H281291   4.174   5.925   2.028  1.5808 -0.0748  1.1410
19934TIP3   OH281292   2.348   0.431   1.928  0.6869  0.0051 -0.5137
19934TIP3    H181293   2.429   0.409   1.882  0.7259  0.3664 -0.6215
19934TIP3    H281294   2.281   0.431   1.859  0.5813 -0.3572 -0.4141
19935TIP3   OH281295   4.279   2.874   4.049  0.0347  0.6165 -0.5143
19935TIP3    H181296   4.345   2.939   4.072  0.3117 -0.3151  1.4083
19935TIP3    H281297   4.319   2.822   3.980  2.2555 -1.3990  2.2013
19936TIP3   OH281298   1.167   6.115  13.729 -0.7092  1.0407  0.3002
19936TIP3    H181299   1.215   6.032  13.723 -3.0200 -0.4399  1.7323
19936TIP3    H281300   1.217   6.167  13.793 -0.7347 -0.3198  1.4461
19937TIP3   OH281301   5.763   0.560  14.040  0.1235 -0.3016 -0.2634
19937TIP3    H181302   5.682   0.554  14.089  0.5579 -1.3490  0.3322
19937TIP3    H281303   5.806   0.639  14.074 -0.1049 -0.3886  0.2315
19938TIP3   OH281304   4.794   2.802  15.696 -0.3278  0.0733 -0.2605
19938TIP3    H181305   4.836   2.726  15.654 -1.7756  0.5682 -2.7503
19938TIP3    H281306   4.867   2.860  15.718  0.5871 -0.7191 -1.0930
19939TIP3   OH281307   6.285   6.320   3.854  0.1629 -0.0829  0.7073
19939TIP3    H181308   6.259   6.291   3.767  1.6682  0.0801  0.2057
19939TIP3    H281309   6.372   6.357   3.843  0.5271 -0.3993  2.3441
19940TIP3   OH281310   2.295   2.834   5.932 -0.4648 -0.0805 -0.1938
19940TIP3    H181311   2.287   2.741   5.954  0.2185 -0.1319 -0.1556
19940TIP3    H281312   2.388   2.846   5.913 -0.8475  0.1886 -2.0199
19941TIP3   OH281313   1.424   5.661  16.520  0.2780  0.8228  0.5833
19941TIP3    H181314   1.497   5.703  16.474 -0.1532  0.6796 -0.2486
19941TIP3    H281315   1.414   5.711  16.600  0.7784  1.3433  0.3223
19942TIP3   OH281316   6.242   5.190   1.913  0.2532  0.1708 -0.1971
19942TIP3    H181317   6.166   5.248   1.903 -0.6427 -0.7390  1.1035
19942TIP3    H281318   6.238   5.133   1.836 -0.4816  0.0357 -0.0708
19943TIP3   OH281319   0.914   3.872  16.016  0.3981 -0.3134  0.2220
19943TIP3    H181320   1.000   3.908  15.990  0.1102  0.7583  0.7172
19943TIP3    H281321   0.930   3.829  16.100  0.1329  1.2970  1.1187
19944TIP3   OH281322   2.351   6.060  17.098 -0.2469 -0.1748  0.2717
19944TIP3    H181323   2.394   5.988  17.052  1.2424 -0.0576  1.4670
19944TIP3    H281324   2.289   6.095  17.034 -0.0837 -1.7002 -0.7469
19945TIP3   OH281325   1.662   3.919  15.427  0.4352  0.2715  0.3358
19945TIP3    H181326   1.721   3.851  15.461  1.8759  1.5690  0.4635
19945TIP3    H281327   1.708   3.954  15.351 -2.2419 -1.8166 -2.3280
19946TIP3   OH281328   1.621   4.282  11.428  0.5422  0.4367  0.0459
19946TIP3    H181329   1.559   4.352  11.405  1.3857  1.2019  0.0747
19946TIP3    H281330   1.682   4.323  11.489 -1.0507 -1.2839  2.9308
19947TIP3   OH281331   6.602   4.430  13.893 -0.0279  0.0692  0.4924
19947TIP3    H181332   6.585   4.401  13.804 -0.6112 -0.4733  0.7746
19947TIP3    H281333   6.697   4.427  13.903  0.0295  0.0517 -0.0795
19948TIP3   OH281334   6.019   2.884  16.185  0.2932  0.1976  0.5421
19948TIP3    H181335   5.958   2.860  16.255  0.0864  2.1798  1.0974
19948TIP3    H281336   5.975   2.957  16.140  0.5534 -0.8829 -1.4831
19949TIP3   OH281337   2.159   3.166  12.996  0.3622  0.3248  0.3133
19949TIP3    H181338   2.239   3.145  12.949 -1.4113 -2.9505 -1.3854
19949TIP3    H281339   2.164   3.115  13.077 -1.0449 -1.8210 -0.9039
19950TIP3   OH281340   0.527   6.609   1.733 -0.2380  0.8466 -0.0181
19950TIP3    H181341   0.439   6.644   1.742 -0.5269 -0.0090  0.5533
19950TIP3    H281342   0.519   6.539   1.668  0.1221  1.1193 -0.3589
19951TIP3   OH281343   0.655   5.285  16.162  0.6921  0.4759  0.1326
19951TIP3    H181344   0.703   5.271  16.080 -0.3992 -0.2399 -0.3919
19951TIP3    H281345   0.593   5.213  16.166  0.1849  0.9633  1.1960
19952TIP3   OH281346   5.668   4.694  17.175 -0.2501  0.2146  0.3397
19952TIP3    H181347   5.746   4.712  17.122  0.0805 -0.9851  0.3949
19952TIP3    H281348   5.599   4.677  17.110 -0.1133 -0.1578  0.2900
19953TIP3   OH281349   4.920   2.268   2.506  0.3930  0.2397 -0.4007
19953TIP3    H181350   4.945   2.243   2.417 -0.0323 -1.5781 -0.0444
19953TIP3    H281351   5.000   2.256   2.558 -0.0493 -1.3640 -0.0565
19954TIP3   OH281352   4.548   6.812   3.226  0.2823 -0.2113 -0.0233
19954TIP3    H181353   4.639   6.798   3.202  0.5900  0.9202  0.4361
19954TIP3    H281354   4.502   6.822   3.142  1.0628  1.9937 -0.2249
19955TIP3   OH281355   2.152   1.340  13.406 -0.2684 -0.4394 -0.9022
19955TIP3    H181356   2.073   1.394  13.396 -0.4529 -0.3519  0.9325
19955TIP3    H281357   2.183   1.359  13.494  2.4110  0.2813 -1.9638
19956TIP3   OH281358   0.970   4.948  10.824  0.4388  0.2253  1.0445
19956TIP3    H181359   1.015   5.027  10.853  1.7103  0.1308 -0.6116
19956TIP3    H281360   1.039   4.892  10.789 -0.6719 -0.9033  0.6132
19957TIP3   OH281361   6.647   4.013  13.629  0.9030  0.1457  0.2069
19957TIP3    H181362   6.666   4.105  13.649  1.9145  0.1311 -0.6737
19957TIP3    H281363   6.729   3.978  13.596  0.9757 -1.5428  2.1385
19958TIP3   OH281364   0.013   3.741  16.595 -0.2380 -0.4102 -0.6828
19958TIP3    H181365   0.020   3.833  16.621 -1.0495 -0.7557  0.7844
19958TIP3    H281366  -0.064   3.738  16.538 -0.9397 -0.3887  0.2529
19959TIP3   OH281367   6.548   2.315  11.563 -0.1318 -0.4154 -1.2170
19959TIP3    H181368   6.547   2.275  11.476  1.4867 -0.9905 -0.9871
19959TIP3    H281369   6.614   2.384  11.557  1.2259 -1.5539  0.0018
19960TIP3   OH281370   3.045   2.476   5.826  0.2108 -0.6688 -0.1638
19960TIP3    H181371   3.099   2.552   5.851  0.3881 -1.0564  0.6527
19960TIP3    H281372   3.041   2.423   5.906  2.2444 -2.8114 -1.4237
19961TIP3   OH281373   5.906   4.106  11.506  0.0054 -0.6591 -0.4155
19961TIP3    H181374   5.890   4.171  11.438 -0.6713  0.5854  0.8968
19961TIP3    H281375   5.927   4.026  11.459  0.5057  0.4188 -2.0721
19962TIP3   OH281376   0.418   2.579   2.466  0.7982 -0.2283 -0.7606
19962TIP3    H181377   0.340   2.618   2.428  0.7640 -0.6451 -1.1330
19962TIP3    H281378   0.448   2.517   2.399  0.4136 -1.3921  0.1280
19963TIP3   OH281379   2.567   5.696   3.832  0.1504 -0.1235  0.2187
19963TIP3    H181380   2.519   5.757   3.776 -0.6479 -0.0752  0.9508
19963TIP3    H281381   2.546   5.609   3.797  0.8691 -0.0174 -0.4964
19964TIP3   OH281382   3.671   6.386  15.712  0.8830  0.0086 -0.1861
19964TIP3    H181383   3.689   6.301  15.672  1.6507  0.0137  0.1237
19964TIP3    H281384   3.678   6.449  15.640 -0.4193 -0.2724 -0.5525
19965TIP3   OH281385   3.476   3.091   3.580  0.9296 -0.1894 -0.3863
19965TIP3    H181386   3.539   3.121   3.645  1.5375 -1.1884 -0.4986
19965TIP3    H281387   3.426   3.169   3.556 -1.4898 -0.3818  3.6529
19966TIP3   OH281388   5.308   2.246  13.775  0.0479 -0.0285 -0.1165
19966TIP3    H181389   5.222   2.250  13.818  0.9159  1.7343  1.5651
19966TIP3    H281390   5.362   2.195  13.836  1.1462  2.0074  0.6512
19967TIP3   OH281391   3.700   6.390  13.341  0.0825  0.3114 -0.5985
19967TIP3    H181392   3.756   6.377  13.417 -0.7816 -2.2181 -0.3534
19967TIP3    H281393   3.614   6.358  13.369 -0.6912  1.0516 -2.0546
19968TIP3   OH281394   0.692   6.354   0.953 -0.6320 -0.4560 -0.0052
19968TIP3    H181395   0.744   6.390   1.024 -0.8345 -0.3242  0.0737
19968TIP3    H281396   0.603   6.386   0.968 -0.4469  0.5522 -0.9760
19969TIP3   OH281397   5.857   0.706  16.233 -0.6442 -0.5017 -0.0427
19969TIP3    H181398   5.781   0.741  16.280 -1.6075  0.6541 -2.3546
19969TIP3    H281399   5.832   0.616  16.212 -2.2471  0.4319 -2.4271
19970TIP3   OH281400   6.487   0.547  16.844 -0.0746 -0.4198 -0.1383
19970TIP3    H181401   6.526   0.525  16.929  0.9743  0.9621 -0.2512
19970TIP3    H281402   6.426   0.619  16.863 -1.9675 -1.9794 -0.1108
19971TIP3   OH281403   2.059   0.689  17.147  0.7911 -0.6580 -0.4018
19971TIP3    H181404   2.081   0.781  17.134  0.2066  0.0124  3.0164
19971TIP3    H281405   1.963   0.687  17.148  0.7956 -1.0420  0.9597
19972TIP3   OH281406   4.518   0.658  11.889  0.0333  0.2420  0.4048
19972TIP3    H181407   4.588   0.687  11.830 -0.9236 -0.6228 -1.1781
19972TIP3    H281408   4.437   0.687  11.846 -0.7375 -1.5513  0.6278
19973TIP3   OH281409   4.149   5.667  13.127  0.3752 -0.4935  0.5593
19973TIP3    H181410   4.064   5.622  13.125 -0.4669  0.9737  1.9446
19973TIP3    H281411   4.162   5.690  13.219  1.7225  0.3500  0.1752
19974TIP3   OH281412   6.012   0.372   4.355  1.2973 -0.1701 -0.2602
19974TIP3    H181413   6.010   0.283   4.321  0.2445 -0.5953  0.8656
19974TIP3    H281414   6.077   0.369   4.425  1.6910  0.1043 -0.6083
19975TIP3   OH281415   1.607   1.528  12.271  0.3428  0.7886  0.2564
19975TIP3    H181416   1.522   1.572  12.269 -0.6786 -1.0914  0.5523
19975TIP3    H281417   1.617   1.499  12.362  0.7403 -0.0237 -0.0411
19976TIP3   OH281418   1.544   3.360  16.437  0.3799 -0.2823  0.2925
19976TIP3    H181419   1.503   3.345  16.522  0.4848 -0.1775  0.3645
19976TIP3    H281420   1.509   3.445  16.409  0.7381 -0.0757  0.4665
19977TIP3   OH281421   3.266   5.778  14.666  0.0010 -0.0676  0.3688
19977TIP3    H181422   3.216   5.859  14.669 -1.1859 -0.8275  1.8894
19977TIP3    H281423   3.208   5.716  14.622 -0.1974 -0.8222  1.6793
19978TIP3   OH281424   2.793   1.416   6.327 -0.4353  0.3122 -0.3471
19978TIP3    H181425   2.768   1.493   6.276 -2.7547 -0.5635 -0.5901
19978TIP3    H281426   2.807   1.448   6.416  0.6731  1.3564 -0.8979
19979TIP3   OH281427   2.733   0.984   4.571 -0.4995  0.0998  0.3724
19979TIP3    H181428   2.773   1.071   4.567  0.5874 -0.3750  0.8836
19979TIP3    H281429   2.716   0.961   4.479  2.1427 -0.4938  0.0014
19980TIP3   OH281430   0.808   5.984  16.005 -0.2903 -0.1287 -0.3763
19980TIP3    H181431   0.819   6.028  15.921  1.5733  0.5638  0.2149
19980TIP3    H281432   0.779   6.054  16.065  1.6909  0.1120  0.3288
19981TIP3   OH281433   4.615   4.436   3.034  0.3168 -0.2240  0.2954
19981TIP3    H181434   4.625   4.385   3.114 -0.0357 -0.8051 -0.0244
19981TIP3    H281435   4.574   4.518   3.062 -1.4331 -1.1406  0.4704
19982TIP3   OH281436   2.828   1.787   1.021 -0.2037  0.1954 -0.4692
19982TIP3    H181437   2.819   1.743   1.106  1.9883  1.9031  0.6937
19982TIP3    H281438   2.866   1.720   0.964  0.9339 -0.1329  0.6453
19983TIP3   OH281439   0.648   2.414   2.078  0.7446  0.1681 -0.5541
19983TIP3    H181440   0.701   2.486   2.044 -0.4569  0.2466 -2.2855
19983TIP3    H281441   0.647   2.349   2.007  0.6941 -0.9708  0.4694
19984TIP3   OH281442   2.703   4.352   2.555 -0.2746 -0.2052  0.0100
19984TIP3    H181443   2.761   4.277   2.566  0.8758  0.6834  0.1972
19984TIP3    H281444   2.667   4.342   2.467  0.0832 -0.8363 -0.0634
19985TIP3   OH281445   2.190   5.803  14.361 -0.1110  0.4436  0.4929
19985TIP3    H181446   2.213   5.838  14.276  1.3930  0.5831  0.9483
19985TIP3    H281447   2.097   5.825  14.372 -0.4289  0.0424 -1.2770
19986TIP3   OH281448   2.607   5.455   3.226  1.1531 -0.1808  0.2428
19986TIP3    H181449   2.580   5.542   3.255 -2.5403 -0.9385 -0.5501
19986TIP3    H281450   2.653   5.470   3.144 -0.9005  0.9785 -0.7485
19987TIP3   OH281451   3.278   5.671   5.637  0.9110 -0.2542  0.6648
19987TIP3    H181452   3.335   5.696   5.564 -2.2700 -1.2325 -2.3044
19987TIP3    H281453   3.291   5.577   5.648 -0.9660 -0.7182 -0.8564
19988TIP3   OH281454   5.761   2.079  15.370 -0.2207 -0.0072 -0.3222
19988TIP3    H181455   5.684   2.102  15.318 -0.6413 -0.7166 -0.0016
19988TIP3    H281456   5.751   2.129  15.451 -0.9377 -1.0150  0.2111
19989TIP3   OH281457   4.995   2.394  17.125  0.1854 -0.3232 -0.4365
19989TIP3    H181458   5.012   2.488  17.115 -1.6325  0.2461  1.5023
19989TIP3    H281459   4.994   2.380  17.219  0.7163 -2.3791 -0.7107
19990TIP3   OH281460   2.483   4.709  12.275 -0.5778  0.2903 -0.9439
19990TIP3    H181461   2.460   4.776  12.211 -2.3494  0.0419 -0.6013
19990TIP3    H281462   2.453   4.627  12.236 -0.4981 -0.0161 -0.3648
19991TIP3   OH281463   0.154   4.194   3.660  0.1068 -0.2690  0.6334
19991TIP3    H181464   0.182   4.103   3.663 -2.4380 -1.1437 -0.7915
19991TIP3    H281465   0.092   4.198   3.587 -0.7075  2.3389  1.3976
19992TIP3   OH281466   0.541   6.126  16.953 -0.2625  0.8153  0.5932
19992TIP3    H181467   0.555   6.198  16.892 -0.7495  0.4447  0.0294
19992TIP3    H281468   0.489   6.063  16.903 -2.4495  1.3988  2.0676
19993TIP3   OH281469   5.307   4.566  12.066 -0.2642  0.0834 -0.6570
19993TIP3    H181470   5.403   4.573  12.073 -0.3058  0.4789 -0.4763
19993TIP3    H281471   5.289   4.475  12.089 -0.1108  0.5347  1.4378
19994TIP3   OH281472   2.344   0.279   2.774  0.1417  0.4686  0.2388
19994TIP3    H181473   2.346   0.362   2.727 -0.3855  0.2422 -0.1837
19994TIP3    H281474   2.433   0.244   2.765 -0.8192 -1.2398 -3.5811
19995TIP3   OH281475   4.221   2.079   1.330  0.3460  0.5812  0.5615
19995TIP3    H181476   4.149   2.072   1.267  1.3154  0.4342 -0.5542
19995TIP3    H281477   4.183   2.050   1.413 -0.9387  0.7104  0.0325
19996TIP3   OH281478   1.853   3.130  14.880 -0.1228 -0.1456 -0.1210
19996TIP3    H181479   1.928   3.074  14.900 -2.0156 -2.5345  0.5058
19996TIP3    H281480   1.786   3.069  14.849 -1.7875  1.9540 -0.7004
19997TIP3   OH281481   0.348   0.797  14.433  0.4374 -0.6764  0.0641
19997TIP3    H181482   0.319   0.706  14.429  0.6690 -0.7841  0.7521
19997TIP3    H281483   0.299   0.841  14.364 -2.1026 -0.6595  1.8337
19998TIP3   OH281484   4.047   5.220   0.309 -0.3304  0.0046  0.4195
19998TIP3    H181485   4.017   5.202   0.220 -1.3680  0.7401  0.6002
19998TIP3    H281486   3.966   5.234   0.358  0.2946  1.3462  1.0895
19999TIP3   OH281487   4.937   2.729  16.455 -0.1275 -0.2879 -0.4354
19999TIP3    H181488   4.909   2.802  16.400  1.2832 -0.6540 -1.6753
19999TIP3    H281489   4.952   2.768  16.541 -2.1313  0.3348 -0.3323
20000TIP3   OH281490   4.363   1.253  17.282 -0.3312 -0.3363  0.0701
20000TIP3    H181491   4.339   1.169  17.322  1.4237  0.0287  1.9572
20000TIP3    H281492   4.413   1.229  17.204 -1.8399 -1.0455 -0.6936
20001TIP3   OH281493   2.819   0.455   0.300  0.3581 -0.3827  0.3407
20001TIP3    H181494   2.819   0.550   0.288  0.4097 -0.5137 -0.7444
20001TIP3    H281495   2.778   0.442   0.386 -0.4248  0.5826  0.1275
20002TIP3   OH281496   5.285   6.658   4.519 -0.2427 -0.6880 -0.3690
20002TIP3    H181497   5.301   6.584   4.577 -0.6158  0.5996  1.4368
20002TIP3    H281498   5.277   6.733   4.578 -1.1989  0.5728 -2.0517
20003TIP3   OH281499   6.783   4.420  16.232 -0.6870  0.0473 -0.6538
20003TIP3    H181500   6.846   4.349  16.241 -0.9962 -0.1280  0.1352
20003TIP3    H281501   6.749   4.411  16.143 -2.5253 -2.2867  0.2507
20004TIP3   OH281502   6.211   1.205   5.157  0.4441 -0.5242  0.5916
20004TIP3    H181503   6.133   1.150   5.146 -0.0220 -0.3801  2.9839
20004TIP3    H281504   6.231   1.235   5.068 -1.3249 -1.7875 -0.2745
20005TIP3   OH281505   6.212   0.155   2.433  0.3136 -0.2817 -0.2637
20005TIP3    H181506   6.145   0.203   2.384 -0.7434  0.8968  2.2104
20005TIP3    H281507   6.235   0.081   2.377 -2.7501 -0.4595 -1.3905
20006TIP3   OH281508   2.016   0.768  12.462 -0.4713  0.2428 -0.4246
20006TIP3    H181509   2.088   0.704  12.459  0.9081  1.6644  0.9365
20006TIP3    H281510   1.950   0.728  12.519  0.2081 -0.1707  0.0815
20007TIP3   OH281511   0.338   5.819   0.495 -0.7004  0.1293  0.5157
20007TIP3    H181512   0.304   5.881   0.430 -0.6543 -0.0236  0.3438
20007TIP3    H281513   0.260   5.774   0.528 -0.7344  0.2846  0.6465
20008TIP3   OH281514   1.099   3.624   0.837 -0.1948  0.3201  0.2210
20008TIP3    H181515   1.127   3.532   0.830  0.0083  0.3291  0.8125
20008TIP3    H281516   1.048   3.640   0.758 -0.1403 -0.2747  0.0608
20009TIP3   OH281517   4.274   4.288  15.059 -0.9074  0.5191 -0.3455
20009TIP3    H181518   4.240   4.328  14.979  1.9976 -1.0573 -2.4386
20009TIP3    H281519   4.279   4.194  15.040  1.9743  0.3771  0.8417
20010TIP3   OH281520   3.593   2.341   4.415 -0.4229  0.2646  0.1837
20010TIP3    H181521   3.548   2.322   4.333  0.4221  0.0035 -0.2224
20010TIP3    H281522   3.575   2.265   4.471 -0.0622 -0.0806 -0.1630
20011TIP3   OH281523   4.916   5.513  11.374 -0.1609  0.0808 -0.0998
20011TIP3    H181524   4.904   5.558  11.457 -0.5831  0.4103 -0.3328
20011TIP3    H281525   5.010   5.502  11.364 -0.0797  0.6218  0.1122
20012TIP3   OH281526   5.529   2.262   4.229 -0.6838 -0.7929 -0.1078
20012TIP3    H181527   5.613   2.263   4.184 -0.0316  0.0660  1.0952
20012TIP3    H281528   5.468   2.302   4.167  0.6571  2.4814  0.5948
20013TIP3   OH281529   2.824   5.470   1.964 -0.0122  0.2597 -0.2752
20013TIP3    H181530   2.733   5.496   1.977  0.4281  1.6335  0.0720
20013TIP3    H281531   2.861   5.466   2.053  0.3180 -0.1515 -0.4260
20014TIP3   OH281532   4.487   5.577   6.011  0.1955 -0.3701  0.2756
20014TIP3    H181533   4.509   5.531   5.930  0.2130  1.4928 -0.7942
20014TIP3    H281534   4.565   5.628   6.032 -0.7196  1.1438  0.0553
20015TIP3   OH281535   1.572   2.460   3.055 -0.4394 -0.6085  0.8961
20015TIP3    H181536   1.619   2.443   2.972 -1.4340 -0.5895  0.3230
20015TIP3    H281537   1.528   2.377   3.074  0.6116 -0.9281  1.9472
20016TIP3   OH281538   1.794   2.270   4.827 -0.1769 -0.2825 -0.0567
20016TIP3    H181539   1.870   2.327   4.821  0.0292 -0.7269 -1.8655
20016TIP3    H281540   1.746   2.302   4.903  0.0182  2.1967 -0.9323
20017TIP3   OH281541   6.324   4.903  15.538 -0.1878  0.5523  0.3383
20017TIP3    H181542   6.391   4.835  15.530 -0.2239  0.6990 -1.5428
20017TIP3    H281543   6.348   4.952  15.617  2.3720  1.0644 -0.6937
20018TIP3   OH281544   0.379   3.323  13.649  0.3297 -0.4909  0.3341
20018TIP3    H181545   0.386   3.291  13.739 -0.1426 -0.3061  0.4436
20018TIP3    H281546   0.407   3.414  13.654  0.1060 -0.4209  0.3370
20019TIP3   OH281547   6.306   5.918   0.841 -0.0365 -0.2619  0.3585
20019TIP3    H181548   6.286   5.984   0.774  2.0002  1.3159  1.2550
20019TIP3    H281549   6.227   5.865   0.846 -1.5922  1.8553 -0.7024
20020TIP3   OH281550   0.797   4.580   5.658 -0.5434 -0.2417  0.5558
20020TIP3    H181551   0.869   4.590   5.597 -0.2224 -0.0911  0.9534
20020TIP3    H281552   0.800   4.488   5.685  0.0221 -0.0327  1.2104
20021TIP3   OH281553   6.660   2.357   0.459 -0.1320 -0.4959  0.1142
20021TIP3    H181554   6.716   2.430   0.434 -2.2237  1.8928  1.9858
20021TIP3    H281555   6.638   2.375   0.551 -2.3301 -2.3805  0.0076
20022TIP3   OH281556   6.067   0.199  12.222 -0.4731  0.0449  0.0915
20022TIP3    H181557   6.039   0.271  12.166 -0.8109 -1.1252 -1.2797
20022TIP3    H281558   6.058   0.232  12.311  1.4194  2.4516 -0.5547
20023TIP3   OH281559   6.150   2.653   6.139  0.1479  0.2548  0.4612
20023TIP3    H181560   6.199   2.672   6.218  0.4989  2.0859 -0.1917
20023TIP3    H281561   6.103   2.734   6.118 -0.2252 -0.3074 -1.0044
20024TIP3   OH281562   0.667   3.750   2.095 -0.0587  0.4515  0.1680
20024TIP3    H181563   0.696   3.841   2.108  1.0484 -0.1132  1.8788
20024TIP3    H281564   0.747   3.701   2.080 -0.6078 -0.3393 -0.2278
20025TIP3   OH281565   6.211   0.836   5.409  0.0375  0.1623 -0.3945
20025TIP3    H181566   6.257   0.906   5.362  0.0925 -0.1111 -0.7454
20025TIP3    H281567   6.229   0.757   5.359  0.0449 -0.1222  0.0521
20026TIP3   OH281568   2.214   5.764  13.781  0.2127  0.0123 -0.1215
20026TIP3    H181569   2.122   5.748  13.758  0.0366  0.6757  0.1024
20026TIP3    H281570   2.226   5.858  13.768  0.5312  0.1398  1.0102
20027TIP3   OH281571   3.978   4.675  12.421 -0.4508  0.1125  0.4080
20027TIP3    H181572   3.920   4.603  12.447 -1.0498  0.2491 -0.5187
20027TIP3    H281573   3.921   4.751  12.418 -0.1482  0.3190 -0.1615
20028TIP3   OH281574   3.060   5.643  14.481 -0.1398  0.1213  0.3797
20028TIP3    H181575   3.120   5.571  14.461 -0.2179 -0.1701  1.1741
20028TIP3    H281576   2.983   5.626  14.427  0.1957  0.0857 -0.0865
20029TIP3   OH281577   3.773   1.597  11.921  0.2020  1.3410  0.5151
20029TIP3    H181578   3.865   1.612  11.901  0.9200 -0.3986  2.2731
20029TIP3    H281579   3.738   1.555  11.842  1.3536  0.5023  0.4302
20030TIP3   OH281580   3.070   6.678  12.902 -0.1271  0.2332 -0.1990
20030TIP3    H181581   3.120   6.666  12.983  0.3089 -0.7116 -0.5957
20030TIP3    H281582   3.048   6.771  12.901  0.4504  0.3888  0.6612
20031TIP3   OH281583   6.381   2.177   0.783 -0.0593  0.0930 -0.1042
20031TIP3    H181584   6.445   2.145   0.720  0.7052 -0.7740  1.1004
20031TIP3    H281585   6.309   2.114   0.778 -0.2067  0.2862 -0.4397
20032TIP3   OH281586   5.916   3.459  16.985  0.1347 -0.5655 -0.0867
20032TIP3    H181587   5.876   3.414  17.060 -0.1930  1.4539  0.9621
20032TIP3    H281588   5.848   3.516  16.952  1.1548  0.5900 -0.2251
20033TIP3   OH281589   5.150   1.555   3.572 -0.3559 -0.5532 -0.0811
20033TIP3    H181590   5.125   1.561   3.480  0.6857 -0.9121 -0.4033
20033TIP3    H281591   5.237   1.595   3.576 -0.3498 -0.6313  0.7254
20034TIP3   OH281592   3.290   0.485   0.068  0.2310  0.3011  0.2363
20034TIP3    H181593   3.341   0.559   0.103 -0.1294  0.1781  1.0290
20034TIP3    H281594   3.219   0.527   0.019  0.1324  0.4891  0.5318
20035TIP3   OH281595   5.596   3.004   5.843  0.6355  0.3904  0.2043
20035TIP3    H181596   5.643   2.930   5.881 -0.3856 -0.9394 -1.0779
20035TIP3    H281597   5.558   3.050   5.918  1.5941 -0.1458  1.0292
20036TIP3   OH281598   5.677   4.556  12.800  0.3222 -0.2863  0.2329
20036TIP3    H181599   5.678   4.477  12.746  1.2407 -0.3506  0.3353
20036TIP3    H281600   5.710   4.527  12.885  1.0682  0.2934  0.1449
20037TIP3   OH281601   3.754   5.935   0.860  0.3847 -0.4097  0.5846
20037TIP3    H181602   3.825   5.873   0.875 -0.9646 -1.7918  1.4466
20037TIP3    H281603   3.744   5.938   0.765  1.2865 -0.5405  0.4802
20038TIP3   OH281604   6.726   1.582   0.364 -0.6135 -0.3031  0.6607
20038TIP3    H181605   6.790   1.515   0.389  0.2993  1.0023  1.9215
20038TIP3    H281606   6.674   1.596   0.443 -2.7292 -1.6368 -0.4824
20039TIP3   OH281607   1.734   1.049   4.076 -0.1166 -0.0368 -0.1868
20039TIP3    H181608   1.755   1.141   4.096 -0.6768 -0.4336  2.4086
20039TIP3    H281609   1.750   1.003   4.158 -4.1726 -1.5574 -0.1537
20040TIP3   OH281610   2.377   5.380   5.868  0.1530  0.3649  0.2131
20040TIP3    H181611   2.307   5.346   5.925 -0.0353  0.0358 -0.2188
20040TIP3    H281612   2.331   5.432   5.803  0.4247  1.2974  0.7586
20041TIP3   OH281613   1.826   4.136   5.854 -0.0266 -0.1428 -0.7176
20041TIP3    H181614   1.882   4.204   5.891  0.1541 -0.7875  0.1951
20041TIP3    H281615   1.850   4.134   5.761  2.8570 -1.7311 -0.0051
20042TIP3   OH281616   0.275   6.491  12.487  0.4104  0.1484  0.3003
20042TIP3    H181617   0.293   6.398  12.495  1.2543  0.2856  0.0734
20042TIP3    H281618   0.247   6.503  12.397  0.3681  0.1245  0.3103
20043TIP3   OH281619   5.621   6.746   0.187 -0.9812  0.1497  0.2219
20043TIP3    H181620   5.694   6.769   0.243 -1.6781  0.4886  1.0029
20043TIP3    H281621   5.642   6.659   0.153  0.7192  1.0529 -1.1429
20044TIP3   OH281622   6.810   4.997   0.053  0.3268 -0.2911 -0.6114
20044TIP3    H181623   6.905   5.007   0.058  0.0849  2.1316 -0.1881
20044TIP3    H281624   6.780   5.010   0.143 -0.4414 -0.5954 -0.8235
20045TIP3   OH281625   5.711   4.281   2.653 -0.5201 -0.5158 -0.1985
20045TIP3    H181626   5.782   4.249   2.598 -1.3218 -2.2440 -0.2415
20045TIP3    H281627   5.752   4.348   2.708  0.8756 -0.6701 -1.0407
20046TIP3   OH281628   5.644   0.349  11.828 -0.3252  0.4883 -0.0310
20046TIP3    H181629   5.703   0.423  11.815 -0.0102 -0.0452 -1.8171
20046TIP3    H281630   5.673   0.283  11.765 -2.5851  0.0763 -0.7059
20047TIP3   OH281631   5.671   1.808   2.510  0.7793 -0.4374 -0.1287
20047TIP3    H181632   5.648   1.794   2.602 -0.1522  0.0019 -0.2920
20047TIP3    H281633   5.761   1.842   2.513  1.0236 -1.1324  0.5720
20048TIP3   OH281634   2.423   2.600  16.465 -0.2027 -0.5992 -0.2229
20048TIP3    H181635   2.436   2.656  16.542 -1.6615  0.3903 -0.6853
20048TIP3    H281636   2.463   2.517  16.489 -1.1687 -0.4873  1.8389
20049TIP3   OH281637   3.025   6.136   3.986 -0.2792 -0.6448  0.6128
20049TIP3    H181638   3.071   6.063   3.944  0.4652  0.1755 -0.0121
20049TIP3    H281639   3.047   6.212   3.932 -1.8176 -0.1220  0.7182
20050TIP3   OH281640   2.020   2.215  17.103 -0.1941  0.6220 -0.3758
20050TIP3    H181641   1.994   2.159  17.030 -2.1861  0.1821  0.6114
20050TIP3    H281642   2.115   2.217  17.100 -0.1484 -1.5124 -1.4210
20051TIP3   OH281643   1.306   5.199   4.375  0.0837 -0.0306  0.4194
20051TIP3    H181644   1.267   5.112   4.371 -0.1912  0.1278 -0.6539
20051TIP3    H281645   1.281   5.240   4.292  2.7793 -0.0450 -0.4620
20052TIP3   OH281646   3.653   0.718  13.121  0.1291 -0.1154  0.5112
20052TIP3    H181647   3.714   0.717  13.048  0.5011 -1.0902  0.8254
20052TIP3    H281648   3.600   0.639  13.109 -1.7540  1.2472 -0.3290
20053TIP3   OH281649   5.488   6.770   4.692 -0.0955 -0.4239  0.4639
20053TIP3    H181650   5.524   6.726   4.769 -0.6112  2.2159  2.2653
20053TIP3    H281651   5.562   6.781   4.633  0.8095 -0.2928  1.6218
20054TIP3   OH281652   3.232   3.680   6.524 -0.6855 -0.2781  0.7592
20054TIP3    H181653   3.243   3.659   6.432 -1.8813 -1.5448  0.8944
20054TIP3    H281654   3.217   3.774   6.526 -0.7403 -0.2615 -0.3357
20055TIP3   OH281655   5.587   0.974  13.195  0.4634  0.0306  0.2234
20055TIP3    H181656   5.665   0.982  13.140  1.7118  1.1897  2.0970
20055TIP3    H281657   5.548   1.062  13.193  0.3718  0.0081  0.9429
20056TIP3   OH281658   6.596   1.393   0.206 -0.7170  0.1312  0.3022
20056TIP3    H181659   6.683   1.383   0.166 -1.4987 -1.6173 -1.0092
20056TIP3    H281660   6.598   1.480   0.246  1.0090  0.8377 -1.2745
20057TIP3   OH281661   0.313   6.223  12.470  0.3853  0.3301 -0.2445
20057TIP3    H181662   0.401   6.193  12.492 -0.1420 -1.0339  0.0847
20057TIP3    H281663   0.262   6.209  12.550 -0.5787 -0.7364 -1.0238
20058TIP3   OH281664   2.653   3.085   6.282 -0.4657  0.7683  0.1558
20058TIP3    H181665   2.569   3.045   6.259 -0.7555  1.9354 -0.9101
20058TIP3    H281666   2.654   3.086   6.378 -1.7162  0.8215  0.1784
20059TIP3   OH281667   2.721   0.446  14.127 -0.2403  0.4058 -0.1188
20059TIP3    H181668   2.733   0.459  14.221  1.1160  0.7675 -0.3214
20059TIP3    H281669   2.627   0.432  14.116 -0.3895  0.1930  1.3081
20060TIP3   OH281670   5.433   0.102   4.935 -0.6541 -0.0012  0.1603
20060TIP3    H181671   5.398   0.065   4.854  0.5542 -0.5197 -0.1375
20060TIP3    H281672   5.411   0.195   4.931 -1.5026 -0.2166 -0.2773
20061TIP3   OH281673   1.763   5.655  12.720 -0.2178 -0.4703 -0.6573
20061TIP3    H181674   1.737   5.738  12.681 -0.6573  0.3763  1.4170
20061TIP3    H281675   1.698   5.592  12.687 -1.4288  0.5111 -0.1438
20062TIP3   OH281676   5.919   2.646   3.040  0.2895 -0.3183 -0.0981
20062TIP3    H181677   5.877   2.567   3.073 -1.3491  0.8722  0.7930
20062TIP3    H281678   5.887   2.654   2.950  1.8050 -1.5569 -0.7690
20063TIP3   OH281679   3.867   6.210  15.543 -0.1217 -0.5593 -0.3544
20063TIP3    H181680   3.845   6.145  15.609  0.4606 -0.8711 -0.4655
20063TIP3    H281681   3.803   6.197  15.474  0.4089 -1.4821 -0.6855
20064TIP3   OH281682   1.029   3.370  13.732 -0.0227  0.0307 -0.5092
20064TIP3    H181683   0.972   3.439  13.768  1.9440  2.0675 -1.1810
20064TIP3    H281684   0.976   3.329  13.664 -1.6844  0.0190  0.7541
20065TIP3   OH281685   6.675   5.999  12.673 -0.1910  0.1668  0.0465
20065TIP3    H181686   6.693   6.081  12.626  1.0968 -0.1289  0.0310
20065TIP3    H281687   6.696   5.930  12.610 -0.6944 -0.1976  0.2713
20066TIP3   OH281688   5.044   3.880   2.430  0.0318  0.4360 -0.2687
20066TIP3    H181689   4.997   3.799   2.412  2.0582 -0.4802 -1.6289
20066TIP3    H281690   5.018   3.939   2.360 -1.3523  0.9465  0.6545
20067TIP3   OH281691   6.007   3.710   0.738  0.1248 -0.7566 -0.3960
20067TIP3    H181692   6.084   3.678   0.785  0.9077  0.3918 -0.8769
20067TIP3    H281693   6.024   3.688   0.646 -0.0512 -0.4006 -0.5161
20068TIP3   OH281694   0.124   1.476  11.344  0.1893 -0.0796 -0.1068
20068TIP3    H181695   0.208   1.477  11.390  0.3864  2.1613 -0.4493
20068TIP3    H281696   0.146   1.446  11.256  0.6372  0.3929 -0.1602
20069TIP3   OH281697   6.449   4.497  14.807  0.1592 -0.4920  0.6192
20069TIP3    H181698   6.535   4.465  14.835 -0.2606 -1.1471  1.1760
20069TIP3    H281699   6.387   4.454  14.865 -0.5432  0.0934  0.3203
20070TIP3   OH281700   2.417   6.778   5.919  0.7680  1.0099 -0.2189
20070TIP3    H181701   2.363   6.699   5.921 -1.9334  2.7874 -0.5961
20070TIP3    H281702   2.437   6.795   6.011  0.9033  0.2149 -0.0901
20071TIP3   OH281703   4.626   5.624   6.531  0.1892  0.8794 -0.3660
20071TIP3    H181704   4.705   5.649   6.483  0.3566  1.3764  0.1577
20071TIP3    H281705   4.570   5.584   6.465  0.8058  0.6855 -0.7803
20072TIP3   OH281706   0.758   1.460   5.729  0.2234 -0.3758 -0.5897
20072TIP3    H181707   0.801   1.545   5.736 -1.0342  0.1193  1.7263
20072TIP3    H281708   0.827   1.401   5.700  1.7026  0.9770  0.0842
20073TIP3   OH281709   1.129   0.335  15.570  0.1150  0.0111 -0.4199
20073TIP3    H181710   1.152   0.258  15.623 -1.2787  0.2270  0.5155
20073TIP3    H281711   1.140   0.409  15.629 -1.8100  0.2218 -0.2891
20074TIP3   OH281712   4.429   6.533  16.905 -0.5252 -0.1411  0.0010
20074TIP3    H181713   4.477   6.500  16.981  0.1341  0.3838 -0.1820
20074TIP3    H281714   4.348   6.568  16.941 -1.0398 -1.5566  0.2495
20075TIP3   OH281715   1.468   4.891  12.779  0.2544 -0.4849 -0.3141
20075TIP3    H181716   1.424   4.864  12.859  0.7386 -1.3144 -0.3206
20075TIP3    H281717   1.440   4.827  12.713  0.3598 -0.1909 -0.6504
20076TIP3   OH281718   1.279   2.723  15.943 -0.2532  0.2484 -0.4891
20076TIP3    H181719   1.185   2.715  15.955 -0.5192  1.7372 -1.5201
20076TIP3    H281720   1.290   2.789  15.875  1.6446  3.0523  2.3991
20077TIP3   OH281721   4.507   1.440   5.696  0.8644  0.4154  0.6609
20077TIP3    H181722   4.456   1.374   5.742  0.7690 -0.6925 -0.9736
20077TIP3    H281723   4.443   1.485   5.640  1.6457 -1.0838 -1.5128
20078TIP3   OH281724   4.817   1.544  12.399 -0.1199  0.5551  1.2420
20078TIP3    H181725   4.888   1.483  12.379 -1.6779 -1.1297  0.6395
20078TIP3    H281726   4.740   1.488  12.409 -1.3524  2.3296  1.9747
20079TIP3   OH281727   2.938   5.433  12.092  0.0513 -0.1006 -1.1533
20079TIP3    H181728   2.905   5.517  12.060 -0.4526 -0.1519 -0.7642
20079TIP3    H281729   3.025   5.454  12.127 -0.6004  0.4988  0.1108
20080TIP3   OH281730   5.731   0.686  12.698 -0.0573 -0.5302 -0.1194
20080TIP3    H181731   5.672   0.701  12.624  0.5654  1.1039 -0.3161
20080TIP3    H281732   5.702   0.749  12.764  0.3866 -0.8999  0.4248
20081TIP3   OH281733   0.119   3.262   3.468 -0.1374  0.1585  0.0811
20081TIP3    H181734   0.208   3.235   3.442 -0.5523 -1.2939  0.0980
20081TIP3    H281735   0.079   3.181   3.499 -1.7729  0.6297 -0.7758
20082TIP3   OH281736   2.634   2.820   0.346 -0.4551 -0.0317 -0.9414
20082TIP3    H181737   2.697   2.749   0.331  0.0147  0.4219 -1.1253
20082TIP3    H281738   2.670   2.869   0.421 -0.4755  0.3559 -1.1841
20083TIP3   OH281739   6.460   4.800  16.340  0.1165  0.1934  0.6915
20083TIP3    H181740   6.533   4.801  16.278 -0.0660  0.0681  0.4753
20083TIP3    H281741   6.478   4.874  16.399  0.2877  0.3140  0.4869
20084TIP3   OH281742   6.369   3.774  14.949 -0.8824 -0.5839  0.1466
20084TIP3    H181743   6.284   3.815  14.935  0.0037  0.8910 -1.1412
20084TIP3    H281744   6.393   3.800  15.038 -0.9306  0.6500 -0.1829
20085TIP3   OH281745   0.504   3.848  14.913 -0.4452  0.1956 -0.1903
20085TIP3    H181746   0.499   3.767  14.963  1.1003  0.7942  0.9681
20085TIP3    H281747   0.567   3.829  14.843 -0.3945  0.2610 -0.1621
20086TIP3   OH281748   5.646   6.801  12.417 -1.2501  0.2934  0.8983
20086TIP3    H181749   5.639   6.849  12.500  0.6346 -1.5003  2.1177
20086TIP3    H281750   5.609   6.861  12.352 -1.6717  2.1967  2.8415
20087TIP3   OH281751   2.892   3.244  16.740  0.2129 -0.4146 -0.7608
20087TIP3    H181752   2.964   3.299  16.708 -0.3816  0.9269  0.1776
20087TIP3    H281753   2.928   3.155  16.741  2.0917  0.3397  0.3616
20088TIP3   OH281754   2.356   0.679  15.966 -0.0069  0.4743  0.5540
20088TIP3    H181755   2.417   0.750  15.984 -0.3563  0.4442  1.9014
20088TIP3    H281756   2.411   0.604  15.945  0.4004  0.5589  1.3441
20089TIP3   OH281757   0.573   0.485  11.704 -0.0125 -0.9053 -0.9265
20089TIP3    H181758   0.559   0.521  11.616  0.2788 -1.2944 -1.1335
20089TIP3    H281759   0.654   0.526  11.735 -0.1660 -0.6970 -0.8044
20090TIP3   OH281760   2.888   0.427  16.965 -0.5754  0.1386 -0.0997
20090TIP3    H181761   2.848   0.463  16.886  0.4258  2.4199  0.4133
20090TIP3    H281762   2.903   0.502  17.021  0.8030 -1.1796  1.3455
20091TIP3   OH281763   2.396   6.255  12.923  0.8157 -0.0574 -0.0389
20091TIP3    H181764   2.475   6.309  12.919  0.6384  0.0833 -1.6349
20091TIP3    H281765   2.408   6.188  12.856 -0.3827 -0.0806 -0.2438
20092TIP3   OH281766   3.917   0.463  17.163 -0.2350 -0.7531 -0.4709
20092TIP3    H181767   4.002   0.505  17.161 -0.6247  0.0374 -0.6863
20092TIP3    H281768   3.930   0.385  17.217  0.6666 -0.7470 -0.6745
20093TIP3   OH281769   4.028   0.260  11.395  0.1515  0.0091  0.1330
20093TIP3    H181770   4.051   0.324  11.462  0.2146  0.4096 -0.2737
20093TIP3    H281771   4.080   0.183  11.417  0.2439  0.1707  0.4890
20094TIP3   OH281772   0.606   4.891  11.139 -0.2105 -0.3936  0.4111
20094TIP3    H181773   0.536   4.946  11.104  0.2372 -0.1642 -0.1356
20094TIP3    H281774   0.622   4.825  11.072  1.3686  0.6812 -0.3151
20095TIP3   OH281775   6.080   1.188  14.745 -0.0457  0.0727 -0.0646
20095TIP3    H181776   6.073   1.126  14.817  1.7634  0.9900  0.9308
20095TIP3    H281777   5.991   1.197  14.713 -0.9591 -0.0551  2.3258
20096TIP3   OH281778   2.728   1.059   5.396  0.5145  0.2246 -0.1660
20096TIP3    H181779   2.794   1.116   5.358  1.0661 -0.1927  0.1534
20096TIP3    H281780   2.746   1.059   5.490  0.6480 -0.6287 -0.1837
20097TIP3   OH281781   5.210   3.310  15.233  0.4247  0.3971  0.7070
20097TIP3    H181782   5.255   3.289  15.152  1.3792  2.9301  0.5353
20097TIP3    H281783   5.155   3.386  15.211  1.2951  1.6146  2.5869
20098TIP3   OH281784   3.501   5.418  13.952  0.2125  0.0750 -0.0875
20098TIP3    H181785   3.442   5.488  13.981  0.5481  0.1329  0.4555
20098TIP3    H281786   3.560   5.462  13.891  0.0732  0.1454 -0.1732
20099TIP3   OH281787   0.578   4.252   1.785  0.2872 -0.2380 -0.0146
20099TIP3    H181788   0.673   4.251   1.795  0.0422  1.7306  3.1293
20099TIP3    H281789   0.562   4.322   1.721  0.9125  0.1026  0.1976
20100TIP3   OH281790   1.539   1.736  17.258  0.0596  0.5105 -0.1021
20100TIP3    H181791   1.534   1.737  17.354  0.0817  0.9324 -0.1065
20100TIP3    H281792   1.582   1.653  17.238  1.1100  0.9485  0.3100
20101TIP3   OH281793   5.974   2.971   1.597 -0.8122  0.3232 -0.1883
20101TIP3    H181794   5.925   3.042   1.555  0.5725 -0.0875 -2.6134
20101TIP3    H281795   5.911   2.899   1.602 -1.1674  0.5573 -1.1022
20102TIP3   OH281796   5.132   2.511   4.908  0.6040  0.1086 -0.4991
20102TIP3    H181797   5.207   2.491   4.852  1.7994 -0.0294  1.1039
20102TIP3    H281798   5.165   2.578   4.968 -0.2787 -0.6106  0.7947
20103TIP3   OH281799   4.665   0.841  10.884 -0.3085 -0.0080  0.0504
20103TIP3    H181800   4.723   0.802  10.950 -0.5120  1.2209  0.9706
20103TIP3    H281801   4.709   0.824  10.801  0.1214 -1.2744  0.5215
20104TIP3   OH281802   0.648   3.328  11.115 -0.4167  0.0245  0.0247
20104TIP3    H181803   0.621   3.264  11.050 -0.3509 -0.6800  0.6833
20104TIP3    H281804   0.590   3.403  11.101  1.0017  0.7527 -2.2589
20105TIP3   OH281805   3.637   5.980  13.126 -0.1807  0.3137 -0.0890
20105TIP3    H181806   3.705   5.992  13.192  0.5017  1.2292 -0.9381
20105TIP3    H281807   3.685   5.957  13.046 -0.8466  1.0585 -0.7200
20106TIP3   OH281808   5.845   3.433  11.562 -0.0217  0.8654 -0.1055
20106TIP3    H181809   5.824   3.499  11.497  0.1101  2.0203  1.0048
20106TIP3    H281810   5.941   3.430  11.564 -0.0156 -1.4372 -2.2087
20107TIP3   OH281811   5.253   3.916   3.404 -0.1916  0.2478  0.0588
20107TIP3    H181812   5.235   3.828   3.370  0.4994  0.6429 -1.3709
20107TIP3    H281813   5.321   3.903   3.470 -1.0407 -0.4548  0.7886
20108TIP3   OH281814   4.260   2.414   3.440  0.1540 -1.0328 -0.1150
20108TIP3    H181815   4.178   2.464   3.429  0.5320  0.0383  1.7907
20108TIP3    H281816   4.320   2.453   3.377 -0.0263 -0.1020  0.2834
20109TIP3   OH281817   0.187   3.714  11.029 -0.7676  0.6579  0.0164
20109TIP3    H181818   0.242   3.742  10.956  2.0267  0.9364  2.1396
20109TIP3    H281819   0.172   3.621  11.014 -0.4700  0.7834 -1.0682
20110TIP3   OH281820   4.971   5.454   4.533  0.2656  0.1530 -0.5052
20110TIP3    H181821   4.885   5.493   4.551  0.1580  0.1334 -0.9720
20110TIP3    H281822   5.031   5.529   4.533  0.5319 -0.0354  1.5577
20111TIP3   OH281823   6.065   2.615   1.684 -0.2679 -0.3956 -0.1042
20111TIP3    H181824   6.022   2.621   1.599 -0.2807  1.0688  0.0032
20111TIP3    H281825   5.994   2.614   1.747 -0.1676  2.1430  0.0800
20112TIP3   OH281826   3.178   3.862  13.587  0.1261 -0.0363 -0.0046
20112TIP3    H181827   3.255   3.917  13.569  0.2149  0.0470  0.6151
20112TIP3    H281828   3.215   3.777  13.609  0.0247 -0.0852 -0.0252
20113TIP3   OH281829   4.855   5.443   1.639 -0.5859  0.3954 -0.2130
20113TIP3    H181830   4.944   5.438   1.605 -1.1872 -1.1838 -1.6001
20113TIP3    H281831   4.813   5.512   1.587 -1.0239 -0.8952 -1.6014
20114TIP3   OH281832   3.885   1.777   2.032  0.0148 -1.0236  0.0606
20114TIP3    H181833   3.873   1.692   2.074  0.0879 -1.2268 -0.3242
20114TIP3    H281834   3.818   1.781   1.964 -0.6595 -0.3332  0.7520
20115TIP3   OH281835   0.616   4.659  10.279 -0.5178  0.4110  0.7324
20115TIP3    H181836   0.622   4.566  10.301 -0.8089  0.1763 -0.1925
20115TIP3    H281837   0.541   4.690  10.329 -2.4586 -0.5879 -1.5251
20116TIP3   OH281838   6.509   4.903   3.394 -0.2395 -0.2467  0.0221
20116TIP3    H181839   6.556   4.979   3.358 -0.0063  0.0687  0.9831
20116TIP3    H281840   6.473   4.859   3.317  0.8032  0.0617 -0.6523
20117TIP3   OH281841   2.837   5.178   1.914 -0.2333 -0.6712  0.0561
20117TIP3    H181842   2.926   5.160   1.944 -1.0242  0.5093  3.3893
20117TIP3    H281843   2.842   5.265   1.874 -0.1169  0.0370  1.5603
20118TIP3   OH281844   4.116   4.755   4.675 -0.2177 -0.1481 -0.4567
20118TIP3    H181845   4.140   4.833   4.724  2.1177  0.5549 -2.6319
20118TIP3    H281846   4.188   4.693   4.692 -1.4494 -1.4061  0.2896
20119TIP3   OH281847   5.316   6.455  16.211 -0.2270  0.2319  0.0252
20119TIP3    H181848   5.355   6.542  16.212  0.1165  0.1069 -1.2962
20119TIP3    H281849   5.226   6.468  16.242  0.5744  0.6607  2.2248
20120TIP3   OH281850   1.238   6.218  13.029  0.0900  0.4905  0.3028
20120TIP3    H181851   1.327   6.244  13.007 -0.1768 -0.2857 -1.8126
20120TIP3    H281852   1.248   6.141  13.084  0.7110 -1.0534 -1.9264
20121TIP3   OH281853   2.254   3.688   1.846 -0.2566  0.0920  0.0021
20121TIP3    H181854   2.198   3.619   1.881  1.4217 -2.9086 -2.9054
20121TIP3    H281855   2.315   3.708   1.917 -3.3526  1.6475  2.3220
20122TIP3   OH281856   1.596   2.494   1.262 -0.1001  0.1647 -0.7527
20122TIP3    H181857   1.584   2.425   1.196 -0.2907 -0.1354 -0.4065
20122TIP3    H281858   1.686   2.525   1.248  1.6571 -3.3034  2.0107
20123TIP3   OH281859   4.156   5.660   5.663  0.2912  0.2195  0.4815
20123TIP3    H181860   4.095   5.626   5.728  0.6996 -0.1745  0.6584
20123TIP3    H281861   4.109   5.653   5.579  1.0091 -2.4248  0.2511
20124TIP3   OH281862   3.048   3.678   3.199  0.6558 -0.0453  0.0810
20124TIP3    H181863   3.028   3.766   3.168  0.9413  0.2206  0.6553
20124TIP3    H281864   3.091   3.690   3.284 -0.9435 -0.8194  1.0208
20125TIP3   OH281865   3.539   6.459   4.697  0.2247  0.3018 -0.2379
20125TIP3    H181866   3.455   6.433   4.733  0.1632 -0.9634 -1.2593
20125TIP3    H281867   3.554   6.399   4.623  1.7806  0.8235 -0.3781
20126TIP3   OH281868   1.166   1.815   0.481  0.3438  0.1800 -0.2233
20126TIP3    H181869   1.231   1.883   0.501 -0.9039  0.2263  4.1287
20126TIP3    H281870   1.100   1.859   0.428  2.5285  0.7629 -2.5473
20127TIP3   OH281871   4.477   0.572   0.171 -0.0617  0.0349 -0.7661
20127TIP3    H181872   4.491   0.493   0.118  0.5090 -0.4403  0.0760
20127TIP3    H281873   4.472   0.539   0.261  0.9217  1.0410 -0.3297
20128TIP3   OH281874   4.946   0.662   2.787  0.0773 -0.0209 -0.2517
20128TIP3    H181875   4.853   0.681   2.798  0.5928  1.3947  1.8887
20128TIP3    H281876   4.990   0.744   2.807  1.9121 -1.1923  0.6608
20129TIP3   OH281877   2.445   2.326  14.532 -0.8044  0.4450 -0.4316
20129TIP3    H181878   2.512   2.328  14.463  0.6465  0.3108  0.9478
20129TIP3    H281879   2.470   2.253  14.588 -2.2711  0.2234 -0.0371
20130TIP3   OH281880   5.066   2.209   3.729 -0.1390 -0.7029 -0.0508
20130TIP3    H181881   5.106   2.127   3.700 -1.1941 -0.6966 -1.6282
20130TIP3    H281882   5.026   2.188   3.813  1.4596 -1.2289  0.5867
20131TIP3   OH281883   1.458   1.721   0.875  0.1036  0.0846 -0.6839
20131TIP3    H181884   1.411   1.647   0.836  1.6663 -1.5375  0.4075
20131TIP3    H281885   1.417   1.731   0.961  0.1472  0.2407 -0.6832
20132TIP3   OH281886   1.772   2.222  12.814 -0.3690 -0.2002 -0.2786
20132TIP3    H181887   1.740   2.218  12.724  3.0187  3.7460 -1.8117
20132TIP3    H281888   1.846   2.161  12.816 -2.1753 -2.4304  0.7134
20133TIP3   OH281889   3.690   1.699  17.205  0.5778 -0.0543  0.4600
20133TIP3    H181890   3.668   1.608  17.223  0.4377 -0.4737 -1.6681
20133TIP3    H281891   3.784   1.699  17.188  0.1833 -0.2267 -1.8690
20134TIP3   OH281892   6.153   1.244   5.920 -0.1777  0.3007  0.0728
20134TIP3    H181893   6.141   1.152   5.942 -0.7200  0.8841  2.3258
20134TIP3    H281894   6.105   1.292   5.988  2.2950  2.2993  0.4924
20135TIP3   OH281895   4.310   0.920   3.712  0.3383  0.0130 -0.0321
20135TIP3    H181896   4.316   0.826   3.728 -2.0218 -0.2122 -0.2757
20135TIP3    H281897   4.400   0.952   3.722  1.2099 -2.2979 -0.2213
20136TIP3   OH281898   2.721   3.650  14.594  0.1614 -0.6512 -0.1087
20136TIP3    H181899   2.670   3.651  14.675  0.5736 -2.3531  0.1969
20136TIP3    H281900   2.750   3.740  14.582  0.9240 -0.5660  2.1808
20137TIP3   OH281901   5.603   2.570   1.963 -0.0205  0.5554 -0.2843
20137TIP3    H181902   5.534   2.605   1.906  0.3507  1.6135 -0.0886
20137TIP3    H281903   5.677   2.555   1.905  0.8426  2.9849  0.1293
20138TIP3   OH281904   1.979   2.251  12.235 -0.5502 -0.1266 -0.4138
20138TIP3    H181905   2.070   2.238  12.211 -1.0136 -0.3584 -2.1514
20138TIP3    H281906   1.967   2.199  12.314  1.1375  0.9458  0.5789
20139TIP3   OH281907   3.084   3.830  15.276  0.3489 -0.0438 -0.6609
20139TIP3    H181908   3.032   3.889  15.220  3.0064  1.4217 -1.6785
20139TIP3    H281909   3.047   3.842  15.363 -0.5606  1.5184 -1.2325
20140TIP3   OH281910   1.793   4.416  12.866 -0.1832  0.6210  0.0296
20140TIP3    H181911   1.711   4.367  12.872 -0.9524  1.9504  0.5009
20140TIP3    H281912   1.820   4.405  12.775 -0.7910  0.0093 -0.0827
20141TIP3   OH281913   2.896   0.610   1.238 -0.1485  0.1087 -0.1168
20141TIP3    H181914   2.922   0.702   1.244 -1.5456  0.4453  1.2217
20141TIP3    H281915   2.945   0.575   1.164  0.1746  2.0069 -0.8034
20142TIP3   OH281916   4.571   5.401  12.690  0.0603  0.2102  0.4022
20142TIP3    H181917   4.520   5.345  12.631 -0.3195 -0.0633  0.9820
20142TIP3    H281918   4.656   5.410  12.647  0.1307 -0.8313  0.2982
20143TIP3   OH281919   3.448   4.058  13.533  0.9930  0.1823 -0.2612
20143TIP3    H181920   3.498   3.981  13.506 -0.6463 -0.2677 -2.1498
20143TIP3    H281921   3.441   4.111  13.453  0.1251  1.1488  0.4445
20144TIP3   OH281922   1.032   3.915   4.831  0.0333  0.6020  0.0276
20144TIP3    H181923   1.116   3.952   4.805  0.2839  0.7230  0.9775
20144TIP3    H281924   0.997   3.875   4.752 -0.7407  3.7896 -1.3267
20145TIP3   OH281925   0.683   3.062  15.674 -0.0736 -0.1631 -0.2491
20145TIP3    H181926   0.644   3.073  15.587 -0.3791 -0.3543 -0.1328
20145TIP3    H281927   0.688   2.967  15.687 -1.3113 -0.1223  0.5338
20146TIP3   OH281928   4.651   4.677  11.836 -0.4693 -0.6997  0.4316
20146TIP3    H181929   4.579   4.738  11.852  0.2378  0.4003 -0.5184
20146TIP3    H281930   4.699   4.715  11.763  1.1445 -1.3603  1.1154
20147TIP3   OH281931   2.957   0.016   5.722 -0.4973  0.9054 -0.8533
20147TIP3    H181932   2.971  -0.069   5.680  2.6198  0.9578 -0.0031
20147TIP3    H281933   2.978   0.001   5.814 -0.3014  2.5199 -0.6220
20148TIP3   OH281934   6.547   3.751  15.541  0.6297  0.1655  0.2229
20148TIP3    H181935   6.514   3.838  15.564  0.6407  0.5586 -1.1985
20148TIP3    H281936   6.553   3.752  15.446  1.1797 -1.2017  0.2302
20149TIP3   OH281937   0.009   5.977  14.492  0.2348  0.5391  0.7333
20149TIP3    H181938  -0.043   5.989  14.572  1.3266 -0.2228  1.5653
20149TIP3    H281939   0.079   5.918  14.518  0.6450  0.3512 -0.7814
20150TIP3   OH281940   1.572   2.344  16.183 -0.8603 -0.7146 -0.2755
20150TIP3    H181941   1.597   2.412  16.120 -0.1993 -2.4709 -1.9537
20150TIP3    H281942   1.477   2.348  16.186 -0.9215 -0.7925 -1.6167
20151TIP3   OH281943   3.176   3.028   5.859  0.1124 -0.6317 -0.0851
20151TIP3    H181944   3.108   2.962   5.864  0.3663 -0.7291  2.4172
20151TIP3    H281945   3.227   3.018   5.939  1.0768  1.5911 -0.3585
20152TIP3   OH281946   2.833   4.019   1.598 -0.0335  0.1751 -0.7073
20152TIP3    H181947   2.925   4.008   1.574  0.3097  0.4453  0.4786
20152TIP3    H281948   2.785   3.994   1.519  1.0555  0.1000 -1.3557
20153TIP3   OH281949   5.333   0.407   0.998  0.4364  0.1773  0.1739
20153TIP3    H181950   5.288   0.341   0.945  1.7793 -1.7151  1.3339
20153TIP3    H281951   5.262   0.457   1.039 -0.6325 -2.0517  1.0975
20154TIP3   OH281952   4.969   6.248   4.332  0.0233  0.3132 -0.4182
20154TIP3    H181953   5.026   6.226   4.258 -0.3905  0.5163 -0.8065
20154TIP3    H281954   4.880   6.240   4.296 -0.1479  1.9732 -0.4054
20155TIP3   OH281955   4.637   3.810  11.454 -0.5231 -0.2240 -0.7435
20155TIP3    H181956   4.549   3.837  11.429 -0.7453 -1.2069 -1.0511
20155TIP3    H281957   4.651   3.850  11.540 -1.2403 -0.0079 -0.7293
20156TIP3   OH281958   4.162   1.225   4.955 -0.1860 -0.0548  0.0912
20156TIP3    H181959   4.156   1.142   5.002  0.1770 -0.2501 -0.2166
20156TIP3    H281960   4.073   1.240   4.922 -0.4934  0.1683  0.9749
20157TIP3   OH281961   0.125   0.556   3.720  0.3677  0.3879 -1.0669
20157TIP3    H181962   0.180   0.483   3.691  0.2607  0.5360 -1.6452
20157TIP3    H281963   0.166   0.633   3.682  0.2355  0.5859 -0.8046
20158TIP3   OH281964   0.008   2.614  12.382 -0.0057 -0.0730 -0.1858
20158TIP3    H181965   0.038   2.531  12.346 -1.9911 -0.9368  0.0736
20158TIP3    H281966   0.017   2.677  12.310  1.3191 -0.5517 -0.4350
20159TIP3   OH281967   5.446   5.168   2.292  0.1830 -0.4500  0.0110
20159TIP3    H181968   5.490   5.166   2.208 -1.2038 -1.4075 -0.7054
20159TIP3    H281969   5.509   5.129   2.353  1.0717 -0.0213 -0.6175
20160TIP3   OH281970   2.094   0.135   1.772 -0.1115 -0.5343 -0.5487
20160TIP3    H181971   2.046   0.094   1.843  2.0777 -0.6618  0.9113
20160TIP3    H281972   2.169   0.077   1.758  1.6264  1.5764 -0.2223
20161TIP3   OH281973   1.198   3.925   4.417 -0.5872  0.0103  0.2921
20161TIP3    H181974   1.224   3.923   4.509 -0.8627 -2.2904  0.3462
20161TIP3    H281975   1.198   3.833   4.390 -1.9844  0.5251 -1.5879
20162TIP3   OH281976   5.345   0.873   1.717 -0.9690  0.0048  0.3004
20162TIP3    H181977   5.416   0.879   1.780 -1.4795 -2.2952  1.1640
20162TIP3    H281978   5.284   0.810   1.755 -1.4877 -1.1388 -2.2717
20163TIP3   OH281979   3.738   2.433  12.049 -0.4708 -0.0778  0.0388
20163TIP3    H181980   3.732   2.525  12.021 -0.7694  0.1588  0.8511
20163TIP3    H281981   3.731   2.383  11.968 -0.8960  0.6007 -0.3544
20164TIP3   OH281982   6.517   2.146  11.901  0.0815 -0.2930  0.1555
20164TIP3    H181983   6.495   2.218  11.842  0.5956  1.0562  1.5750
20164TIP3    H281984   6.434   2.101  11.916 -0.2412 -0.0048 -0.7612
20165TIP3   OH281985   0.423   0.358  16.723 -0.5154 -0.0617 -0.2196
20165TIP3    H181986   0.383   0.391  16.804 -0.3618  0.6184 -0.4171
20165TIP3    H281987   0.354   0.365  16.658 -0.4502 -0.0247 -0.2850
20166TIP3   OH281988   3.814   2.893   1.312 -0.0892 -0.0441  0.6124
20166TIP3    H181989   3.819   2.801   1.337  0.5219 -0.3033 -0.4425
20166TIP3    H281990   3.784   2.892   1.222  0.9680  0.7376  0.2404
20167TIP3   OH281991   4.360   3.026  12.056  0.3552 -0.2563 -0.0251
20167TIP3    H181992   4.360   3.093  11.988  0.6987  1.0209  1.2212
20167TIP3    H281993   4.439   2.974  12.039  0.8225  0.4939 -0.1639
20168TIP3   OH281994   3.668   4.495  13.455 -0.5323  0.0612 -0.7042
20168TIP3    H181995   3.610   4.450  13.394  2.0075 -0.5535 -2.7939
20168TIP3    H281996   3.689   4.578  13.412  2.1704 -0.8558 -1.2565
20169TIP3   OH281997   6.399   0.679  13.200 -0.1125  0.2715  0.3586
20169TIP3    H181998   6.420   0.621  13.274  1.1699 -0.9548 -0.9318
20169TIP3    H281999   6.476   0.674  13.143 -1.8622 -0.3122 -2.0291
20170TIP3   OH282000   4.998   2.633   0.305 -0.0995 -0.4501  0.2151
20170TIP3    H182001   5.087   2.660   0.330 -0.2723 -0.8208  1.2599
20170TIP3    H282002   4.974   2.693   0.234  1.5738 -1.3234 -1.1389
20171TIP3   OH282003   4.390   6.636  11.029  0.2361 -0.1494  0.2023
20171TIP3    H182004   4.303   6.596  11.031 -0.4154  1.2370 -0.2066
20171TIP3    H282005   4.421   6.631  11.119 -0.3078 -0.5401  0.3683
20172TIP3   OH282006   6.484   2.662  14.096  0.5062  0.1345  0.4994
20172TIP3    H182007   6.540   2.652  14.018  1.2871 -0.1658  1.0878
20172TIP3    H282008   6.434   2.580  14.099  0.9778 -0.1510  0.6982
20173TIP3   OH282009   4.640   1.838  12.771  0.1166 -0.0619 -0.1500
20173TIP3    H182010   4.665   1.758  12.725  1.9478  1.4004 -1.7796
20173TIP3    H282011   4.616   1.900  12.701 -0.6403  1.0292  1.0468
20174TIP3   OH282012   0.229   1.698  15.628  0.3264  0.4481 -0.3290
20174TIP3    H182013   0.193   1.747  15.554 -1.5081  1.5063  1.2155
20174TIP3    H282014   0.205   1.607  15.611 -1.6277  0.9223 -0.1687
20175TIP3   OH282015   2.726   3.149   4.105 -0.2564 -0.5362 -0.6158
20175TIP3    H182016   2.815   3.151   4.140 -1.0643  1.1284  1.4862
20175TIP3    H282017   2.735   3.171   4.013  1.1607  3.6027  0.4328
20176TIP3   OH282018   0.657   1.270  17.193 -0.8118 -0.6317 -0.0856
20176TIP3    H182019   0.617   1.183  17.197  0.8193 -1.3965 -0.3576
20176TIP3    H282020   0.620   1.310  17.114 -0.5603 -1.5713 -0.6806
20177TIP3   OH282021   6.463   6.488   0.091 -0.3953  0.2725  0.2350
20177TIP3    H182022   6.514   6.569   0.098 -1.8787  1.2145  0.2953
20177TIP3    H282023   6.511   6.425   0.146  0.2259  1.3820  0.9820
20178TIP3   OH282024   3.064   4.379   0.457 -0.2689 -0.0933 -0.0851
20178TIP3    H182025   3.067   4.469   0.488  0.7055 -0.0271 -0.3593
20178TIP3    H282026   3.001   4.380   0.385  0.5022  0.5807 -0.7633
20179TIP3   OH282027   2.282   1.409   4.094  0.0943 -0.4413  0.7154
20179TIP3    H182028   2.342   1.480   4.118 -0.7807 -0.5175  3.2535
20179TIP3    H282029   2.300   1.393   4.001  0.6712  2.7257  0.2215
20180TIP3   OH282030   0.411   3.278   4.404 -0.3786 -0.1256 -0.2612
20180TIP3    H182031   0.481   3.291   4.340  0.9044 -2.2062  0.6529
20180TIP3    H282032   0.425   3.189   4.436 -2.6396 -0.0735  0.9436
20181TIP3   OH282033   3.175   2.325   6.405 -0.0044 -0.2914  0.2950
20181TIP3    H182034   3.234   2.385   6.359 -0.1268 -0.9006 -0.6674
20181TIP3    H282035   3.158   2.368   6.489 -0.0992  1.0141 -0.3824
20182TIP3   OH282036   5.990   1.630  13.614  0.2449 -0.4311 -0.3325
20182TIP3    H182037   6.059   1.656  13.554  0.1948 -2.8137 -1.4967
20182TIP3    H282038   6.026   1.554  13.661 -0.8619 -0.5029  0.4258
20183TIP3   OH282039   6.630   1.206  12.597  0.4784 -0.1680  0.0369
20183TIP3    H182040   6.606   1.299  12.597 -1.7020 -0.6733 -1.8572
20183TIP3    H282041   6.590   1.171  12.676  0.6371  0.3679  0.3544
20184TIP3   OH282042   4.621   6.784  16.980  0.0061 -0.0473 -0.1326
20184TIP3    H182043   4.552   6.814  17.040  1.6650 -0.1509  1.8681
20184TIP3    H282044   4.692   6.846  16.993  1.1819 -1.3216 -0.4394
20185TIP3   OH282045   5.596   4.499   6.553  0.3667  0.2892  0.1699
20185TIP3    H182046   5.595   4.515   6.459 -0.8702  3.6090  0.6868
20185TIP3    H282047   5.665   4.556   6.587 -0.3448  0.4178  1.4471
20186TIP3   OH282048   3.055   0.882   4.846 -0.1539  0.1460  0.0786
20186TIP3    H182049   3.037   0.884   4.752 -1.4011 -1.1966  0.2644
20186TIP3    H282050   3.150   0.889   4.852  0.0499 -1.0176 -1.3500
20187TIP3   OH282051   2.825   5.378   4.618 -0.7382  0.3242 -0.2583
20187TIP3    H182052   2.904   5.328   4.599 -0.3630  1.8672 -3.0860
20187TIP3    H282053   2.754   5.316   4.609 -0.1092 -0.2427 -1.3725
20188TIP3   OH282054   5.357   5.704  11.391  0.9181 -0.3231  0.0667
20188TIP3    H182055   5.347   5.629  11.449  2.9931 -1.1955 -0.6425
20188TIP3    H282056   5.343   5.669  11.303 -0.6245  0.6596 -0.0950
20189TIP3   OH282057   1.969   6.643   2.558 -0.1661 -0.5649  0.2021
20189TIP3    H182058   1.883   6.636   2.515 -0.2211 -0.4356  0.2905
20189TIP3    H282059   2.029   6.601   2.497 -0.0862  0.4653 -0.4586
20190TIP3   OH282060   1.045   0.329   0.529  0.2859 -0.0862 -0.0277
20190TIP3    H182061   1.047   0.322   0.624 -0.5373  0.0897  0.0071
20190TIP3    H282062   1.137   0.330   0.503  0.5132 -0.1484  0.7641
20191TIP3   OH282063   0.737   5.125   2.719 -0.3936  0.1050  0.1466
20191TIP3    H182064   0.737   5.154   2.811 -1.7382 -0.2816  0.2832
20191TIP3    H282065   0.797   5.050   2.718 -2.2012 -1.4227  1.2420
20192TIP3   OH282066   6.121   4.221   2.417 -0.5196  0.5575 -0.7053
20192TIP3    H182067   6.030   4.192   2.416 -0.5079  0.5257 -1.0946
20192TIP3    H282068   6.135   4.260   2.330 -0.0394  0.1558 -0.8136
20193TIP3   OH282069   1.181   3.232  14.291  0.0170  0.3340 -0.2014
20193TIP3    H182070   1.223   3.247  14.376  0.2085  0.0731 -0.2477
20193TIP3    H282071   1.129   3.311  14.275  0.0699  0.4319  0.1055
20194TIP3   OH282072   1.892   4.155   0.610  0.6635  0.1205  0.3576
20194TIP3    H182073   1.948   4.193   0.677  1.3627 -0.0220 -0.1395
20194TIP3    H282074   1.951   4.134   0.538  0.0354 -0.4218 -0.0082
20195TIP3   OH282075   0.726   2.841  12.186  0.6490 -0.5046 -0.0599
20195TIP3    H182076   0.656   2.797  12.138  0.7781  0.3528 -1.0586
20195TIP3    H282077   0.805   2.823  12.135  0.5821  1.5261 -0.9568
20196TIP3   OH282078   2.146   0.580  16.483 -0.0958 -0.0741 -0.4152
20196TIP3    H182079   2.126   0.670  16.456 -1.4100 -0.7968 -1.9636
20196TIP3    H282080   2.062   0.535  16.479  0.7896 -1.7186 -1.0770
20197TIP3   OH282081   4.500   0.883   4.358  0.0350  0.1159 -0.0595
20197TIP3    H182082   4.592   0.859   4.349  0.1871 -0.2330  2.1409
20197TIP3    H282083   4.489   0.904   4.451 -2.2265 -0.4380 -0.1518
20198TIP3   OH282084   0.126   5.315  12.715 -0.2786  0.3602  0.3705
20198TIP3    H182085   0.057   5.319  12.648  0.5614  0.3028 -0.5205
20198TIP3    H282086   0.097   5.375  12.783  0.4056  2.9457 -1.5553
20199TIP3   OH282087   2.644   5.054   6.279  0.6123 -0.1185 -0.5933
20199TIP3    H182088   2.623   5.092   6.193  0.5766  0.2035 -0.4424
20199TIP3    H282089   2.731   5.088   6.300  1.0929 -1.0867 -1.0053
20200TIP3   OH282090   5.389   3.667  14.086 -0.6496  0.0050 -0.1202
20200TIP3    H182091   5.367   3.736  14.149  0.9961 -0.0660  0.5379
20200TIP3    H282092   5.307   3.617  14.076 -1.1053  0.4168  1.4417
20201TIP3   OH282093   1.219   3.994   3.897  0.3503 -0.1847 -0.3397
20201TIP3    H182094   1.310   3.973   3.874 -0.1435 -2.5004 -0.2836
20201TIP3    H282095   1.177   4.013   3.813  0.5171 -0.6193 -0.5247
20202TIP3   OH282096   6.478   4.438  15.953  0.1460 -0.2894 -0.0497
20202TIP3    H182097   6.420   4.466  16.024  0.2043  1.2727 -0.5974
20202TIP3    H282098   6.455   4.496  15.879 -1.2564 -3.1192 -1.9257
20203TIP3   OH282099   1.252   3.594   0.010 -0.5076  0.2358  0.0203
20203TIP3    H182100   1.259   3.543  -0.071 -1.5544 -0.5831  0.4307
20203TIP3    H282101   1.172   3.646  -0.001 -0.9439 -0.2739  0.7406
20204TIP3   OH282102   5.678   3.348  15.870 -0.3401 -0.1177  0.3551
20204TIP3    H182103   5.591   3.330  15.836  0.2551 -1.3443 -0.5370
20204TIP3    H282104   5.736   3.288  15.823  0.9879  0.6642  0.9512
20205TIP3   OH282105   4.554   0.426  11.584 -0.0569 -0.0270 -0.0463
20205TIP3    H182106   4.466   0.389  11.592  0.4725 -1.3103 -0.0446
20205TIP3    H282107   4.611   0.359  11.621  1.0461  0.2462 -1.2222
20206TIP3   OH282108   4.303   5.557   5.314 -0.2518 -0.4606 -0.3920
20206TIP3    H182109   4.287   5.646   5.283 -1.1720 -0.3583  0.3420
20206TIP3    H282110   4.380   5.528   5.265 -1.1655 -0.0160 -2.1352
20207TIP3   OH282111   2.730   3.920  16.239 -0.6336  0.3028 -0.5758
20207TIP3    H182112   2.779   3.838  16.240  0.2068  0.7982 -0.2574
20207TIP3    H282113   2.645   3.899  16.278 -0.5789 -0.5070 -0.8932
20208TIP3   OH282114   6.154   5.353  16.011 -0.2297  0.1966  0.4164
20208TIP3    H182115   6.087   5.311  16.065 -1.0717 -0.0709 -0.7960
20208TIP3    H282116   6.218   5.386  16.073 -2.3147  1.9175  1.7382
20209TIP3   OH282117   6.221   4.153   1.180 -0.4172 -0.2310 -0.7581
20209TIP3    H182118   6.300   4.136   1.232 -0.0752  1.7060 -0.6251
20209TIP3    H282119   6.182   4.066   1.167  2.1848 -1.3165 -1.5602
20210TIP3   OH282120   4.411   1.346   4.687  0.1587 -0.5017 -0.0728
20210TIP3    H182121   4.481   1.284   4.666  0.7656  0.2290 -0.2473
20210TIP3    H282122   4.424   1.418   4.625 -0.9273 -0.4918 -0.2906
20211TIP3   OH282123   2.750   6.784   1.332  0.0921  0.4741 -0.0770
20211TIP3    H182124   2.744   6.760   1.424 -2.4543 -2.3286 -0.9031
20211TIP3    H282125   2.688   6.856   1.321  1.8047  2.1340  0.7233
20212TIP3   OH282126   0.165   1.123  16.709 -0.1370  0.0870 -0.0711
20212TIP3    H182127   0.172   1.039  16.665 -0.0330  0.7478 -1.3387
20212TIP3    H282128   0.074   1.149  16.697  0.3055  1.0880 -1.4628
20213TIP3   OH282129   6.478   1.896  16.852  0.1024  0.5382  0.1137
20213TIP3    H182130   6.513   1.838  16.783 -0.9855  1.0372 -0.8766
20213TIP3    H282131   6.555   1.919  16.904  0.9574  0.1309 -0.9248
20214TIP3   OH282132   4.207   0.420  13.655 -0.2612 -0.1879  0.0974
20214TIP3    H182133   4.202   0.510  13.625 -1.4843 -0.4439 -0.4761
20214TIP3    H282134   4.297   0.410  13.686 -0.1384  1.2401  0.2201
20215TIP3   OH282135   3.340   4.254   4.400  0.6172 -0.3112 -0.3424
20215TIP3    H182136   3.386   4.236   4.318 -0.0371  1.1111 -1.0440
20215TIP3    H282137   3.409   4.284   4.460  1.0934 -1.3242 -0.3828
20216TIP3   OH282138   5.774   6.597   1.617 -0.9319  0.7743 -0.8430
20216TIP3    H182139   5.725   6.643   1.684 -2.5864 -1.0070 -0.7968
20216TIP3    H282140   5.736   6.510   1.614  1.7660 -0.4604 -1.3167
20217TIP3   OH282141   4.044   4.596   5.834  0.5381  0.5929  0.0095
20217TIP3    H182142   4.013   4.673   5.881 -1.5502  0.7958 -1.5890
20217TIP3    H282143   4.007   4.522   5.882  0.8468  0.6773  0.3746
20218TIP3   OH282144   2.318   2.070  12.362 -0.6472  0.2037 -0.5941
20218TIP3    H182145   2.392   2.025  12.402  0.1198  1.1122 -0.9678
20218TIP3    H282146   2.242   2.014  12.381 -0.1667  0.1904  1.4035
20219TIP3   OH282147   4.983   6.567   3.746  0.1732  0.1760 -0.2641
20219TIP3    H182148   4.923   6.578   3.819 -0.4043  2.0312 -0.9988
20219TIP3    H282149   4.953   6.629   3.680  1.0281 -1.0732 -1.8601
20220TIP3   OH282150   0.188   1.181   1.019 -0.0102  0.0464 -0.8668
20220TIP3    H182151   0.210   1.204   0.929  0.1515  2.7466 -0.1799
20220TIP3    H282152   0.093   1.166   1.017 -0.2659  1.5802 -1.2180
20221TIP3   OH282153   0.107   5.478  14.256  0.1881  0.0468 -0.3138
20221TIP3    H182154   0.184   5.516  14.300  0.0445  0.4979 -0.4468
20221TIP3    H282155   0.138   5.394  14.222  0.3700 -0.1871  0.4230
20222TIP3   OH282156   1.254   2.620   4.274 -0.2476  0.2216  0.2485
20222TIP3    H182157   1.243   2.536   4.228 -3.2915  0.1189  1.0671
20222TIP3    H282158   1.216   2.605   4.360  2.0458  1.5491  1.5321
20223TIP3   OH282159   4.645   5.230  12.313  0.0072  0.0360 -0.5434
20223TIP3    H182160   4.603   5.316  12.310  2.7586  1.4685  0.2411
20223TIP3    H282161   4.738   5.249  12.310  0.6569 -2.9687 -0.7033
20224TIP3   OH282162   5.665   6.145  15.917  0.0274 -0.1292  0.2588
20224TIP3    H182163   5.675   6.175  15.827  0.2095 -0.2803  0.2294
20224TIP3    H282164   5.612   6.214  15.959  0.2449  0.1186  0.1321
20225TIP3   OH282165   0.950   3.612  15.878 -0.9087 -0.3648  0.1981
20225TIP3    H182166   0.909   3.689  15.915 -2.8264 -1.2391 -0.0715
20225TIP3    H282167   0.965   3.634  15.786 -0.5397  0.0439  0.3561
20226TIP3   OH282168   2.809   1.634  15.062  0.0087  0.6972  0.0980
20226TIP3    H182169   2.752   1.696  15.108  0.5468 -0.0039  1.7699
20226TIP3    H282170   2.898   1.663  15.084  0.3067  1.5298 -2.1390
20227TIP3   OH282171   6.576   4.506   0.526 -0.1607  0.4804  0.1202
20227TIP3    H182172   6.589   4.600   0.530 -0.6471  0.6047 -1.0601
20227TIP3    H282173   6.662   4.470   0.503 -0.5385  0.8397 -1.9115
20228TIP3   OH282174   6.084   4.387  16.425  0.1345 -0.8358 -0.5842
20228TIP3    H182175   6.087   4.464  16.369 -1.7523 -0.7017 -0.5342
20228TIP3    H282176   6.158   4.398  16.485  0.2967  0.5778 -1.0219
20229TIP3   OH282177   1.145   0.155  12.842 -0.0897  0.1951  0.4493
20229TIP3    H182178   1.121   0.079  12.896  0.9742  0.1727  0.9142
20229TIP3    H282179   1.079   0.221  12.863  0.0210  0.0090  1.4089
20230TIP3   OH282180   6.775   4.878  16.365 -0.6146  0.0869  0.1557
20230TIP3    H182181   6.702   4.938  16.381 -0.7586 -0.2730  0.8304
20230TIP3    H282182   6.830   4.885  16.443  0.2744  0.6272 -0.4970
20231TIP3   OH282183   2.784   2.690   3.697  0.1298  0.2962 -0.9726
20231TIP3    H182184   2.746   2.645   3.772  2.2441  0.4497  0.2224
20231TIP3    H282185   2.800   2.779   3.727  0.6265  0.4724 -1.7295
20232TIP3   OH282186   4.828   6.268  11.392  0.1164  0.2478 -0.2536
20232TIP3    H182187   4.910   6.218  11.392  0.9216  1.5556 -0.3323
20232TIP3    H282188   4.847   6.348  11.440 -0.8748  0.9461 -0.9771
20233TIP3   OH282189   5.681   3.673  12.894 -0.2390  0.5986 -0.2032
20233TIP3    H182190   5.743   3.603  12.915  0.5549  1.7248  1.1730
20233TIP3    H282191   5.641   3.644  12.811 -0.0094 -1.5451  0.3961
20234TIP3   OH282192   4.444   1.870  16.802 -0.0026 -0.0287  0.4565
20234TIP3    H182193   4.422   1.963  16.811  2.3301  0.8324 -2.1547
20234TIP3    H282194   4.396   1.841  16.725  0.7313 -0.5374  0.1876
20235TIP3   OH282195   1.452   0.905  16.726  0.0817  0.5497  0.0999
20235TIP3    H182196   1.407   0.981  16.687 -0.1764 -0.0387 -0.7525
20235TIP3    H282197   1.532   0.896  16.675  0.7676  1.0611  1.0659
20236TIP3   OH282198   5.253   6.184   0.269  0.5173  0.1825 -0.0088
20236TIP3    H182199   5.170   6.233   0.272  0.2558 -0.2595  0.0467
20236TIP3    H282200   5.259   6.154   0.178  0.3308 -0.2718  0.1282
20237TIP3   OH282201   0.027   2.484  16.196 -0.2995 -0.0300 -0.1400
20237TIP3    H182202   0.099   2.440  16.241 -2.2472 -0.1702  3.0616
20237TIP3    H282203   0.048   2.577  16.202 -0.0322 -0.1110  0.2332
20238LIG      S82204   3.029   3.111  16.374 -0.0603 -0.2026  0.2526
20238LIG     F182205   4.240   3.312  16.970  0.0069 -0.5295  0.1190
20238LIG     F282206   4.204   3.105  17.001 -0.2216 -0.5764  0.1242
20238LIG     F382207   4.210   3.180  16.805  0.3055  0.2159 -0.2774
20238LIG     N182208   3.351   3.231  16.575 -0.3662 -0.1161 -1.0549
20238LIG     N282209   3.251   2.880  16.418  0.1571  0.4348  0.5547
20238LIG     C182210   3.245   3.003  16.507  0.0671  0.0140  0.1366
20238LIG     C282211   3.333   3.133  16.472  0.6825 -0.0646 -0.1678
20238LIG     C382212   3.404   3.363  16.536  0.1744 -0.5549  0.8604
20238LIG     C482213   3.419   3.188  16.706  0.0740 -0.1092 -0.0554
20238LIG     C582214   3.557   3.346  16.515  0.3265  0.2060  0.5200
20238LIG     C682215   3.568   3.163  16.686 -0.2484  0.6464  0.5284
20238LIG     C782216   3.627   3.289  16.639  0.3087  0.0079  0.0162
20238LIG     C882217   3.102   3.050  16.530 -0.2970 -0.7941 -0.2424
20238LIG     C982218   3.198   2.919  16.286 -0.0608  0.5828  0.2956
20238LIG    C1082219   3.052   2.961  16.284  0.2005  0.0918 -0.1632
20238LIG    C1182220   3.744   3.351  16.694 -0.4757  0.2409  0.0854
20238LIG    C1282221   3.182   2.762  16.476  0.0393  0.2599  0.0532
20238LIG    C1382222   3.813   3.301  16.822  0.1810 -0.6950  0.0545
20238LIG    C1482223   3.814   3.474  16.642  0.7816 -0.5645  0.2574
20238LIG    C1582224   3.949   3.277  16.816  0.0453 -0.4045  0.4543
20238LIG    C1682225   3.734   3.288  16.939  0.5363  0.5607  0.2100
20238LIG    C1782226   3.809   3.596  16.713  0.3060  0.1415 -0.6699
20238LIG    C1882227   3.878   3.471  16.516  0.6059 -0.7363 -0.3407
20238LIG    C1982228   4.018   3.228  16.929 -0.1638  0.2015  0.6152
20238LIG    C2082229   3.800   3.246  17.060 -0.2109 -1.0600 -0.6195
20238LIG    C2182230   3.872   3.706  16.668  0.2402 -0.0930  0.5342
20238LIG    C2282231   3.938   3.587  16.462  0.4731 -0.0143  0.6214
20238LIG    C2382232   3.939   3.210  17.045  0.5799  0.1565 -0.2025
20238LIG    C2482233   3.935   3.698  16.540  0.0857 -0.0498 -0.4061
20238LIG    C2582234   4.166   3.205  16.925  0.2370  0.0815  0.3733
20238LIG     H182235   3.275   2.973  16.610  0.4561  0.2865  0.1024
20238LIG     H282236   3.433   3.096  16.443  0.1013  0.4352 -2.9303
20238LIG     H382237   3.279   3.191  16.394 -0.6811  0.6594  1.2755
20238LIG     H482238   3.391   3.428  16.625  1.9862  1.4471 -0.2878
20238LIG     H582239   3.356   3.399  16.442 -0.0982 -1.2132  0.7436
20238LIG     H682240   3.378   3.095  16.752  1.1097 -0.0437  0.9922
20238LIG     H782241   3.404   3.258  16.790  0.2461 -1.1672  0.8689
20238LIG     H882242   3.606   3.439  16.476 -0.2280  0.5993  0.7604
20238LIG     H982243   3.583   3.287  16.425 -2.5558  0.4188 -0.5105
20238LIG    H1082244   3.578   3.075  16.618  1.2628  0.5229  0.8999
20238LIG    H1182245   3.611   3.126  16.782  1.8503 -2.7808 -1.6150
20238LIG    H1282246   3.039   2.967  16.567  0.2482 -1.6961 -1.3276
20238LIG    H1382247   3.106   3.125  16.613 -0.5685 -0.9425 -0.0961
20238LIG    H1482248   3.204   2.822  16.233 -0.2480  1.3590 -1.1708
20238LIG    H1582249   3.264   2.991  16.232 -1.3573  0.6973 -1.1816
20238LIG    H1682250   3.031   2.985  16.178  1.9328  1.7825 -0.1472
20238LIG    H1782251   2.985   2.881  16.321  0.5473  0.1381  0.5872
20238LIG    H1882252   3.219   2.740  16.579 -0.5439  1.0222  0.4296
20238LIG    H1982253   3.200   2.667  16.422 -1.6604 -0.2174  0.3077
20238LIG    H2082254   3.073   2.779  16.488 -0.0461 -1.3523  1.7401
20238LIG    H2182255   4.003   3.316  16.731 -2.0576 -0.2144 -0.8289
20238LIG    H2282256   3.632   3.322  16.938  0.5607  0.6220 -0.1338
20238LIG    H2382257   3.742   3.603  16.797 -0.4063  1.3434 -1.3211
20238LIG    H2482258   3.884   3.377  16.465  1.4607  0.3944 -2.3703
20238LIG    H2582259   3.749   3.235  17.154 -0.6939  0.6717 -0.6643
20238LIG    H2682260   3.875   3.802  16.718 -1.5710  1.0306 -1.4117
20238LIG    H2782261   3.998   3.592  16.372  3.1553  0.8984  2.3731
20238LIG    H2882262   3.991   3.198  17.139 -0.3176  1.5889  0.4859
20238LIG    H2982263   3.979   3.791  16.508  1.1415 -0.6900 -0.8201
   6.82013   6.82013  17.29240
